 Gaussian 16, Revision A.03,

 -----------------------------------------------------------
 # opt freq B3LYP/6-31G(d) empiricaldispersion=gd3bj scf=xqc
 -----------------------------------------------------------

 ------------------------------
 CID_43588135_JID_7032_neutraal
 ------------------------------
 Symbolic Z-matrix:
 Charge =  0 Multiplicity = 1

 SCF Done:  E(RB3LYP) =  -745.103418710     A.U. after   14 cycles
 SCF Done:  E(RB3LYP) =  -745.109933799     A.U. after   13 cycles
 SCF Done:  E(RB3LYP) =  -745.111120604     A.U. after   13 cycles
 SCF Done:  E(RB3LYP) =  -745.111579443     A.U. after   12 cycles
 SCF Done:  E(RB3LYP) =  -745.111803981     A.U. after   12 cycles
 SCF Done:  E(RB3LYP) =  -745.111966942     A.U. after   12 cycles
 SCF Done:  E(RB3LYP) =  -745.112091594     A.U. after   12 cycles
 SCF Done:  E(RB3LYP) =  -745.112189448     A.U. after   11 cycles
 SCF Done:  E(RB3LYP) =  -745.112225146     A.U. after   12 cycles
 SCF Done:  E(RB3LYP) =  -745.112253333     A.U. after   10 cycles
 SCF Done:  E(RB3LYP) =  -745.112358692     A.U. after    7 cycles
 SCF Done:  E(RB3LYP) =  -745.112358725     A.U. after    7 cycles
 SCF Done:  E(RB3LYP) =  -745.112358759     A.U. after    7 cycles
 SCF Done:  E(RB3LYP) =  -745.112358785     A.U. after    7 cycles
 SCF Done:  E(RB3LYP) =  -745.112358798     A.U. after    6 cycles
 Optimization completed.
    -- Stationary point found.
 Normal termination of Gaussian 16 at Fri Dec 11 11:55:16 2020.

 --------------------------------------------------------------------
 #N Geom=AllCheck Guess=TCheck SCRF=Check GenChk RB3LYP/6-31G(d) Freq
 --------------------------------------------------------------------

 Structure from the checkpoint file:  "JID_7032.chk"
 ------------------------------
 CID_43588135_JID_7032_neutraal
 ------------------------------
 Charge =  0 Multiplicity = 1

 SCF Done:  E(RB3LYP) =  -745.112358798     A.U. after    1 cycles

  Exact polarizability: 153.693  18.617 173.967  20.944  -8.091 127.468
 Approx polarizability: 224.723  38.484 266.902  49.309 -15.109 214.992

                      1                      2                      3
                      A                      A                      A
 Frequencies --     29.8383                44.6753                52.0838
 Red. masses --      5.2322                 3.5530                 3.9902
 Frc consts  --      0.0027                 0.0042                 0.0064
 IR Inten    --      1.1081                 1.0559                 3.1313

                      4                      5                      6
                      A                      A                      A
 Frequencies --     76.0621                95.5798               105.0173
 Red. masses --      2.0819                 1.4398                 1.2271
 Frc consts  --      0.0071                 0.0077                 0.0080
 IR Inten    --      0.0708                 0.7909                 0.3529

                      7                      8                      9
                      A                      A                      A
 Frequencies --    107.4918               170.5985               181.6612
 Red. masses --      2.4244                 3.4645                 3.5428
 Frc consts  --      0.0165                 0.0594                 0.0689
 IR Inten    --      2.7198                 0.5676                 0.9946

                     10                     11                     12
                      A                      A                      A
 Frequencies --    220.3614               232.9984               246.8121
 Red. masses --      3.0354                 2.1193                 1.6329
 Frc consts  --      0.0868                 0.0678                 0.0586
 IR Inten    --      5.4742                 1.4598                 0.7067

                     13                     14                     15
                      A                      A                      A
 Frequencies --    264.4679               289.9228               293.1929
 Red. masses --      2.2042                 1.4378                 1.5305
 Frc consts  --      0.0908                 0.0712                 0.0775
 IR Inten    --      0.3230                17.2555                 5.6767

                     16                     17                     18
                      A                      A                      A
 Frequencies --    316.4937               377.7948               382.2492
 Red. masses --      2.8297                 5.0094                 4.0055
 Frc consts  --      0.1670                 0.4213                 0.3448
 IR Inten    --      0.7157                 2.0042                 1.5160

                     19                     20                     21
                      A                      A                      A
 Frequencies --    396.1754               442.2767               474.2680
 Red. masses --      2.7340                 3.4475                 4.3153
 Frc consts  --      0.2528                 0.3973                 0.5719
 IR Inten    --      2.5569                 3.4875                 5.8246

                     22                     23                     24
                      A                      A                      A
 Frequencies --    501.3874               507.5849               583.3283
 Red. masses --      3.4969                 3.8224                 4.0392
 Frc consts  --      0.5179                 0.5802                 0.8098
 IR Inten    --      2.5235                 3.4623                25.1807

                     25                     26                     27
                      A                      A                      A
 Frequencies --    598.5527               629.9505               638.5518
 Red. masses --      2.1775                 4.9524                 4.2575
 Frc consts  --      0.4596                 1.1579                 1.0228
 IR Inten    --     96.0340                14.5159                17.8115

                     28                     29                     30
                      A                      A                      A
 Frequencies --    655.6258               697.2789               734.3566
 Red. masses --      1.7791                 4.4464                 3.4429
 Frc consts  --      0.4506                 1.2737                 1.0939
 IR Inten    --    203.2661                11.7616                 6.5506

                     31                     32                     33
                      A                      A                      A
 Frequencies --    749.8911               761.7140               804.8432
 Red. masses --      4.4213                 4.2681                 3.2840
 Frc consts  --      1.4649                 1.4590                 1.2534
 IR Inten    --      5.0899                17.0033                 2.4540

                     34                     35                     36
                      A                      A                      A
 Frequencies --    825.3523               835.8722               864.2837
 Red. masses --      1.4404                 1.5017                 1.4636
 Frc consts  --      0.5781                 0.6182                 0.6441
 IR Inten    --      6.2786                37.7709                21.3258

                     37                     38                     39
                      A                      A                      A
 Frequencies --    919.1272               934.0255               969.3245
 Red. masses --      4.9525                 1.3160                 2.9379
 Frc consts  --      2.4651                 0.6765                 1.6264
 IR Inten    --     25.2921                 0.2902                 4.4449

                     40                     41                     42
                      A                      A                      A
 Frequencies --    987.1674               996.6462              1014.2431
 Red. masses --      2.3862                 2.7964                 3.0995
 Frc consts  --      1.3701                 1.6366                 1.8786
 IR Inten    --      9.1655                10.3735                 1.4672

                     43                     44                     45
                      A                      A                      A
 Frequencies --   1033.5287              1038.9317              1051.2313
 Red. masses --      1.5404                 2.1928                 3.5861
 Frc consts  --      0.9694                 1.3945                 2.3349
 IR Inten    --      5.5079                12.1081                 4.5971

                     46                     47                     48
                      A                      A                      A
 Frequencies --   1075.7773              1081.5081              1108.7239
 Red. masses --      1.5246                 1.5024                 2.3695
 Frc consts  --      1.0395                 1.0354                 1.7161
 IR Inten    --     10.1396                 2.7428                19.4148

                     49                     50                     51
                      A                      A                      A
 Frequencies --   1130.4949              1156.0181              1167.8077
 Red. masses --      1.5283                 1.5485                 1.4824
 Frc consts  --      1.1508                 1.2193                 1.1911
 IR Inten    --      6.3582                11.9533                 6.6216

                     52                     53                     54
                      A                      A                      A
 Frequencies --   1177.3268              1199.7067              1214.1454
 Red. masses --      1.6405                 1.8037                 1.9397
 Frc consts  --      1.3397                 1.5296                 1.6847
 IR Inten    --     14.4891                10.4641                22.3981

                     55                     56                     57
                      A                      A                      A
 Frequencies --   1268.9032              1288.5035              1303.6935
 Red. masses --      1.6636                 1.7956                 2.7240
 Frc consts  --      1.5782                 1.7564                 2.7277
 IR Inten    --     19.3319                56.6469                 9.0956

                     58                     59                     60
                      A                      A                      A
 Frequencies --   1318.5754              1349.8524              1362.1339
 Red. masses --      1.9946                 4.0506                 3.6814
 Frc consts  --      2.0432                 4.3486                 4.0244
 IR Inten    --      4.7416                19.7185                 9.1713

                     61                     62                     63
                      A                      A                      A
 Frequencies --   1409.7186              1440.4641              1446.1152
 Red. masses --      1.5181                 1.2592                 1.2423
 Frc consts  --      1.7776                 1.5394                 1.5307
 IR Inten    --     23.7735                 2.7909                 2.2789

                     64                     65                     66
                      A                      A                      A
 Frequencies --   1473.1370              1480.1563              1485.6693
 Red. masses --      2.5517                 1.3456                 2.1172
 Frc consts  --      3.2627                 1.7369                 2.7533
 IR Inten    --     15.3353                10.4200                 0.4416

                     67                     68                     69
                      A                      A                      A
 Frequencies --   1504.3098              1506.9969              1514.7570
 Red. masses --      1.0428                 1.0748                 1.0750
 Frc consts  --      1.3904                 1.4381                 1.4533
 IR Inten    --      6.5649                 2.3957                10.6158

                     70                     71                     72
                      A                      A                      A
 Frequencies --   1517.4818              1522.1424              1523.2784
 Red. masses --      1.2605                 1.1552                 1.3026
 Frc consts  --      1.7102                 1.5770                 1.7808
 IR Inten    --     21.2420                 6.0578                 3.2197

                     73                     74                     75
                      A                      A                      A
 Frequencies --   1540.0059              1541.9750              1560.8231
 Red. masses --      1.4671                 2.1820                 2.4538
 Frc consts  --      2.0500                 3.0567                 3.5221
 IR Inten    --     13.3417                 2.3939               107.7054

                     76                     77                     78
                      A                      A                      A
 Frequencies --   1636.1987              1665.3068              1671.3018
 Red. masses --      6.4205                 6.6453                 3.6384
 Frc consts  --     10.1272                10.8581                 5.9878
 IR Inten    --      3.6328                46.9812                32.5667

                     79                     80                     81
                      A                      A                      A
 Frequencies --   1695.6512              2934.8211              2951.8740
 Red. masses --      1.2901                 1.0722                 1.0609
 Frc consts  --      2.1855                 5.4413                 5.4467
 IR Inten    --    113.8008                44.0881               106.6126

                     82                     83                     84
                      A                      A                      A
 Frequencies --   3057.1614              3060.2486              3075.3112
 Red. masses --      1.0373                 1.0358                 1.0743
 Frc consts  --      5.7118                 5.7153                 5.9860
 IR Inten    --     18.3879                23.5142                43.7635

                     85                     86                     87
                      A                      A                      A
 Frequencies --   3094.8493              3112.3818              3122.5781
 Red. masses --      1.0873                 1.1014                 1.1004
 Frc consts  --      6.1361                 6.2863                 6.3217
 IR Inten    --     24.8103                10.2320                11.8181

                     88                     89                     90
                      A                      A                      A
 Frequencies --   3133.4978              3135.0749              3152.1270
 Red. masses --      1.1028                 1.1012                 1.1010
 Frc consts  --      6.3795                 6.3772                 6.4454
 IR Inten    --     15.4222                25.6737                 8.0599

                     91                     92                     93
                      A                      A                      A
 Frequencies --   3166.4221              3171.8683              3191.5757
 Red. masses --      1.0896                 1.0869                 1.0936
 Frc consts  --      6.4365                 6.4427                 6.5633
 IR Inten    --     24.1722                19.2128                16.9196

                     94                     95                     96
                      A                      A                      A
 Frequencies --   3296.6285              3545.9514              3643.9124
 Red. masses --      1.0990                 1.0480                 1.0977
 Frc consts  --      7.0372                 7.7637                 8.5877
 IR Inten    --      1.3163                11.6607                 7.2071

 - Thermochemistry -
 -------------------
 Temperature   298.150 Kelvin.  Pressure   1.00000 Atm.
 Atom     1 has atomic number  6 and mass  12.00000

 Molecular mass:   231.13716 amu.
 Principal axes and moments of inertia in atomic units:
                           1         2         3
     Eigenvalues --  2965.230844566.935306171.03531
           X            0.99984  -0.01778   0.00122
           Y            0.01779   0.99981  -0.00765
           Z           -0.00109   0.00767   0.99997
 This molecule is an asymmetric top.
 Rotational symmetry number  1.
 Warning -- assumption of classical behavior for rotation
           may cause significant error
 Rotational temperatures (Kelvin)      0.02921     0.01897     0.01404
 Rotational constants (GHZ):           0.60863     0.39518     0.29245
 Zero-point vibrational energy     749566.7 (Joules/Mol)
                                  179.15074 (Kcal/Mol)
 Warning -- explicit consideration of  25 degrees of freedom as
           vibrations may cause significant error
 Vibrational temperatures:     42.93    64.28    74.94   109.44   137.52
          (Kelvin)            151.10   154.66   245.45   261.37   317.05
                              335.23   355.11   380.51   417.13   421.84
                              455.36   543.56   549.97   570.01   636.34
                              682.37   721.38   730.30   839.28   861.18
                              906.36   918.73   943.30  1003.23  1056.58
                             1078.93  1095.94  1157.99  1187.50  1202.63
                             1243.51  1322.42  1343.85  1394.64  1420.31
                             1433.95  1459.27  1487.02  1494.79  1512.49
                             1547.80  1556.05  1595.21  1626.53  1663.25
                             1680.21  1693.91  1726.11  1746.88  1825.67
                             1853.87  1875.72  1897.14  1942.14  1959.81
                             2028.27  2072.51  2080.64  2119.52  2129.61
                             2137.55  2164.37  2168.23  2179.40  2183.32
                             2190.02  2191.66  2215.73  2218.56  2245.68
                             2354.13  2396.01  2404.63  2439.66  4222.55
                             4247.09  4398.57  4403.02  4424.69  4452.80
                             4478.02  4492.69  4508.40  4510.67  4535.21
                             4555.78  4563.61  4591.97  4743.11  5101.83
                             5242.78

 Zero-point correction=                           0.285495 (Hartree/Particle)
 Thermal correction to Energy=                    0.302343
 Thermal correction to Enthalpy=                  0.303288
 Thermal correction to Gibbs Free Energy=         0.240326
 Sum of electronic and zero-point Energies=           -744.826864
 Sum of electronic and thermal Energies=              -744.810015
 Sum of electronic and thermal Enthalpies=            -744.809071
 Sum of electronic and thermal Free Energies=         -744.872033

                     E (Thermal)             CV                S
                      KCal/Mol        Cal/Mol-Kelvin    Cal/Mol-Kelvin
 Total                  189.723             63.482            132.513
 Electronic               0.000              0.000              0.000
 Translational            0.889              2.981             42.215
 Rotational               0.889              2.981             32.791
 Vibrational            187.946             57.521             57.507
 Vibration     1          0.594              1.984              5.840
 Vibration     2          0.595              1.980              5.040
 Vibration     3          0.596              1.977              4.737
 Vibration     4          0.599              1.965              3.990
 Vibration     5          0.603              1.952              3.543
 Vibration     6          0.605              1.945              3.359
 Vibration     7          0.606              1.943              3.314
 Vibration     8          0.626              1.879              2.429
 Vibration     9          0.630              1.865              2.311
 Vibration    10          0.647              1.810              1.956
 Vibration    11          0.654              1.790              1.856
 Vibration    12          0.661              1.768              1.753
 Vibration    13          0.671              1.738              1.632
 Vibration    14          0.686              1.692              1.474
 Vibration    15          0.688              1.686              1.455
 Vibration    16          0.703              1.642              1.328
 Vibration    17          0.748              1.517              1.048
 Vibration    18          0.752              1.508              1.030
 Vibration    19          0.763              1.478              0.977
 Vibration    20          0.802              1.378              0.819
 Vibration    21          0.831              1.307              0.726
 Vibration    22          0.857              1.247              0.655
 Vibration    23          0.863              1.233              0.639
 Vibration    24          0.940              1.067              0.479
 Vibration    25          0.957              1.035              0.452

 Optimization completed.
    -- Stationary point found.
 Normal termination of Gaussian 16 at Fri Dec 11 12:09:06 2020.

 ----------------------------------------------------------------------
 # B3LYP/6-311++G(d,p) empiricaldispersion=gd3bj scf=xqc pop=npa geom=c
 heck
 ----------------------------------------------------------------------

 --------------------------------------
 CID_43588135_JID_7032_Energie_neutraal
 --------------------------------------
 Structure from the checkpoint file:  "JID_7032.chk"
 Charge =  0 Multiplicity = 1

 SCF Done:  E(RB3LYP) =  -745.316343701     A.U. after   16 cycles
 Normal termination of Gaussian 16 at Fri Dec 11 12:15:35 2020.

 ----------------------------------------------------------------------
 # B3LYP/6-311++G(d,p) empiricaldispersion=gd3bj scf=xqc pop=npa geom=c
 heck
 ----------------------------------------------------------------------

 ------------------------------------
 CID_43588135_JID_7032_Energie_kation
 ------------------------------------
 Structure from the checkpoint file:  "JID_7032.chk"
 Charge =  1 Multiplicity = 2

 SCF Done:  E(UB3LYP) =  -745.043269614     A.U. after   23 cycles
 Normal termination of Gaussian 16 at Fri Dec 11 12:27:04 2020.
 Gaussian 16:  ES64L-G16RevA.03 25-Dec-2016

 ----------------------------------------------------------------------
 # B3LYP/6-311++G(d,p) empiricaldispersion=gd3bj scf=xqc pop=npa geom=c
 heck
 ----------------------------------------------------------------------

 -----------------------------------
 CID_43588135_JID_7032_Energie_anion
 -----------------------------------
 Structure from the checkpoint file:  "JID_7032.chk"
 Charge = -1 Multiplicity = 2

                         Standard orientation:
 ---------------------------------------------------------------------
 Center     Atomic      Atomic             Coordinates (Angstroms)
 Number     Number       Type             X           Y           Z
 ---------------------------------------------------------------------
      1          6           0        2.737274   -2.894192   -0.353325
      2          6           0        2.459865   -1.432211   -0.347333
      3          6           0        1.448707   -0.665502   -0.839590
      4          6           0        1.804551    0.665167   -0.465669
      5          7           0        2.943325    0.696225    0.191770
      6          8           0        3.366517   -0.638535    0.270746
      7          6           0        1.062921    1.946311   -0.715348
      8          7           0       -0.120318    2.093803    0.143092
      9          6           0       -0.750550    3.393854   -0.048305
     10          6           0       -1.029479    0.979947    0.055122
     11          6           0       -1.080765    0.063492    1.121185
     12          6           0       -1.917239   -1.048311    1.014958
     13          6           0       -2.706143   -1.278106   -0.122755
     14          6           0       -2.651179   -0.352460   -1.175522
     15          6           0       -1.819411    0.758951   -1.076375
     16          7           0       -3.486440   -2.435554   -0.226174
     17          6           0       -0.230458    0.268011    2.348434
     18          1           0        3.686572   -3.113208   -0.855267
     19          1           0        2.805894   -3.283643    0.668783
     20          1           0        1.935994   -3.423954   -0.873958
     21          1           0        0.563287   -0.989993   -1.363582
     22          1           0        1.740153    2.780055   -0.503887
     23          1           0        0.796480    1.999566   -1.788672
     24          1           0       -1.092392    3.579162   -1.084020
     25          1           0       -1.615390    3.474454    0.615654
     26          1           0       -0.036122    4.183177    0.212573
     27          1           0       -1.954817   -1.762155    1.835577
     28          1           0       -3.255295   -0.509063   -2.066187
     29          1           0       -1.778553    1.464829   -1.901999
     30          1           0       -3.762907   -2.833552    0.663186
     31          1           0       -4.281425   -2.350280   -0.847825
     32          1           0       -0.485073   -0.458671    3.126347
     33          1           0        0.834053    0.162962    2.113221
     34          1           0       -0.357126    1.277575    2.750406
 ---------------------------------------------------------------------

 SCF Done:  E(UB3LYP) =  -745.305301224     A.U. after   33 cycles
 SCF Done:  E(UB3LYP) =  -745.305301224     a.u. after    1 cycles

 The electronic state is 2-A.
 Alpha  occ. eigenvalues --  -19.11635 -14.26896 -14.22359 -14.21166 -10.15602
 Alpha  occ. eigenvalues --  -10.12533 -10.12290 -10.11461 -10.10653 -10.09744
 Alpha  occ. eigenvalues --  -10.09452 -10.08493 -10.08448 -10.07746 -10.06920
 Alpha  occ. eigenvalues --  -10.06673 -10.06668  -1.05118  -0.84951  -0.81607
 Alpha  occ. eigenvalues --   -0.78699  -0.73933  -0.72096  -0.67276  -0.63888
 Alpha  occ. eigenvalues --   -0.63544  -0.63098  -0.59312  -0.55776  -0.52075
 Alpha  occ. eigenvalues --   -0.50665  -0.48849  -0.46467  -0.42329  -0.42045
 Alpha  occ. eigenvalues --   -0.40790  -0.39792  -0.39054  -0.37484  -0.36603
 Alpha  occ. eigenvalues --   -0.35047  -0.34713  -0.33749  -0.32911  -0.32662
 Alpha  occ. eigenvalues --   -0.32081  -0.31581  -0.31267  -0.30842  -0.29403
 Alpha  occ. eigenvalues --   -0.28889  -0.28507  -0.27705  -0.26191  -0.24818
 Alpha  occ. eigenvalues --   -0.22245  -0.20782  -0.20651  -0.17109  -0.15037
 Alpha  occ. eigenvalues --   -0.13848  -0.10800   0.04103
 Alpha virt. eigenvalues --    0.05962   0.06134   0.06616   0.07245   0.08325
 Alpha virt. eigenvalues --    0.08524   0.08598   0.09045   0.09215   0.09826
 Alpha virt. eigenvalues --    0.10308   0.10847   0.11321   0.11487   0.11853

  Beta  occ. eigenvalues --  -19.11632 -14.26894 -14.22355 -14.21094 -10.15602
  Beta  occ. eigenvalues --  -10.12532 -10.12285 -10.11459 -10.10643 -10.09708
  Beta  occ. eigenvalues --  -10.09450 -10.08485 -10.08448 -10.07740 -10.06897
  Beta  occ. eigenvalues --  -10.06667 -10.06649  -1.05115  -0.84942  -0.81529
  Beta  occ. eigenvalues --   -0.78693  -0.73901  -0.72083  -0.67255  -0.63864
  Beta  occ. eigenvalues --   -0.63506  -0.63063  -0.59289  -0.55739  -0.52058
  Beta  occ. eigenvalues --   -0.50635  -0.48809  -0.46433  -0.42301  -0.42003
  Beta  occ. eigenvalues --   -0.40744  -0.39761  -0.39017  -0.37469  -0.36571
  Beta  occ. eigenvalues --   -0.35012  -0.34678  -0.33716  -0.32882  -0.32633
  Beta  occ. eigenvalues --   -0.32062  -0.31562  -0.31237  -0.30820  -0.29385
  Beta  occ. eigenvalues --   -0.28875  -0.28498  -0.27678  -0.26169  -0.24793
  Beta  occ. eigenvalues --   -0.22239  -0.20751  -0.20644  -0.17099  -0.15024
  Beta  occ. eigenvalues --   -0.13826  -0.10761
  Beta virt. eigenvalues --    0.06037   0.06429   0.06715   0.07512   0.07673
  Beta virt. eigenvalues --    0.08388   0.08768   0.08931   0.09274   0.09596
  Beta virt. eigenvalues --    0.10069   0.10757   0.11204   0.11514   0.11673

 Mulliken charges and spin densities:
               1          2
     1  C    1.326116  -1.850363
     2  C   -1.276148   0.870282
     3  C    0.104980   0.157134
     4  C   -0.220501   0.022464
     5  N   -0.240104   0.033427
     6  O    0.142530  -0.004341
     7  C    0.155584  -0.326225
     8  N    0.376761  -0.055779
     9  C    0.255324  -0.426307
    10  C   -0.857725   0.146571
    11  C   -0.641750   1.107887
    12  C   -0.411717   0.390030
    13  C    1.449573  -2.002226
    14  C    0.992464  -1.186344
    15  C   -0.314296   0.298954
    16  N   -0.346289   0.074336
    17  C    0.267808  -0.902146
    18  H   -0.141728   0.307372
    19  H   -0.125777   0.306006
    20  H   -0.197674   0.374758
    21  H    0.072634   0.124410
    22  H    0.154324   0.006206
    23  H    0.022975   0.111548
    24  H    0.007068   0.113932
    25  H    0.059294   0.092156
    26  H    0.034527   0.098962
    27  H   -0.530343   0.709649
    28  H   -0.735420   0.913652
    29  H   -0.118431   0.261320
    30  H   -0.331857   0.576591
    31  H   -0.316567   0.567054
    32  H    0.069028   0.072498
    33  H    0.188618  -0.006084
    34  H    0.126723   0.022616
 Sum of Mulliken charges =  -1.00000   1.00000

 Dipole moment (field-independent basis, Debye):
    X=              5.6312    Y=              6.6395    Z=              0.7249  Tot=              8.7360
 Quadrupole moment (field-independent basis, Debye-Ang):
   XX=           -188.0653   YY=           -157.5516   ZZ=           -135.7747
   XY=            -17.8996   XZ=             -7.6533   YZ=             -0.8645

 Summary of Natural Population Analysis:

                                       Natural Population
                Natural  -----------------------------------------------
    Atom  No    Charge         Core      Valence    Rydberg      Total
 -----------------------------------------------------------------------
      C    1   -0.30991      0.99962     2.30442    0.00586     3.30991
      C    2    0.17509      0.99951     1.81029    0.01512     2.82491
      C    3   -0.18017      0.99945     2.16829    0.01242     3.18017
      C    4    0.12257      0.99960     1.86605    0.01177     2.87743
      N    5   -0.09697      0.99968     2.58080    0.01648     3.59697
      O    6   -0.17264      0.99985     3.16405    0.00874     4.17264
      C    7   -0.10537      0.99958     2.09142    0.01437     3.10537
      N    8   -0.27921      0.99969     2.76737    0.01215     3.77921
      C    9   -0.17216      0.99964     2.16593    0.00659     3.17216
      C   10    0.04926      0.99941     1.93658    0.01476     2.95074
      C   11   -0.00565      0.99947     1.99573    0.01046     3.00565
      C   12   -0.12174      0.99947     2.11188    0.01039     3.12174
      C   13    0.09048      0.99949     1.89782    0.01221     2.90952
      C   14   -0.12555      0.99952     2.11517    0.01086     3.12555
      C   15   -0.10153      0.99951     2.09275    0.00927     3.10153
      N   16   -0.39207      0.99972     2.88193    0.01042     3.89207
      C   17   -0.29286      0.99963     2.28693    0.00631     3.29286
      H   18    0.11014      0.00000     0.38868    0.00117     0.38986
      H   19    0.11264      0.00000     0.38620    0.00116     0.38736
      H   20    0.11456      0.00000     0.38454    0.00090     0.38544
      H   21    0.12333      0.00000     0.37489    0.00178     0.37667
      H   22    0.10446      0.00000     0.39422    0.00132     0.39554
      H   23    0.08833      0.00000     0.41009    0.00158     0.41167
      H   24    0.07976      0.00000     0.41861    0.00162     0.42024
      H   25    0.09999      0.00000     0.39920    0.00081     0.40001
      H   26    0.09180      0.00000     0.40722    0.00098     0.40820
      H   27    0.09957      0.00000     0.39872    0.00171     0.40043
      H   28    0.10279      0.00000     0.39559    0.00162     0.39721
      H   29    0.10015      0.00000     0.39811    0.00175     0.39985
      H   30    0.18829      0.00000     0.30491    0.00680     0.31171
      H   31    0.18935      0.00000     0.30232    0.00833     0.31065
      H   32    0.09857      0.00000     0.40064    0.00079     0.40143
      H   33    0.10905      0.00000     0.38938    0.00158     0.39095
      H   34    0.10580      0.00000     0.39320    0.00100     0.39420
 =======================================================================
   * Total *    0.00016     16.99283    44.78394    0.22307    61.99984

 Normal termination of Gaussian 16 at Fri Dec 11 12:48:12 2020.
