 Gaussian 16, Revision A.03,

 -----------------------------------------------------------
 # opt freq B3LYP/6-31G(d) empiricaldispersion=gd3bj scf=xqc
 -----------------------------------------------------------

 -------------------------------
 CID_43791921_JID_10026_neutraal
 -------------------------------
 Symbolic Z-matrix:
 Charge =  0 Multiplicity = 1

 SCF Done:  E(RB3LYP) =  -863.085120468     A.U. after   14 cycles
 SCF Done:  E(RB3LYP) =  -863.090528926     A.U. after   13 cycles
 SCF Done:  E(RB3LYP) =  -863.092085203     A.U. after   12 cycles
 SCF Done:  E(RB3LYP) =  -863.092017463     A.U. after   15 cycles
 SCF Done:  E(RB3LYP) =  -863.093386779     A.U. after   12 cycles
 SCF Done:  E(RB3LYP) =  -863.093677707     A.U. after   11 cycles
 SCF Done:  E(RB3LYP) =  -863.093871340     A.U. after   12 cycles
 SCF Done:  E(RB3LYP) =  -863.093926251     A.U. after   10 cycles
 SCF Done:  E(RB3LYP) =  -863.093951191     A.U. after   10 cycles
 SCF Done:  E(RB3LYP) =  -863.093959807     A.U. after   10 cycles
 SCF Done:  E(RB3LYP) =  -863.093972126     A.U. after    7 cycles
 SCF Done:  E(RB3LYP) =  -863.093972198     A.U. after    7 cycles
 SCF Done:  E(RB3LYP) =  -863.093972228     A.U. after    7 cycles
 SCF Done:  E(RB3LYP) =  -863.093972240     A.U. after    7 cycles
 SCF Done:  E(RB3LYP) =  -863.093972244     A.U. after    6 cycles
 Optimization completed.
    -- Stationary point found.
 Normal termination of Gaussian 16 at Sun Dec 13 12:55:24 2020.

 --------------------------------------------------------------------
 #N Geom=AllCheck Guess=TCheck SCRF=Check GenChk RB3LYP/6-31G(d) Freq
 --------------------------------------------------------------------

 Structure from the checkpoint file:  "JID_10026.chk"
 -------------------------------
 CID_43791921_JID_10026_neutraal
 -------------------------------
 Charge =  0 Multiplicity = 1

 SCF Done:  E(RB3LYP) =  -863.093972244     A.U. after    1 cycles

  Exact polarizability: 233.290 -15.654 191.257 -17.053  -1.612 129.117
 Approx polarizability: 304.279 -21.072 294.124 -39.663   2.615 213.752

                      1                      2                      3
                      A                      A                      A
 Frequencies --     15.2414                20.5924                21.7819
 Red. masses --      4.5414                 3.7664                 3.9000
 Frc consts  --      0.0006                 0.0009                 0.0011
 IR Inten    --      1.5085                 0.5754                 0.1726

                      4                      5                      6
                      A                      A                      A
 Frequencies --     35.3880                50.5694                61.3531
 Red. masses --      3.9896                 3.4733                 3.9992
 Frc consts  --      0.0029                 0.0052                 0.0089
 IR Inten    --      0.4197                 0.9142                 0.8451

                      7                      8                      9
                      A                      A                      A
 Frequencies --     93.5653                95.7590               103.4295
 Red. masses --      3.9311                 3.3973                 3.6889
 Frc consts  --      0.0203                 0.0184                 0.0233
 IR Inten    --      0.3394                 1.0282                 1.2277

                     10                     11                     12
                      A                      A                      A
 Frequencies --    115.8256               199.4461               217.8751
 Red. masses --      3.4837                 3.0907                 3.7714
 Frc consts  --      0.0275                 0.0724                 0.1055
 IR Inten    --      0.9197                 0.7628                 0.5192

                     13                     14                     15
                      A                      A                      A
 Frequencies --    238.8277               251.3472               258.4359
 Red. masses --      1.1920                 1.3291                 1.6939
 Frc consts  --      0.0401                 0.0495                 0.0667
 IR Inten    --      0.3076                 0.6234                 0.7125

                     16                     17                     18
                      A                      A                      A
 Frequencies --    283.9655               308.2034               340.8962
 Red. masses --      1.0669                 3.8868                 3.2972
 Frc consts  --      0.0507                 0.2175                 0.2258
 IR Inten    --      0.6728                 0.6860                 0.0644

                     19                     20                     21
                      A                      A                      A
 Frequencies --    349.6039               356.7153               367.3947
 Red. masses --      2.9652                 2.5439                 3.1237
 Frc consts  --      0.2135                 0.1907                 0.2484
 IR Inten    --      0.9379                 0.4392                 1.8052

                     22                     23                     24
                      A                      A                      A
 Frequencies --    382.0725               432.5626               450.0481
 Red. masses --      2.4849                 3.1794                 2.5124
 Frc consts  --      0.2137                 0.3505                 0.2998
 IR Inten    --      0.5152                 0.9483                 5.6054

                     25                     26                     27
                      A                      A                      A
 Frequencies --    466.8487               478.0865               505.5494
 Red. masses --      3.5187                 3.2814                 2.9460
 Frc consts  --      0.4518                 0.4419                 0.4436
 IR Inten    --      8.1680                 3.3834                 2.3258

                     28                     29                     30
                      A                      A                      A
 Frequencies --    553.3322               607.5563               642.0998
 Red. masses --      3.5649                 2.7108                 4.2960
 Frc consts  --      0.6431                 0.5896                 1.0436
 IR Inten    --      8.7973                11.0930                 2.9198

                     31                     32                     33
                      A                      A                      A
 Frequencies --    657.2381               677.5165               710.0736
 Red. masses --      6.9084                 3.6730                 1.2101
 Frc consts  --      1.7582                 0.9934                 0.3595
 IR Inten    --      1.3082                31.0626                14.5026

                     34                     35                     36
                      A                      A                      A
 Frequencies --    729.1385               739.9770               749.3429
 Red. masses --      2.0021                 3.3234                 3.5259
 Frc consts  --      0.6271                 1.0722                 1.1665
 IR Inten    --     48.8765                 6.5294                 7.6227

                     37                     38                     39
                      A                      A                      A
 Frequencies --    764.4653               804.4608               825.9402
 Red. masses --      2.4637                 1.4094                 3.1495
 Frc consts  --      0.8483                 0.5374                 1.2659
 IR Inten    --     30.8115                23.3049                 3.7805

                     40                     41                     42
                      A                      A                      A
 Frequencies --    841.5459               850.9343               864.7622
 Red. masses --      1.3204                 1.3129                 2.8451
 Frc consts  --      0.5510                 0.5601                 1.2536
 IR Inten    --      2.7937                 3.9452                10.3170

                     43                     44                     45
                      A                      A                      A
 Frequencies --    874.4379               891.6464               918.4545
 Red. masses --      1.8448                 1.9602                 1.9957
 Frc consts  --      0.8311                 0.9182                 0.9919
 IR Inten    --     13.7774                11.4431                 4.2606

                     46                     47                     48
                      A                      A                      A
 Frequencies --    925.3882               936.5191               942.0156
 Red. masses --      3.3864                 1.3600                 1.8756
 Frc consts  --      1.7086                 0.7028                 0.9807
 IR Inten    --      7.0158                 0.1235                 0.7464

                     49                     50                     51
                      A                      A                      A
 Frequencies --    950.0545               950.8793               969.7216
 Red. masses --      1.2780                 1.4410                 2.3251
 Frc consts  --      0.6796                 0.7677                 1.2882
 IR Inten    --      1.9996                15.1157                58.2214

                     52                     53                     54
                      A                      A                      A
 Frequencies --    992.6041              1007.6983              1039.6905
 Red. masses --      1.3347                 1.5824                 2.5964
 Frc consts  --      0.7748                 0.9468                 1.6536
 IR Inten    --      2.1608                 7.6360                 5.5646

                     55                     56                     57
                      A                      A                      A
 Frequencies --   1057.0657              1084.5719              1105.5144
 Red. masses --      3.4438                 3.0514                 1.4166
 Frc consts  --      2.2672                 2.1148                 1.0201
 IR Inten    --     10.2371                20.9244                12.0779

                     58                     59                     60
                      A                      A                      A
 Frequencies --   1119.2039              1137.0993              1143.9119
 Red. masses --      2.2014                 1.3736                 2.1912
 Frc consts  --      1.6247                 1.0464                 1.6893
 IR Inten    --     16.1253                 7.8463                27.8597

                     61                     62                     63
                      A                      A                      A
 Frequencies --   1152.0108              1158.1237              1169.7015
 Red. masses --      1.9029                 2.1071                 1.9040
 Frc consts  --      1.4879                 1.6651                 1.5348
 IR Inten    --      4.3715                 8.2234                94.3340

                     64                     65                     66
                      A                      A                      A
 Frequencies --   1192.5433              1201.0872              1213.5085
 Red. masses --      2.0456                 1.2752                 1.9491
 Frc consts  --      1.7141                 1.0839                 1.6911
 IR Inten    --     90.7937                19.0075                 7.2085

                     67                     68                     69
                      A                      A                      A
 Frequencies --   1218.1706              1240.9023              1255.9922
 Red. masses --      1.3865                 2.2675                 4.2998
 Frc consts  --      1.2123                 2.0572                 3.9965
 IR Inten    --      2.1885                 7.5260               224.6850

                     70                     71                     72
                      A                      A                      A
 Frequencies --   1271.7365              1282.1374              1320.9311
 Red. masses --      1.6194                 1.7008                 1.8344
 Frc consts  --      1.5431                 1.6473                 1.8859
 IR Inten    --     22.9398                 3.5143                18.7410

                     73                     74                     75
                      A                      A                      A
 Frequencies --   1332.0039              1335.4971              1346.1587
 Red. masses --      1.6258                 1.3240                 2.0937
 Frc consts  --      1.6995                 1.3914                 2.2354
 IR Inten    --      1.4642                11.1688                12.0804

                     76                     77                     78
                      A                      A                      A
 Frequencies --   1376.2750              1381.2815              1402.1023
 Red. masses --      1.6245                 1.3357                 3.7278
 Frc consts  --      1.8130                 1.5015                 4.3178
 IR Inten    --     14.7200                 4.4459                 5.1750

                     79                     80                     81
                      A                      A                      A
 Frequencies --   1403.8591              1413.0221              1423.4220
 Red. masses --      1.6964                 1.2536                 2.0956
 Frc consts  --      1.9698                 1.4748                 2.5016
 IR Inten    --      5.2776                 2.1041                19.3599

                     82                     83                     84
                      A                      A                      A
 Frequencies --   1428.3320              1432.0758              1436.6927
 Red. masses --      1.3389                 1.5328                 1.2943
 Frc consts  --      1.6093                 1.8522                 1.5740
 IR Inten    --     15.0019                 1.4329                 5.9480

                     85                     86                     87
                      A                      A                      A
 Frequencies --   1442.4446              1462.5493              1500.1565
 Red. masses --      1.2474                 2.5861                 1.2376
 Frc consts  --      1.5292                 3.2592                 1.6410
 IR Inten    --     17.7587                 4.6689                28.4775

                     88                     89                     90
                      A                      A                      A
 Frequencies --   1513.5321              1513.5691              1519.9071
 Red. masses --      1.0584                 1.1494                 1.0504
 Frc consts  --      1.4285                 1.5515                 1.4297
 IR Inten    --      2.9542                17.5435                 1.7609

                     91                     92                     93
                      A                      A                      A
 Frequencies --   1525.4334              1526.1376              1530.5905
 Red. masses --      1.0548                 1.0594                 1.1436
 Frc consts  --      1.4462                 1.4537                 1.5785
 IR Inten    --      7.7748                 3.2155                18.4216

                     94                     95                     96
                      A                      A                      A
 Frequencies --   1538.7729              1540.6394              1546.7645
 Red. masses --      1.0954                 1.0599                 2.6080
 Frc consts  --      1.5281                 1.4822                 3.6762
 IR Inten    --     12.3037                 4.2981                38.2870

                     97                     98                     99
                      A                      A                      A
 Frequencies --   1555.8307              1561.0484              1634.2515
 Red. masses --      3.8755                 2.4217                 6.5580
 Frc consts  --      5.5272                 3.4770                10.3194
 IR Inten    --     20.4961                85.9475                 6.0710

                    100                    101                    102
                      A                      A                      A
 Frequencies --   1669.7951              2951.2745              3039.9374
 Red. masses --      5.8279                 1.0726                 1.0381
 Frc consts  --      9.5740                 5.5042                 5.6519
 IR Inten    --     28.1894                73.1855                20.5463

                    103                    104                    105
                      A                      A                      A
 Frequencies --   3050.7951              3054.1322              3057.8568
 Red. masses --      1.0865                 1.0350                 1.0810
 Frc consts  --      5.9583                 5.6882                 5.9554
 IR Inten    --      5.9409                15.1929                14.6682

                    106                    107                    108
                      A                      A                      A
 Frequencies --   3059.2576              3067.3194              3077.0848
 Red. masses --      1.0355                 1.0629                 1.0869
 Frc consts  --      5.7102                 5.8917                 6.0633
 IR Inten    --      9.3106                52.3414                28.6653

                    109                    110                    111
                      A                      A                      A
 Frequencies --   3102.7003              3115.0950              3121.9453
 Red. masses --      1.1020                 1.1050                 1.1018
 Frc consts  --      6.2504                 6.3179                 6.3271
 IR Inten    --     14.1742                41.9019                 1.3814

                    112                    113                    114
                      A                      A                      A
 Frequencies --   3123.1933              3128.5504              3134.1459
 Red. masses --      1.1017                 1.1017                 1.1036
 Frc consts  --      6.3314                 6.3535                 6.3868
 IR Inten    --     30.5161                66.1578                18.8745

                    115                    116                    117
                      A                      A                      A
 Frequencies --   3138.4953              3175.0385              3202.1614
 Red. masses --      1.1025                 1.0888                 1.0892
 Frc consts  --      6.3983                 6.4672                 6.5801
 IR Inten    --     45.6715                17.9479                 1.1982

                    118                    119                    120
                      A                      A                      A
 Frequencies --   3216.6279              3220.7640              3256.1301
 Red. masses --      1.0927                 1.0939                 1.0908
 Frc consts  --      6.6610                 6.6855                 6.8141
 IR Inten    --     13.6855                 7.2145                 8.1576

                    121                    122                    123
                      A                      A                      A
 Frequencies --   3278.8349              3283.8837              3489.7860
 Red. masses --      1.0958                 1.1050                 1.0739
 Frc consts  --      6.9413                 7.0207                 7.7056
 IR Inten    --      5.8809                 2.0870                 0.3643

 - Thermochemistry -
 -------------------
 Temperature   298.150 Kelvin.  Pressure   1.00000 Atm.
 Atom     1 has atomic number  6 and mass  12.00000

 Molecular mass:   273.18411 amu.
 Principal axes and moments of inertia in atomic units:
                           1         2         3
     Eigenvalues --  2915.59652********************
           X            0.99980  -0.01912   0.00530
           Y            0.01914   0.99981  -0.00404
           Z           -0.00523   0.00414   0.99998
 This molecule is an asymmetric top.
 Rotational symmetry number  1.
 Warning -- assumption of classical behavior for rotation
           may cause significant error
 Rotational temperatures (Kelvin)      0.02971     0.00733     0.00621
 Rotational constants (GHZ):           0.61900     0.15277     0.12935
 Zero-point vibrational energy     980221.5 (Joules/Mol)
                                  234.27857 (Kcal/Mol)
 Warning -- explicit consideration of  29 degrees of freedom as
           vibrations may cause significant error
 Vibrational temperatures:     21.93    29.63    31.34    50.92    72.76
          (Kelvin)             88.27   134.62   137.78   148.81   166.65
                              286.96   313.47   343.62   361.63   371.83
                              408.56   443.44   490.47   503.00   513.23
                              528.60   549.72   622.36   647.52   671.69
                              687.86   727.37   796.12   874.14   923.84
                              945.62   974.80  1021.64  1049.07  1064.66
                             1078.14  1099.90  1157.44  1188.34  1210.80
                             1224.30  1244.20  1258.12  1282.88  1321.45
                             1331.43  1347.44  1355.35  1366.92  1368.10
                             1395.21  1428.14  1449.85  1495.88  1520.88
                             1560.46  1590.59  1610.28  1636.03  1645.83
                             1657.49  1666.28  1682.94  1715.80  1728.10
                             1745.97  1752.68  1785.38  1807.09  1829.75
                             1844.71  1900.53  1916.46  1921.48  1936.82
                             1980.15  1987.36  2017.31  2019.84  2033.02
                             2047.99  2055.05  2060.44  2067.08  2075.36
                             2104.28  2158.39  2177.64  2177.69  2186.81
                             2194.76  2195.77  2202.18  2213.95  2216.64
                             2225.45  2238.49  2246.00  2351.32  2402.46
                             4246.23  4373.79  4389.41  4394.22  4399.57
                             4401.59  4413.19  4427.24  4464.09  4481.93
                             4491.78  4493.58  4501.29  4509.34  4515.59
                             4568.17  4607.20  4628.01  4633.96  4684.84
                             4717.51  4724.78  5021.02

 Zero-point correction=                           0.373347 (Hartree/Particle)
 Thermal correction to Energy=                    0.393340
 Thermal correction to Enthalpy=                  0.394284
 Thermal correction to Gibbs Free Energy=         0.320964
 Sum of electronic and zero-point Energies=           -862.720626
 Sum of electronic and thermal Energies=              -862.700632
 Sum of electronic and thermal Enthalpies=            -862.699688
 Sum of electronic and thermal Free Energies=         -862.773008

                     E (Thermal)             CV                S
                      KCal/Mol        Cal/Mol-Kelvin    Cal/Mol-Kelvin
 Total                  246.825             75.568            154.315
 Electronic               0.000              0.000              0.000
 Translational            0.889              2.981             42.714
 Rotational               0.889              2.981             34.529
 Vibrational            245.047             69.606             77.073
 Vibration     1          0.593              1.986              7.174
 Vibration     2          0.593              1.986              6.576
 Vibration     3          0.593              1.985              6.465
 Vibration     4          0.594              1.982              5.502
 Vibration     5          0.595              1.977              4.795
 Vibration     6          0.597              1.973              4.413
 Vibration     7          0.603              1.954              3.584
 Vibration     8          0.603              1.952              3.539
 Vibration     9          0.605              1.946              3.389
 Vibration    10          0.608              1.936              3.169
 Vibration    11          0.638              1.841              2.138
 Vibration    12          0.646              1.814              1.977
 Vibration    13          0.657              1.781              1.812
 Vibration    14          0.663              1.761              1.721
 Vibration    15          0.667              1.748              1.672
 Vibration    16          0.682              1.703              1.510
 Vibration    17          0.698              1.658              1.372
 Vibration    18          0.720              1.594              1.208
 Vibration    19          0.727              1.576              1.168
 Vibration    20          0.732              1.561              1.136
 Vibration    21          0.740              1.539              1.091
 Vibration    22          0.752              1.508              1.031
 Vibration    23          0.793              1.399              0.850
 Vibration    24          0.809              1.361              0.796
 Vibration    25          0.824              1.324              0.746
 Vibration    26          0.835              1.299              0.715
 Vibration    27          0.861              1.238              0.644
 Vibration    28          0.909              1.132              0.537
 Vibration    29          0.966              1.016              0.437

 Optimization completed.
    -- Stationary point found.
 Normal termination of Gaussian 16 at Sun Dec 13 13:18:54 2020.

 ----------------------------------------------------------------------
 # B3LYP/6-311++G(d,p) empiricaldispersion=gd3bj scf=xqc pop=npa geom=c
 heck
 ----------------------------------------------------------------------

 ---------------------------------------
 CID_43791921_JID_10026_Energie_neutraal
 ---------------------------------------
 Structure from the checkpoint file:  "JID_10026.chk"
 Charge =  0 Multiplicity = 1

 SCF Done:  E(RB3LYP) =  -863.329075602     A.U. after   14 cycles
 Normal termination of Gaussian 16 at Sun Dec 13 13:29:58 2020.

 ----------------------------------------------------------------------
 # B3LYP/6-311++G(d,p) empiricaldispersion=gd3bj scf=xqc pop=npa geom=c
 heck
 ----------------------------------------------------------------------

 -------------------------------------
 CID_43791921_JID_10026_Energie_kation
 -------------------------------------
 Structure from the checkpoint file:  "JID_10026.chk"
 Charge =  1 Multiplicity = 2

 SCF Done:  E(UB3LYP) =  -863.049038087     A.U. after   24 cycles
 Normal termination of Gaussian 16 at Sun Dec 13 13:57:11 2020.
 Gaussian 16:  ES64L-G16RevA.03 25-Dec-2016

 ----------------------------------------------------------------------
 # B3LYP/6-311++G(d,p) empiricaldispersion=gd3bj scf=xqc pop=npa geom=c
 heck
 ----------------------------------------------------------------------

 ------------------------------------
 CID_43791921_JID_10026_Energie_anion
 ------------------------------------
 Structure from the checkpoint file:  "JID_10026.chk"
 Charge = -1 Multiplicity = 2

                         Standard orientation:
 ---------------------------------------------------------------------
 Center     Atomic      Atomic             Coordinates (Angstroms)
 Number     Number       Type             X           Y           Z
 ---------------------------------------------------------------------
      1          6           0        5.608845    0.408047    0.835926
      2          6           0        5.173564   -0.654929   -0.170272
      3          6           0        4.717963   -1.944385    0.508855
      4          8           0        4.184292   -0.148626   -1.100044
      5          6           0        2.966216    0.249555   -0.591848
      6          6           0        1.906282   -0.661865   -0.504539
      7          6           0        0.659069   -0.243510   -0.051442
      8          6           0        0.445291    1.092211    0.318851
      9          6           0        1.503116    1.997167    0.209946
     10          6           0        2.757935    1.584962   -0.241489
     11          6           0       -0.917829    1.532578    0.800624
     12          7           0       -1.933061    1.237855   -0.208920
     13          6           0       -3.324211    1.417787    0.190207
     14          6           0       -3.856557    2.843840    0.000172
     15          6           0       -4.189528    0.395619   -0.574797
     16          7           0       -3.784971   -0.968770   -0.294977
     17          6           0       -4.149845   -1.720025    0.809883
     18          6           0       -3.342722   -2.829453    0.785941
     19          7           0       -2.481577   -2.779893   -0.292274
     20          6           0       -2.768605   -1.650132   -0.905930
     21          1           0        4.790791    0.667962    1.515583
     22          1           0        5.934503    1.317363    0.320988
     23          1           0        6.444436    0.033542    1.437624
     24          1           0        6.015123   -0.881698   -0.832930
     25          1           0        3.874206   -1.761774    1.182086
     26          1           0        4.413280   -2.686450   -0.235550
     27          1           0        5.539040   -2.365024    1.100050
     28          1           0        2.069688   -1.691248   -0.805381
     29          1           0       -0.160867   -0.953687    0.008319
     30          1           0        1.346046    3.039805    0.477577
     31          1           0        3.575870    2.290669   -0.341310
     32          1           0       -1.193624    0.966734    1.699933
     33          1           0       -0.878107    2.596494    1.097764
     34          1           0       -1.731362    1.754227   -1.063395
     35          1           0       -3.383931    1.152780    1.253130
     36          1           0       -3.840692    3.125166   -1.060876
     37          1           0       -4.888115    2.945162    0.357558
     38          1           0       -3.237518    3.561972    0.547801
     39          1           0       -5.246128    0.510382   -0.311161
     40          1           0       -4.098696    0.567327   -1.653231
     41          1           0       -4.942404   -1.402728    1.471573
     42          1           0       -3.339247   -3.667499    1.469802
     43          1           0       -2.273271   -1.259635   -1.782926
 ---------------------------------------------------------------------

 SCF Done:  E(UB3LYP) =  -863.320159379     A.U. after   33 cycles
 SCF Done:  E(UB3LYP) =  -863.320159379     a.u. after    1 cycles

 The electronic state is 2-A.
 Alpha  occ. eigenvalues --  -19.05059 -14.28024 -14.21288 -14.20435 -10.15150
 Alpha  occ. eigenvalues --  -10.14216 -10.13108 -10.12811 -10.12119 -10.11319
 Alpha  occ. eigenvalues --  -10.10893 -10.09637 -10.09359 -10.09163 -10.08889
 Alpha  occ. eigenvalues --  -10.08796 -10.08618 -10.08507 -10.08339 -10.07269
 Alpha  occ. eigenvalues --   -0.96652  -0.93001  -0.83335  -0.79656  -0.77067
 Alpha  occ. eigenvalues --   -0.71231  -0.69324  -0.66562  -0.66115  -0.65138
 Alpha  occ. eigenvalues --   -0.61677  -0.61168  -0.58388  -0.53192  -0.53057
 Alpha  occ. eigenvalues --   -0.52096  -0.50948  -0.48851  -0.48608  -0.44976
 Alpha  occ. eigenvalues --   -0.42411  -0.41026  -0.40582  -0.39927  -0.39325
 Alpha  occ. eigenvalues --   -0.37300  -0.36856  -0.35684  -0.35321  -0.35269
 Alpha  occ. eigenvalues --   -0.34410  -0.33780  -0.33234  -0.32504  -0.32075
 Alpha  occ. eigenvalues --   -0.31560  -0.31388  -0.30543  -0.30337  -0.29979
 Alpha  occ. eigenvalues --   -0.28990  -0.28528  -0.27535  -0.26646  -0.26394
 Alpha  occ. eigenvalues --   -0.25703  -0.24261  -0.19374  -0.18792  -0.18459
 Alpha  occ. eigenvalues --   -0.17354  -0.15729  -0.14839  -0.13705   0.03600
 Alpha virt. eigenvalues --    0.04626   0.06170   0.06394   0.06737   0.07012
 Alpha virt. eigenvalues --    0.07216   0.07412   0.08146   0.08427   0.08961
 Alpha virt. eigenvalues --    0.09207   0.09470   0.10014   0.10302   0.10516

  Beta  occ. eigenvalues --  -19.05058 -14.28022 -14.21276 -14.20435 -10.15143
  Beta  occ. eigenvalues --  -10.14211 -10.13103 -10.12780 -10.12110 -10.11305
  Beta  occ. eigenvalues --  -10.10879 -10.09636 -10.09359 -10.09155 -10.08883
  Beta  occ. eigenvalues --  -10.08795 -10.08610 -10.08494 -10.08315 -10.07212
  Beta  occ. eigenvalues --   -0.96647  -0.92995  -0.83312  -0.79645  -0.77055
  Beta  occ. eigenvalues --   -0.71210  -0.69294  -0.66548  -0.66096  -0.65111
  Beta  occ. eigenvalues --   -0.61643  -0.61104  -0.58350  -0.53164  -0.53038
  Beta  occ. eigenvalues --   -0.52037  -0.50931  -0.48823  -0.48587  -0.44941
  Beta  occ. eigenvalues --   -0.42390  -0.40997  -0.40553  -0.39899  -0.39292
  Beta  occ. eigenvalues --   -0.37267  -0.36825  -0.35664  -0.35299  -0.35241
  Beta  occ. eigenvalues --   -0.34389  -0.33761  -0.33213  -0.32492  -0.32042
  Beta  occ. eigenvalues --   -0.31523  -0.31363  -0.30508  -0.30309  -0.29944
  Beta  occ. eigenvalues --   -0.28952  -0.28507  -0.27508  -0.26617  -0.26362
  Beta  occ. eigenvalues --   -0.25673  -0.24244  -0.19368  -0.18787  -0.18451
  Beta  occ. eigenvalues --   -0.17334  -0.15711  -0.14823  -0.13687
  Beta virt. eigenvalues --    0.05261   0.06011   0.06568   0.06781   0.06876
  Beta virt. eigenvalues --    0.07301   0.07576   0.07697   0.08311   0.08798
  Beta virt. eigenvalues --    0.09265   0.09293   0.09697   0.10193   0.10480

 Mulliken charges and spin densities:
               1          2
     1  C    0.238190  -0.823826
     2  C   -0.478491   0.580805
     3  C   -0.038831  -0.535143
     4  O   -0.094314  -0.001036
     5  C    0.048010  -0.394014
     6  C   -0.280830   0.213802
     7  C   -0.516603   0.139500
     8  C    1.080378  -0.256062
     9  C   -0.041818  -0.081956
    10  C    0.035486  -0.023626
    11  C   -0.572815  -0.424578
    12  N    0.086823  -0.008935
    13  C   -1.170041   1.521655
    14  C    1.849338  -2.557821
    15  C    0.032548  -0.870470
    16  N    0.245050   0.096547
    17  C    0.051740  -0.028176
    18  C    0.166840  -0.332357
    19  N   -0.057623   0.000638
    20  C   -0.497920  -0.036760
    21  H    0.105728   0.050310
    22  H   -0.001395   0.155727
    23  H   -0.230331   0.364041
    24  H   -0.059198   0.250284
    25  H    0.106116   0.057248
    26  H    0.121069   0.029873
    27  H   -0.103986   0.241090
    28  H    0.125911   0.051359
    29  H    0.266783  -0.093623
    30  H   -0.326642   0.508436
    31  H    0.087050   0.082933
    32  H    0.028016   0.114415
    33  H    0.143688   0.021871
    34  H    0.271614  -0.059106
    35  H    0.118357   0.051552
    36  H   -0.310746   0.451866
    37  H   -0.493988   0.654194
    38  H   -0.407300   0.561113
    39  H   -0.246528   0.462355
    40  H   -0.098474   0.265159
    41  H   -0.362880   0.505575
    42  H    0.118991   0.021986
    43  H    0.063029   0.073155
 Sum of Mulliken charges =  -1.00000   1.00000

 Dipole moment (field-independent basis, Debye):
    X=              4.0560    Y=             -2.9184    Z=             -0.3247  Tot=              5.0073
 Quadrupole moment (field-independent basis, Debye-Ang):
   XX=           -255.5872   YY=           -182.0801   ZZ=           -151.5387
   XY=             17.0644   XZ=             -2.0538   YZ=             -2.8135

 Summary of Natural Population Analysis:

                                       Natural Population
                Natural  -----------------------------------------------
    Atom  No    Charge         Core      Valence    Rydberg      Total
 -----------------------------------------------------------------------
      C    1   -0.30274      0.99964     2.29738    0.00571     3.30274
      C    2    0.06737      0.99955     1.91959    0.01349     2.93263
      C    3   -0.30318      0.99964     2.29754    0.00600     3.30318
      O    4   -0.29895      0.99986     3.28963    0.00946     4.29895
      C    5    0.14832      0.99936     1.83887    0.01345     2.85168
      C    6   -0.11804      0.99951     2.11050    0.00803     3.11804
      C    7   -0.08928      0.99952     2.08166    0.00811     3.08928
      C    8   -0.02681      0.99951     2.01783    0.00947     3.02681
      C    9   -0.09747      0.99952     2.08841    0.00954     3.09747
      C   10   -0.12013      0.99951     2.11146    0.00917     3.12013
      C   11   -0.08876      0.99959     2.07824    0.01094     3.08876
      N   12   -0.34189      0.99973     2.83140    0.01076     3.84189
      C   13   -0.01323      0.99960     2.00195    0.01168     3.01323
      C   14   -0.29368      0.99964     2.28817    0.00587     3.29368
      C   15   -0.08123      0.99958     2.06907    0.01258     3.08123
      N   16   -0.20602      0.99965     2.69554    0.01083     3.70602
      C   17   -0.03884      0.99955     2.02757    0.01172     3.03884
      C   18   -0.03942      0.99959     2.02685    0.01298     3.03942
      N   19   -0.26272      0.99973     2.75275    0.01024     3.76272
      C   20    0.11285      0.99963     1.87015    0.01736     2.88715
      H   21    0.10320      0.00000     0.39580    0.00100     0.39680
      H   22    0.10263      0.00000     0.39636    0.00101     0.39737
      H   23    0.10366      0.00000     0.39531    0.00103     0.39634
      H   24    0.08859      0.00000     0.41013    0.00127     0.41141
      H   25    0.10361      0.00000     0.39547    0.00091     0.39639
      H   26    0.10231      0.00000     0.39683    0.00085     0.39769
      H   27    0.10310      0.00000     0.39609    0.00081     0.39690
      H   28    0.10503      0.00000     0.39359    0.00138     0.39497
      H   29    0.11276      0.00000     0.38530    0.00194     0.38724
      H   30    0.10192      0.00000     0.39700    0.00108     0.39808
      H   31    0.10457      0.00000     0.39402    0.00141     0.39543
      H   32    0.09708      0.00000     0.40139    0.00153     0.40292
      H   33    0.08509      0.00000     0.41341    0.00149     0.41491
      H   34    0.17374      0.00000     0.32387    0.00239     0.32626
      H   35    0.09323      0.00000     0.40437    0.00240     0.40677
      H   36    0.09825      0.00000     0.40003    0.00173     0.40175
      H   37    0.10602      0.00000     0.39140    0.00258     0.39398
      H   38    0.10434      0.00000     0.39414    0.00152     0.39566
      H   39    0.10667      0.00000     0.39156    0.00177     0.39333
      H   40    0.10071      0.00000     0.39804    0.00126     0.39929
      H   41    0.10523      0.00000     0.39374    0.00104     0.39477
      H   42    0.09527      0.00000     0.40383    0.00089     0.40473
      H   43    0.09684      0.00000     0.40167    0.00149     0.40316
 =======================================================================
   * Total *   -0.00000     19.99191    53.76792    0.24017    74.00000

 Normal termination of Gaussian 16 at Sun Dec 13 14:32:23 2020.
