 Gaussian 16, Revision A.03,

 ----------------------------------------------------------------------
 # opt=(cartesian,calcfc) freq B3LYP/6-31G(d) empiricaldispersion=gd3bj
  scf=xqc
 ----------------------------------------------------------------------

 -------------------------------
 CID_149945450_JID_3157_neutraal
 -------------------------------
 Symbolic Z-matrix:
 Charge =  0 Multiplicity = 1

 SCF Done:  E(RB3LYP) =  -618.834408576     A.U. after   14 cycles
 SCF Done:  E(RB3LYP) =  -618.834553633     A.U. after   11 cycles
 SCF Done:  E(RB3LYP) =  -618.834600406     A.U. after   11 cycles
 SCF Done:  E(RB3LYP) =  -618.834615973     A.U. after   10 cycles
 SCF Done:  E(RB3LYP) =  -618.834366425     A.U. after   11 cycles
 SCF Done:  E(RB3LYP) =  -618.834551874     A.U. after   11 cycles
 SCF Done:  E(RB3LYP) =  -618.834627405     A.U. after    8 cycles
 SCF Done:  E(RB3LYP) =  -618.834631058     A.U. after   10 cycles
 SCF Done:  E(RB3LYP) =  -618.834634290     A.U. after   10 cycles
 SCF Done:  E(RB3LYP) =  -618.834596963     A.U. after   11 cycles
 SCF Done:  E(RB3LYP) =  -618.834666514     A.U. after    9 cycles
 SCF Done:  E(RB3LYP) =  -618.834666679     A.U. after    8 cycles
 SCF Done:  E(RB3LYP) =  -618.834666724     A.U. after    8 cycles
 SCF Done:  E(RB3LYP) =  -618.834666741     A.U. after    7 cycles
 SCF Done:  E(RB3LYP) =  -618.834666750     A.U. after    7 cycles
 Optimization completed.
    -- Stationary point found.
 Normal termination of Gaussian 16 at Mon Jan  4 10:07:51 2021.

 --------------------------------------------------------------------
 #N Geom=AllCheck Guess=TCheck SCRF=Check GenChk RB3LYP/6-31G(d) Freq
 --------------------------------------------------------------------

 Structure from the checkpoint file:  "JID_3157.chk"
 -------------------------------
 CID_149945450_JID_3157_neutraal
 -------------------------------
 Charge =  0 Multiplicity = 1

 SCF Done:  E(RB3LYP) =  -618.834666750     A.U. after    1 cycles

  Exact polarizability: 123.027   1.598 112.228   1.123  -2.721 105.621
 Approx polarizability: 153.868   3.602 154.993   2.292  -4.920 160.468

                      1                      2                      3
                      A                      A                      A
 Frequencies --     10.2091                54.3629                66.2588
 Red. masses --      4.7322                 2.3563                 3.8033
 Frc consts  --      0.0003                 0.0041                 0.0098
 IR Inten    --      0.9029                 0.1883                 0.7090

                      4                      5                      6
                      A                      A                      A
 Frequencies --     98.1592               120.2389               126.8189
 Red. masses --      3.6025                 2.0820                 2.7276
 Frc consts  --      0.0205                 0.0177                 0.0258
 IR Inten    --      0.4663                 0.5396                 0.3263

                      7                      8                      9
                      A                      A                      A
 Frequencies --    153.7314               175.4325               200.4415
 Red. masses --      2.3219                 2.0604                 3.9536
 Frc consts  --      0.0323                 0.0374                 0.0936
 IR Inten    --      0.4469                 0.2135                 0.7138

                     10                     11                     12
                      A                      A                      A
 Frequencies --    205.2214               224.2339               247.1957
 Red. masses --      1.5017                 1.2102                 1.6228
 Frc consts  --      0.0373                 0.0359                 0.0584
 IR Inten    --      0.0910                 1.6480                 0.3841

                     13                     14                     15
                      A                      A                      A
 Frequencies --    256.3602               293.4076               321.2642
 Red. masses --      2.0115                 3.4905                 2.3957
 Frc consts  --      0.0779                 0.1770                 0.1457
 IR Inten    --      2.0069                 0.0771                 2.2014

                     16                     17                     18
                      A                      A                      A
 Frequencies --    331.1162               363.5924               382.6826
 Red. masses --      1.9547                 2.6114                 3.2617
 Frc consts  --      0.1263                 0.2034                 0.2814
 IR Inten    --      1.7089                 0.9137                 3.4951

                     19                     20                     21
                      A                      A                      A
 Frequencies --    408.3621               441.6196               503.6945
 Red. masses --      2.4814                 2.5245                 3.3035
 Frc consts  --      0.2438                 0.2901                 0.4938
 IR Inten    --      2.9219                 2.0945                 4.1820

                     22                     23                     24
                      A                      A                      A
 Frequencies --    519.6979               612.7472               640.8829
 Red. masses --      3.1846                 2.0156                 1.6870
 Frc consts  --      0.5068                 0.4459                 0.4082
 IR Inten    --      2.2661                32.7931                34.1597

                     25                     26                     27
                      A                      A                      A
 Frequencies --    697.3396               751.3211               763.0193
 Red. masses --      2.8706                 1.6320                 2.2363
 Frc consts  --      0.8225                 0.5428                 0.7671
 IR Inten    --     39.8226                24.8571                33.5290

                     28                     29                     30
                      A                      A                      A
 Frequencies --    792.9751               805.3349               857.7305
 Red. masses --      1.4860                 1.3619                 1.6549
 Frc consts  --      0.5505                 0.5204                 0.7173
 IR Inten    --     11.3270                 5.7088                 6.8947

                     31                     32                     33
                      A                      A                      A
 Frequencies --    882.0863               900.8985               935.2596
 Red. masses --      2.4087                 2.0784                 1.4342
 Frc consts  --      1.1042                 0.9939                 0.7391
 IR Inten    --      4.1214                 1.8874                 1.7817

                     34                     35                     36
                      A                      A                      A
 Frequencies --    965.1324               975.0132               988.0204
 Red. masses --      1.8674                 2.2399                 1.8253
 Frc consts  --      1.0249                 1.2546                 1.0498
 IR Inten    --     10.3309                29.8020                 5.2109

                     37                     38                     39
                      A                      A                      A
 Frequencies --   1055.6469              1065.1435              1088.1946
 Red. masses --      2.2488                 2.1063                 2.0277
 Frc consts  --      1.4765                 1.4080                 1.4147
 IR Inten    --     23.1281                 2.2596                 1.5981

                     40                     41                     42
                      A                      A                      A
 Frequencies --   1097.0260              1108.7956              1140.5534
 Red. masses --      2.2883                 1.7919                 2.5491
 Frc consts  --      1.6225                 1.2980                 1.9537
 IR Inten    --     71.2216                13.4843               119.4688

                     43                     44                     45
                      A                      A                      A
 Frequencies --   1157.0627              1172.2056              1179.3958
 Red. masses --      2.2670                 2.1234                 2.8328
 Frc consts  --      1.7882                 1.7190                 2.3216
 IR Inten    --     38.4074                24.7058               114.9481

                     46                     47                     48
                      A                      A                      A
 Frequencies --   1216.4337              1217.5005              1300.6561
 Red. masses --      2.2029                 2.5744                 1.2595
 Frc consts  --      1.9206                 2.2483                 1.2553
 IR Inten    --     48.0606                24.8912                 4.1961

                     49                     50                     51
                      A                      A                      A
 Frequencies --   1301.0840              1319.9681              1332.8880
 Red. masses --      1.2202                 1.1870                 1.2180
 Frc consts  --      1.2170                 1.2185                 1.2749
 IR Inten    --      0.4448                 1.6936                 4.6794

                     52                     53                     54
                      A                      A                      A
 Frequencies --   1354.0637              1368.4694              1389.2631
 Red. masses --      1.1339                 1.8102                 1.4185
 Frc consts  --      1.2249                 1.9973                 1.6130
 IR Inten    --     11.0418                 9.1350                 0.4918

                     55                     56                     57
                      A                      A                      A
 Frequencies --   1392.4908              1406.0485              1412.8827
 Red. masses --      1.5585                 1.3820                 1.4746
 Frc consts  --      1.7805                 1.6097                 1.7344
 IR Inten    --     20.5754                 1.8120                 0.3634

                     58                     59                     60
                      A                      A                      A
 Frequencies --   1431.3597              1441.3313              1447.5499
 Red. masses --      1.2493                 1.2369                 1.2486
 Frc consts  --      1.5080                 1.5139                 1.5415
 IR Inten    --      8.6721                 3.4262                 8.8047

                     61                     62                     63
                      A                      A                      A
 Frequencies --   1451.6344              1505.0727              1510.2676
 Red. masses --      1.2256                 1.0769                 1.0803
 Frc consts  --      1.5216                 1.4373                 1.4518
 IR Inten    --      7.3504                 0.9959                 8.0331

                     64                     65                     66
                      A                      A                      A
 Frequencies --   1515.9508              1525.5021              1529.8226
 Red. masses --      1.0704                 1.0442                 1.0525
 Frc consts  --      1.4494                 1.4317                 1.4513
 IR Inten    --      0.7351                 4.0605                 4.6565

                     67                     68                     69
                      A                      A                      A
 Frequencies --   1534.6950              1535.5200              1536.7051
 Red. masses --      1.0747                 1.0444                 1.0494
 Frc consts  --      1.4914                 1.4509                 1.4601
 IR Inten    --      1.3723                 0.8074                 6.1015

                     70                     71                     72
                      A                      A                      A
 Frequencies --   1540.6269              1543.0110              1546.8820
 Red. masses --      1.0673                 1.0513                 1.0692
 Frc consts  --      1.4926                 1.4748                 1.5074
 IR Inten    --      7.9898                 4.6325                 1.8626

                     73                     74                     75
                      A                      A                      A
 Frequencies --   1833.4484              3035.5578              3041.3166
 Red. masses --      9.9765                 1.0648                 1.0664
 Frc consts  --     19.7590                 5.7807                 5.8118
 IR Inten    --    200.4953                21.9018                22.1620

                     76                     77                     78
                      A                      A                      A
 Frequencies --   3048.8270              3051.1314              3052.0496
 Red. masses --      1.0501                 1.0476                 1.0537
 Frc consts  --      5.7512                 5.7460                 5.7831
 IR Inten    --     20.0105                46.9282                47.2618

                     79                     80                     81
                      A                      A                      A
 Frequencies --   3053.8216              3064.3108              3070.0894
 Red. masses --      1.0576                 1.0394                 1.0953
 Frc consts  --      5.8110                 5.7504                 6.0828
 IR Inten    --      5.2819                36.8206                24.9737

                     82                     83                     84
                      A                      A                      A
 Frequencies --   3079.7387              3088.2853              3104.6307
 Red. masses --      1.0698                 1.0951                 1.1011
 Frc consts  --      5.9782                 6.1538                 6.2531
 IR Inten    --     16.8615                20.6350                36.2312

                     85                     86                     87
                      A                      A                      A
 Frequencies --   3108.1776              3111.2974              3113.3007
 Red. masses --      1.1005                 1.1007                 1.0983
 Frc consts  --      6.2640                 6.2779                 6.2720
 IR Inten    --     17.9636                35.3415                63.9463

                     88                     89                     90
                      A                      A                      A
 Frequencies --   3118.6759              3132.4464              3142.2160
 Red. masses --      1.1004                 1.0963                 1.0978
 Frc consts  --      6.3057                 6.3381                 6.3861
 IR Inten    --      3.7559                43.1951                19.7919

                     91                     92                     93
                      A                      A                      A
 Frequencies --   3152.0792              3158.4353              3667.0886
 Red. masses --      1.1015                 1.0980                 1.0639
 Frc consts  --      6.4479                 6.4537                 8.4294
 IR Inten    --     28.5778                22.3263                48.6516

 - Thermochemistry -
 -------------------
 Temperature   298.150 Kelvin.  Pressure   1.00000 Atm.
 Atom     1 has atomic number  6 and mass  12.00000

 Molecular mass:   188.14124 amu.
 Principal axes and moments of inertia in atomic units:
                           1         2         3
     Eigenvalues --  1981.989572948.442033382.90033
           X            0.99984  -0.01532  -0.00973
           Y            0.01469   0.99798  -0.06186
           Z            0.01065   0.06171   0.99804
 This molecule is an asymmetric top.
 Rotational symmetry number  1.
 Warning -- assumption of classical behavior for rotation
           may cause significant error
 Rotational temperatures (Kelvin)      0.04370     0.02938     0.02560
 Rotational constants (GHZ):           0.91057     0.61210     0.53349
 Zero-point vibrational energy     777396.2 (Joules/Mol)
                                  185.80214 (Kcal/Mol)
 Warning -- explicit consideration of  23 degrees of freedom as
           vibrations may cause significant error
 Vibrational temperatures:     14.69    78.22    95.33   141.23   173.00
          (Kelvin)            182.46   221.19   252.41   288.39   295.27
                              322.62   355.66   368.85   422.15   462.23
                              476.40   523.13   550.59   587.54   635.39
                              724.70   747.73   881.61   922.09  1003.32
                             1080.98  1097.81  1140.91  1158.70  1234.08
                             1269.13  1296.19  1345.63  1388.61  1402.83
                             1421.54  1518.84  1532.50  1565.67  1578.38
                             1595.31  1641.00  1664.76  1686.54  1696.89
                             1750.18  1751.71  1871.35  1871.97  1899.14
                             1917.73  1948.20  1968.92  1998.84  2003.48
                             2022.99  2032.82  2059.41  2073.75  2082.70
                             2088.58  2165.46  2172.94  2181.12  2194.86
                             2201.07  2208.08  2209.27  2210.98  2216.62
                             2220.05  2225.62  2637.92  4367.49  4375.78
                             4386.58  4389.90  4391.22  4393.77  4408.86
                             4417.17  4431.06  4443.35  4466.87  4471.97
                             4476.46  4479.35  4487.08  4506.89  4520.95
                             4535.14  4544.28  5276.12

 Zero-point correction=                           0.296095 (Hartree/Particle)
 Thermal correction to Energy=                    0.311815
 Thermal correction to Enthalpy=                  0.312759
 Thermal correction to Gibbs Free Energy=         0.252380
 Sum of electronic and zero-point Energies=           -618.538572
 Sum of electronic and thermal Energies=              -618.522852
 Sum of electronic and thermal Enthalpies=            -618.521908
 Sum of electronic and thermal Free Energies=         -618.582287

                     E (Thermal)             CV                S
                      KCal/Mol        Cal/Mol-Kelvin    Cal/Mol-Kelvin
 Total                  195.667             57.679            127.078
 Electronic               0.000              0.000              0.000
 Translational            0.889              2.981             41.602
 Rotational               0.889              2.981             31.359
 Vibrational            193.889             51.718             54.118
 Vibration     1          0.593              1.987              7.970
 Vibration     2          0.596              1.976              4.652
 Vibration     3          0.598              1.970              4.262
 Vibration     4          0.604              1.950              3.491
 Vibration     5          0.609              1.932              3.097
 Vibration     6          0.611              1.926              2.994
 Vibration     7          0.619              1.899              2.626
 Vibration     8          0.627              1.873              2.376
 Vibration     9          0.638              1.839              2.129
 Vibration    10          0.640              1.832              2.086
 Vibration    11          0.649              1.804              1.925
 Vibration    12          0.661              1.767              1.750
 Vibration    13          0.666              1.752              1.686
 Vibration    14          0.688              1.686              1.454
 Vibration    15          0.707              1.633              1.304
 Vibration    16          0.713              1.613              1.255
 Vibration    17          0.737              1.547              1.107
 Vibration    18          0.752              1.507              1.029
 Vibration    19          0.773              1.452              0.932
 Vibration    20          0.801              1.379              0.822
 Vibration    21          0.859              1.242              0.649
 Vibration    22          0.875              1.206              0.611
 Vibration    23          0.972              1.005              0.428

 Normal termination of Gaussian 16 at Mon Jan  4 10:17:09 2021.

 ----------------------------------------------------------------------
 # B3LYP/6-311++G(d,p) empiricaldispersion=gd3bj scf=xqc pop=npa geom=c
 heck
 ----------------------------------------------------------------------

 ---------------------------------------
 CID_149945450_JID_3157_Energie_neutraal
 ---------------------------------------
 Structure from the checkpoint file:  "JID_3157.chk"
 Charge =  0 Multiplicity = 1

 SCF Done:  E(RB3LYP) =  -619.022139534     A.U. after   14 cycles
 Normal termination of Gaussian 16 at Mon Jan  4 10:20:53 2021.

 ----------------------------------------------------------------------
 # B3LYP/6-311++G(d,p) empiricaldispersion=gd3bj scf=xqc pop=npa geom=c
 heck
 ----------------------------------------------------------------------

 -------------------------------------
 CID_149945450_JID_3157_Energie_kation
 -------------------------------------
 Structure from the checkpoint file:  "JID_3157.chk"
 Charge =  1 Multiplicity = 2

 SCF Done:  E(UB3LYP) =  -618.688214655     A.U. after   24 cycles
 Normal termination of Gaussian 16 at Mon Jan  4 10:29:20 2021.
 Gaussian 16:  ES64L-G16RevA.03 25-Dec-2016

 ----------------------------------------------------------------------
 # B3LYP/6-311++G(d,p) empiricaldispersion=gd3bj scf=xqc pop=npa geom=c
 heck
 ----------------------------------------------------------------------

 ------------------------------------
 CID_149945450_JID_3157_Energie_anion
 ------------------------------------
 Structure from the checkpoint file:  "JID_3157.chk"
 Charge = -1 Multiplicity = 2

                         Standard orientation:
 ---------------------------------------------------------------------
 Center     Atomic      Atomic             Coordinates (Angstroms)
 Number     Number       Type             X           Y           Z
 ---------------------------------------------------------------------
      1          6           0       -2.956990   -1.785357   -0.040661
      2          6           0       -2.932227   -0.254877   -0.109055
      3          6           0       -1.793049    0.428308    0.664480
      4          6           0       -0.357705    0.235358    0.114992
      5          6           0       -0.238482    0.624690   -1.373159
      6          6           0       -0.802096    1.993505   -1.772808
      7          6           0        0.546725    1.047899    1.062394
      8          8           0        0.629501    0.850401    2.254033
      9          8           0        1.260641    2.026923    0.452333
     10          8           0       -0.075454   -1.160277    0.272227
     11          6           0        1.238806   -1.667682    0.505040
     12          6           0        2.184064   -1.706832   -0.711353
     13          6           0        3.193181   -0.555808   -0.791113
     14          1           0       -2.087785   -2.222556   -0.535257
     15          1           0       -3.865500   -2.174374   -0.515416
     16          1           0       -2.945563   -2.128568    1.000318
     17          1           0       -2.922141    0.065712   -1.158163
     18          1           0       -3.871406    0.132474    0.308276
     19          1           0       -1.995075    1.506260    0.705278
     20          1           0       -1.778229    0.072061    1.699268
     21          1           0        0.809902    0.566250   -1.674622
     22          1           0       -0.760728   -0.162402   -1.927150
     23          1           0       -0.313304    2.805036   -1.228278
     24          1           0       -0.637514    2.162553   -2.842584
     25          1           0       -1.879588    2.060949   -1.593627
     26          1           0        1.777033    2.455906    1.161893
     27          1           0        1.710324   -1.141726    1.345088
     28          1           0        1.040121   -2.689668    0.840745
     29          1           0        2.745618   -2.649380   -0.666349
     30          1           0        1.573667   -1.761669   -1.620103
     31          1           0        3.844553   -0.556327    0.091590
     32          1           0        3.833737   -0.656604   -1.674377
     33          1           0        2.711011    0.424475   -0.837813
 ---------------------------------------------------------------------

 SCF Done:  E(UB3LYP) =  -619.007840774     A.U. after   33 cycles
 SCF Done:  E(UB3LYP) =  -619.007840774     a.u. after    1 cycles

 The electronic state is 2-A.
 Alpha  occ. eigenvalues --  -19.07278 -19.02641 -19.02047 -10.20894 -10.14699
 Alpha  occ. eigenvalues --  -10.11767 -10.07194 -10.07132 -10.07004 -10.06927
 Alpha  occ. eigenvalues --  -10.05722 -10.05719 -10.05719  -1.01577  -0.93923
 Alpha  occ. eigenvalues --   -0.92258  -0.72346  -0.67884  -0.67079  -0.62705
 Alpha  occ. eigenvalues --   -0.58386  -0.57113  -0.53175  -0.50956  -0.49144
 Alpha  occ. eigenvalues --   -0.45635  -0.41467  -0.40083  -0.39644  -0.37408
 Alpha  occ. eigenvalues --   -0.35164  -0.34658  -0.34426  -0.32976  -0.32700
 Alpha  occ. eigenvalues --   -0.32427  -0.31386  -0.30579  -0.29133  -0.28422
 Alpha  occ. eigenvalues --   -0.27148  -0.26014  -0.25478  -0.24899  -0.24690
 Alpha  occ. eigenvalues --   -0.24011  -0.23611  -0.22595  -0.22406  -0.21284
 Alpha  occ. eigenvalues --   -0.18020  -0.16273   0.04469
 Alpha virt. eigenvalues --    0.06463   0.06689   0.07547   0.07962   0.08597
 Alpha virt. eigenvalues --    0.08788   0.09690   0.09975   0.10577   0.11374
 Alpha virt. eigenvalues --    0.11727   0.12189   0.12474   0.13073   0.13498

  Beta  occ. eigenvalues --  -19.07220 -19.02638 -19.02028 -10.20889 -10.14693
  Beta  occ. eigenvalues --  -10.11760 -10.07185 -10.07116 -10.06991 -10.06914
  Beta  occ. eigenvalues --  -10.05710 -10.05689 -10.05686  -1.01507  -0.93902
  Beta  occ. eigenvalues --   -0.92207  -0.72320  -0.67854  -0.67050  -0.62667
  Beta  occ. eigenvalues --   -0.58350  -0.57044  -0.53099  -0.50891  -0.49084
  Beta  occ. eigenvalues --   -0.45579  -0.41426  -0.40056  -0.39604  -0.37378
  Beta  occ. eigenvalues --   -0.35137  -0.34628  -0.34392  -0.32949  -0.32668
  Beta  occ. eigenvalues --   -0.32400  -0.31346  -0.30545  -0.29109  -0.28392
  Beta  occ. eigenvalues --   -0.27103  -0.25978  -0.25451  -0.24871  -0.24659
  Beta  occ. eigenvalues --   -0.23985  -0.23580  -0.22568  -0.22365  -0.21246
  Beta  occ. eigenvalues --   -0.17966  -0.16255
  Beta virt. eigenvalues --    0.06549   0.07216   0.07648   0.07995   0.08331
  Beta virt. eigenvalues --    0.09220   0.09220   0.09963   0.10340   0.10830
  Beta virt. eigenvalues --    0.11861   0.12021   0.12494   0.12572   0.13318

 Mulliken charges and spin densities:
               1          2
     1  C    0.016457  -0.583256
     2  C   -0.094169  -0.160260
     3  C    0.112454  -0.246335
     4  C    0.540572  -0.427909
     5  C   -0.764024   0.537281
     6  C    0.957510  -1.640800
     7  C   -0.296359  -0.182770
     8  O   -0.205387   0.025081
     9  O   -0.140650   0.074324
    10  O   -0.000000   0.026433
    11  C   -0.014365  -0.226853
    12  C   -0.398435   0.322027
    13  C    0.655394  -1.202450
    14  H    0.111116   0.069710
    15  H   -0.107354   0.238625
    16  H    0.065405   0.056477
    17  H    0.035839   0.081291
    18  H   -0.211933   0.375687
    19  H   -0.170713   0.359185
    20  H    0.254536  -0.054098
    21  H    0.480084  -0.289031
    22  H   -0.133785   0.302749
    23  H   -0.117288   0.299719
    24  H   -0.312803   0.454820
    25  H   -0.071001   0.208949
    26  H   -0.577612   0.879961
    27  H    0.194329  -0.022239
    28  H    0.023779   0.139290
    29  H   -0.334575   0.501083
    30  H    0.069655   0.078613
    31  H   -0.069796   0.210045
    32  H   -0.438261   0.583762
    33  H   -0.058618   0.210888
 Sum of Mulliken charges =  -1.00000   1.00000

 Dipole moment (field-independent basis, Debye):
    X=             -2.8571    Y=             -3.4734    Z=              0.6541  Tot=              4.5448
 Quadrupole moment (field-independent basis, Debye-Ang):
   XX=           -146.4819   YY=           -131.3496   ZZ=           -121.6421
   XY=             -3.8820   XZ=             -0.0246   YZ=             -2.6805

 Summary of Natural Population Analysis:

                                       Natural Population
                Natural  -----------------------------------------------
    Atom  No    Charge         Core      Valence    Rydberg      Total
 -----------------------------------------------------------------------
      C    1   -0.28481      0.99966     2.28059    0.00456     3.28481
      C    2   -0.19117      0.99963     2.18336    0.00818     3.19117
      C    3   -0.19401      0.99958     2.18336    0.01106     3.19401
      C    4    0.10628      0.99945     1.87648    0.01779     2.89372
      C    5   -0.20714      0.99959     2.19675    0.01079     3.20714
      C    6   -0.28880      0.99965     2.28393    0.00522     3.28880
      C    7    0.40359      0.99964     1.57033    0.02645     2.59641
      O    8   -0.30425      0.99987     3.29824    0.00615     4.30425
      O    9   -0.34237      0.99988     3.33419    0.00831     4.34237
      O   10   -0.30954      0.99987     3.29829    0.01137     4.30954
      C   11   -0.00908      0.99955     1.99743    0.01209     3.00908
      C   12   -0.21005      0.99964     2.20260    0.00781     3.21005
      C   13   -0.28986      0.99966     2.28468    0.00551     3.28986
      H   14    0.10567      0.00000     0.39308    0.00125     0.39433
      H   15    0.09227      0.00000     0.40679    0.00094     0.40773
      H   16    0.09465      0.00000     0.40431    0.00103     0.40535
      H   17    0.09521      0.00000     0.40356    0.00123     0.40479
      H   18    0.09606      0.00000     0.40285    0.00109     0.40394
      H   19    0.10302      0.00000     0.39584    0.00114     0.39698
      H   20    0.10910      0.00000     0.38968    0.00122     0.39090
      H   21    0.10524      0.00000     0.39261    0.00215     0.39476
      H   22    0.10170      0.00000     0.39678    0.00152     0.39830
      H   23    0.10684      0.00000     0.39160    0.00156     0.39316
      H   24    0.10027      0.00000     0.39885    0.00089     0.39973
      H   25    0.09514      0.00000     0.40367    0.00119     0.40486
      H   26    0.24718      0.00000     0.23634    0.01649     0.25282
      H   27    0.08587      0.00000     0.41265    0.00148     0.41413
      H   28    0.08976      0.00000     0.40927    0.00098     0.41024
      H   29    0.09630      0.00000     0.40249    0.00121     0.40370
      H   30    0.09972      0.00000     0.39896    0.00132     0.40028
      H   31    0.09632      0.00000     0.40235    0.00133     0.40368
      H   32    0.09908      0.00000     0.39965    0.00127     0.40092
      H   33    0.10178      0.00000     0.39604    0.00218     0.39822
 =======================================================================
   * Total *   -0.00000     12.99567    38.82759    0.17675    52.00000

 Normal termination of Gaussian 16 at Mon Jan  4 10:40:43 2021.
