 Gaussian 16, Revision A.03,

 -----------------------------------------------------------
 # opt freq B3LYP/6-31G(d) empiricaldispersion=gd3bj scf=xqc
 -----------------------------------------------------------

 -----------------------------
 CID_59688991_JID_106_neutraal
 -----------------------------
 Symbolic Z-matrix:
 Charge =  0 Multiplicity = 1

 SCF Done:  E(RB3LYP) =  -530.571420445     A.U. after   15 cycles
 SCF Done:  E(RB3LYP) =  -530.577165355     A.U. after   12 cycles
 SCF Done:  E(RB3LYP) =  -530.577641136     A.U. after   12 cycles
 SCF Done:  E(RB3LYP) =  -530.577782819     A.U. after   12 cycles
 SCF Done:  E(RB3LYP) =  -530.577911467     A.U. after   11 cycles
 SCF Done:  E(RB3LYP) =  -530.577984667     A.U. after   11 cycles
 SCF Done:  E(RB3LYP) =  -530.578007245     A.U. after   10 cycles
 SCF Done:  E(RB3LYP) =  -530.578017649     A.U. after   10 cycles
 SCF Done:  E(RB3LYP) =  -530.578019941     A.U. after    9 cycles
 SCF Done:  E(RB3LYP) =  -530.578021625     A.U. after    9 cycles
 SCF Done:  E(RB3LYP) =  -530.578095885     A.U. after   10 cycles
 SCF Done:  E(RB3LYP) =  -530.578098529     A.U. after   10 cycles
 SCF Done:  E(RB3LYP) =  -530.578098931     A.U. after    8 cycles
 SCF Done:  E(RB3LYP) =  -530.578099038     A.U. after    7 cycles
 SCF Done:  E(RB3LYP) =  -530.578099044     A.U. after    6 cycles
 SCF Done:  E(RB3LYP) =  -530.578099035     A.U. after    6 cycles
 Optimization completed.
    -- Stationary point found.
 Normal termination of Gaussian 16 at Tue Dec  8 10:21:17 2020.

 --------------------------------------------------------------------
 #N Geom=AllCheck Guess=TCheck SCRF=Check GenChk RB3LYP/6-31G(d) Freq
 --------------------------------------------------------------------

 Structure from the checkpoint file:  "JID_106.chk"
 -----------------------------
 CID_59688991_JID_106_neutraal
 -----------------------------
 Charge =  0 Multiplicity = 1

 SCF Done:  E(RB3LYP) =  -530.578099035     A.U. after    1 cycles

  Exact polarizability:  84.954   4.268  78.461  -4.826  -0.510  47.863
 Approx polarizability: 113.314  14.510 128.594  -8.463  -3.001  69.796

                      1                      2                      3
                      A                      A                      A
 Frequencies --     35.4513                71.8903               106.4311
 Red. masses --      1.0224                 4.7497                 3.7023
 Frc consts  --      0.0008                 0.0145                 0.0247
 IR Inten    --      0.0257                 1.3756                 4.8159

                      4                      5                      6
                      A                      A                      A
 Frequencies --    152.0377               158.9307               219.3764
 Red. masses --      4.1702                 5.5272                 4.0536
 Frc consts  --      0.0568                 0.0823                 0.1149
 IR Inten    --      5.9308                 1.8908                18.2000

                      7                      8                      9
                      A                      A                      A
 Frequencies --    271.2182               312.4986               348.0266
 Red. masses --      3.1686                 2.9346                 1.6137
 Frc consts  --      0.1373                 0.1688                 0.1152
 IR Inten    --      4.6066                63.3184               157.1134

                     10                     11                     12
                      A                      A                      A
 Frequencies --    398.8385               453.8972               528.3546
 Red. masses --      5.4187                 3.6080                 1.2607
 Frc consts  --      0.5079                 0.4380                 0.2074
 IR Inten    --     38.9237                 8.9420                57.9827

                     13                     14                     15
                      A                      A                      A
 Frequencies --    598.6142               642.0616               670.1932
 Red. masses --      7.1368                 3.7469                 4.4860
 Frc consts  --      1.5068                 0.9101                 1.1872
 IR Inten    --      5.6060                11.5200                 8.5305

                     16                     17                     18
                      A                      A                      A
 Frequencies --    727.9709               755.4966               805.1738
 Red. masses --      4.7289                 9.4331                 4.8447
 Frc consts  --      1.4765                 3.1723                 1.8505
 IR Inten    --     16.0635                34.5031                15.7903

                     19                     20                     21
                      A                      A                      A
 Frequencies --    929.7629               990.2900              1047.9440
 Red. masses --      2.3200                 2.2117                 1.8139
 Frc consts  --      1.1816                 1.2779                 1.1736
 IR Inten    --      7.6070                29.9273                38.3598

                     22                     23                     24
                      A                      A                      A
 Frequencies --   1087.6115              1129.8231              1133.8145
 Red. masses --      4.7282                 3.1863                 2.3175
 Frc consts  --      3.2953                 2.3964                 1.7553
 IR Inten    --     97.9464                30.3344                54.3695

                     25                     26                     27
                      A                      A                      A
 Frequencies --   1168.6579              1194.2205              1222.6055
 Red. masses --      1.3087                 3.0073                 1.2918
 Frc consts  --      1.0531                 2.5269                 1.1376
 IR Inten    --      2.1262                35.1644                10.5169

                     28                     29                     30
                      A                      A                      A
 Frequencies --   1272.2404              1315.3830              1374.9598
 Red. masses --      1.7533                 2.5034                 1.7288
 Frc consts  --      1.6721                 2.5521                 1.9256
 IR Inten    --     12.1958                50.7294                56.6935

                     31                     32                     33
                      A                      A                      A
 Frequencies --   1414.4608              1418.6155              1424.2732
 Red. masses --      1.2149                 1.5397                 1.4473
 Frc consts  --      1.4322                 1.8257                 1.7298
 IR Inten    --     36.8637                42.1319                77.4240

                     34                     35                     36
                      A                      A                      A
 Frequencies --   1442.2922              1485.9443              1517.4948
 Red. masses --      1.9628                 1.8329                 1.0596
 Frc consts  --      2.4057                 2.3845                 1.4377
 IR Inten    --     65.9490               150.5200                 9.8584

                     37                     38                     39
                      A                      A                      A
 Frequencies --   1524.9062              1538.3399              1824.4925
 Red. masses --      1.0910                 1.0876                12.0886
 Frc consts  --      1.4948                 1.5164                23.7089
 IR Inten    --      1.6156                12.7721               703.1137

                     40                     41                     42
                      A                      A                      A
 Frequencies --   1884.1079              3029.7737              3063.4501
 Red. masses --     11.0851                 1.0704                 1.0836
 Frc consts  --     23.1846                 5.7891                 5.9913
 IR Inten    --    143.2334                31.1052                18.3520

                     43                     44                     45
                      A                      A                      A
 Frequencies --   3078.2981              3139.9183              3146.6791
 Red. masses --      1.0333                 1.0968                 1.1048
 Frc consts  --      5.7689                 6.3710                 6.4449
 IR Inten    --     26.9714                17.1651                12.5146

                     46                     47                     48
                      A                      A                      A
 Frequencies --   3183.5719              3633.2500              3741.3015
 Red. masses --      1.1049                 1.0780                 1.0660
 Frc consts  --      6.5979                 8.3840                 8.7915
 IR Inten    --      1.0298                41.6487                16.9504

 - Thermochemistry -
 -------------------
 Temperature   298.150 Kelvin.  Pressure   1.00000 Atm.
 Atom     1 has atomic number  6 and mass  12.00000

 Molecular mass:   144.05349 amu.
 Principal axes and moments of inertia in atomic units:
                           1         2         3
     Eigenvalues --   860.035391661.411622394.62524
           X            0.99949  -0.03188  -0.00337
           Y            0.03192   0.99944   0.01040
           Z            0.00304  -0.01050   0.99994
 This molecule is an asymmetric top.
 Rotational symmetry number  1.
 Warning -- assumption of classical behavior for rotation
           may cause significant error
 Rotational temperatures (Kelvin)      0.10071     0.05213     0.03617
 Rotational constants (GHZ):           2.09845     1.08627     0.75366
 Zero-point vibrational energy     374520.5 (Joules/Mol)
                                   89.51256 (Kcal/Mol)
 Warning -- explicit consideration of  13 degrees of freedom as
           vibrations may cause significant error
 Vibrational temperatures:     51.01   103.43   153.13   218.75   228.67
          (Kelvin)            315.63   390.22   449.62   500.73   573.84
                              653.06   760.18   861.27   923.78   964.26
                             1047.39  1086.99  1158.47  1337.72  1424.81
                             1507.76  1564.83  1625.56  1631.31  1681.44
                             1718.22  1759.06  1830.47  1892.54  1978.26
                             2035.09  2041.07  2049.21  2075.14  2137.94
                             2183.34  2194.00  2213.33  2625.04  2710.81
                             4359.17  4407.62  4428.98  4517.64  4527.37
                             4580.45  5227.44  5382.90

 Zero-point correction=                           0.142647 (Hartree/Particle)
 Thermal correction to Energy=                    0.152670
 Thermal correction to Enthalpy=                  0.153614
 Thermal correction to Gibbs Free Energy=         0.106255
 Sum of electronic and zero-point Energies=           -530.435452
 Sum of electronic and thermal Energies=              -530.425429
 Sum of electronic and thermal Enthalpies=            -530.424485
 Sum of electronic and thermal Free Energies=         -530.471844

                     E (Thermal)             CV                S
                      KCal/Mol        Cal/Mol-Kelvin    Cal/Mol-Kelvin
 Total                   95.802             35.172             99.675
 Electronic               0.000              0.000              0.000
 Translational            0.889              2.981             40.806
 Rotational               0.889              2.981             29.616
 Vibrational             94.024             29.211             29.253
 Vibration     1          0.594              1.982              5.498
 Vibration     2          0.598              1.967              4.101
 Vibration     3          0.605              1.944              3.333
 Vibration     4          0.619              1.900              2.647
 Vibration     5          0.621              1.893              2.562
 Vibration     6          0.647              1.812              1.964
 Vibration     7          0.675              1.726              1.588
 Vibration     8          0.701              1.650              1.349
 Vibration     9          0.726              1.579              1.175
 Vibration    10          0.765              1.473              0.967
 Vibration    11          0.812              1.352              0.784
 Vibration    12          0.883              1.187              0.591
 Vibration    13          0.957              1.035              0.452

 Optimization completed.
    -- Stationary point found.
 Normal termination of Gaussian 16 at Tue Dec  8 10:23:59 2020.

 ----------------------------------------------------------------------
 # B3LYP/6-311++G(d,p) empiricaldispersion=gd3bj scf=xqc pop=npa geom=c
 heck
 ----------------------------------------------------------------------

 -------------------------------------
 CID_59688991_JID_106_Energie_neutraal
 -------------------------------------
 Structure from the checkpoint file:  "JID_106.chk"
 Charge =  0 Multiplicity = 1

 SCF Done:  E(RB3LYP) =  -530.749926470     A.U. after   14 cycles
 Normal termination of Gaussian 16 at Tue Dec  8 10:24:42 2020.

 ----------------------------------------------------------------------
 # B3LYP/6-311++G(d,p) empiricaldispersion=gd3bj scf=xqc pop=npa geom=c
 heck
 ----------------------------------------------------------------------

 -----------------------------------
 CID_59688991_JID_106_Energie_kation
 -----------------------------------
 Structure from the checkpoint file:  "JID_106.chk"
 Charge =  1 Multiplicity = 2

 SCF Done:  E(UB3LYP) =  -530.395611756     A.U. after   27 cycles
 Normal termination of Gaussian 16 at Tue Dec  8 10:26:49 2020.
 Gaussian 16:  ES64L-G16RevA.03 25-Dec-2016

 ----------------------------------------------------------------------
 # B3LYP/6-311++G(d,p) empiricaldispersion=gd3bj scf=xqc pop=npa geom=c
 heck
 ----------------------------------------------------------------------

 ----------------------------------
 CID_59688991_JID_106_Energie_anion
 ----------------------------------
 Structure from the checkpoint file:  "JID_106.chk"
 Charge = -1 Multiplicity = 2

                         Standard orientation:
 ---------------------------------------------------------------------
 Center     Atomic      Atomic             Coordinates (Angstroms)
 Number     Number       Type             X           Y           Z
 ---------------------------------------------------------------------
      1          6           0       -2.628731    0.702048    0.373145
      2          7           0       -1.293564    0.239684    0.043912
      3          6           0       -0.219841    1.063204   -0.231065
      4          8           0       -0.209805    2.277583   -0.216280
      5          6           0        0.966435    0.140771   -0.516509
      6          7           0        0.404625   -1.182741   -0.264540
      7          6           0       -0.962490   -1.125210   -0.054802
      8          8           0       -1.744503   -2.046892    0.040263
      9          6           0        2.155821    0.452003    0.400409
     10          8           0        3.194158   -0.495930    0.227696
     11          1           0       -2.878315    0.448431    1.407494
     12          1           0       -3.357701    0.232223   -0.291119
     13          1           0       -2.638689    1.785197    0.245182
     14          1           0        1.279211    0.253501   -1.562249
     15          1           0        0.759103   -2.001562   -0.739053
     16          1           0        2.560260    1.432661    0.139335
     17          1           0        1.809341    0.489561    1.443175
     18          1           0        2.903409   -1.313601    0.661125
 ---------------------------------------------------------------------

 SCF Done:  E(UB3LYP) =  -530.739632363     A.U. after   29 cycles

 The electronic state is 2-A.
 Alpha  occ. eigenvalues --  -19.01577 -19.00293 -18.99360 -14.26064 -14.23182
 Alpha  occ. eigenvalues --  -10.19905 -10.17828 -10.11632 -10.11516 -10.11018
 Alpha  occ. eigenvalues --   -0.97104  -0.94375  -0.91988  -0.87053  -0.80847
 Alpha  occ. eigenvalues --   -0.65700  -0.63213  -0.55328  -0.51592  -0.47961
 Alpha  occ. eigenvalues --   -0.42743  -0.40924  -0.38625  -0.37702  -0.35539
 Alpha  occ. eigenvalues --   -0.34790  -0.33111  -0.32167  -0.31387  -0.30390
 Alpha  occ. eigenvalues --   -0.29940  -0.28011  -0.23505  -0.19142  -0.18596
 Alpha  occ. eigenvalues --   -0.17501  -0.16752  -0.15197   0.04882
 Alpha virt. eigenvalues --    0.07140   0.08382   0.08712   0.09948   0.10645
 Alpha virt. eigenvalues --    0.11402   0.11903   0.12376   0.14108   0.15218
 Alpha virt. eigenvalues --    0.16121   0.16597   0.16935   0.17483   0.18344

  Beta  occ. eigenvalues --  -19.01522 -19.00234 -18.99317 -14.26067 -14.23135
  Beta  occ. eigenvalues --  -10.19871 -10.17738 -10.11617 -10.11482 -10.10995
  Beta  occ. eigenvalues --   -0.97011  -0.94269  -0.91888  -0.86986  -0.80794
  Beta  occ. eigenvalues --   -0.65572  -0.63145  -0.55190  -0.51495  -0.47866
  Beta  occ. eigenvalues --   -0.42599  -0.40802  -0.38551  -0.37569  -0.35460
  Beta  occ. eigenvalues --   -0.34717  -0.33056  -0.32060  -0.31319  -0.30345
  Beta  occ. eigenvalues --   -0.29722  -0.27776  -0.23441  -0.19083  -0.18494
  Beta  occ. eigenvalues --   -0.17392  -0.16694  -0.15119
  Beta virt. eigenvalues --    0.07330   0.08403   0.09501   0.09663   0.10444
  Beta virt. eigenvalues --    0.11210   0.11689   0.12111   0.13109   0.14430
  Beta virt. eigenvalues --    0.15593   0.16297   0.16777   0.16993   0.17435

 Mulliken charges and spin densities:
               1          2
     1  C    0.650924  -0.917654
     2  N   -0.112790   0.052711
     3  C    0.341651  -0.393321
     4  O   -0.383312   0.044791
     5  C    0.093897   0.001978
     6  N   -0.325585   0.056255
     7  C    0.382729  -0.158666
     8  O   -0.414446   0.032168
     9  C    1.120111  -1.532177
    10  O   -0.315975   0.065980
    11  H   -0.240446   0.422064
    12  H   -0.071986   0.239700
    13  H    0.045883   0.113111
    14  H   -0.807763   1.049731
    15  H   -0.354428   0.689718
    16  H    0.162251   0.018337
    17  H   -0.475094   0.646924
    18  H   -0.295621   0.568350
 Sum of Mulliken charges =  -1.00000   1.00000

 Dipole moment (field-independent basis, Debye):
    X=             -3.5161    Y=              3.4743    Z=              0.4182  Tot=              4.9607
 Quadrupole moment (field-independent basis, Debye-Ang):
   XX=           -104.1383   YY=            -99.1263   ZZ=            -85.2081
   XY=              3.4643   XZ=              3.3845   YZ=              0.1946

 Summary of Natural Population Analysis:

                                       Natural Population
                Natural  -----------------------------------------------
    Atom  No    Charge         Core      Valence    Rydberg      Total
 -----------------------------------------------------------------------
      C    1   -0.17810      0.99964     2.17073    0.00773     3.17810
      N    2   -0.26329      0.99960     2.75427    0.00942     3.76329
      C    3    0.36499      0.99964     1.61274    0.02263     2.63501
      O    4   -0.30557      0.99987     3.29998    0.00572     4.30557
      C    5   -0.06038      0.99957     2.04662    0.01419     3.06038
      N    6   -0.33281      0.99968     2.82130    0.01183     3.83281
      C    7    0.42148      0.99968     1.55617    0.02267     2.57852
      O    8   -0.31394      0.99987     3.30794    0.00614     4.31394
      C    9   -0.00470      0.99958     1.99108    0.01405     3.00470
      O   10   -0.36780      0.99990     3.36085    0.00704     4.36780
      H   11    0.10001      0.00000     0.39822    0.00176     0.39999
      H   12    0.10184      0.00000     0.39681    0.00135     0.39816
      H   13    0.10843      0.00000     0.39030    0.00126     0.39157
      H   14    0.11240      0.00000     0.38346    0.00414     0.38760
      H   15    0.20831      0.00000     0.27872    0.01297     0.29169
      H   16    0.09231      0.00000     0.40636    0.00133     0.40769
      H   17    0.08057      0.00000     0.41771    0.00172     0.41943
      H   18    0.23625      0.00000     0.24992    0.01383     0.26375
 =======================================================================
   * Total *   -0.00000      9.99703    27.84317    0.15980    38.00000

 Normal termination of Gaussian 16 at Tue Dec  8 10:29:05 2020.
