 Gaussian 16, Revision A.03,

 -----------------------------------------------------------
 # opt freq B3LYP/6-31G(d) empiricaldispersion=gd3bj scf=xqc
 -----------------------------------------------------------

 -------------------------------
 CID_108047058_JID_9484_neutraal
 -------------------------------
 Symbolic Z-matrix:
 Charge =  0 Multiplicity = 1

 SCF Done:  E(RB3LYP) =  -1164.19487396     A.U. after   16 cycles
 SCF Done:  E(RB3LYP) =  -1164.20012806     A.U. after   12 cycles
 SCF Done:  E(RB3LYP) =  -1164.20090311     A.U. after   12 cycles
 SCF Done:  E(RB3LYP) =  -1164.20106030     A.U. after   11 cycles
 SCF Done:  E(RB3LYP) =  -1164.20116642     A.U. after   12 cycles
 SCF Done:  E(RB3LYP) =  -1164.20131279     A.U. after   12 cycles
 SCF Done:  E(RB3LYP) =  -1164.19776674     A.U. after   16 cycles
 SCF Done:  E(RB3LYP) =  -1164.20097280     A.U. after   13 cycles
 SCF Done:  E(RB3LYP) =  -1164.20147869     A.U. after   11 cycles
 SCF Done:  E(RB3LYP) =  -1164.20172375     A.U. after   15 cycles
 SCF Done:  E(RB3LYP) =  -1164.20646491     A.U. after    9 cycles
 SCF Done:  E(RB3LYP) =  -1164.20646540     A.U. after    8 cycles
 SCF Done:  E(RB3LYP) =  -1164.20646551     A.U. after    7 cycles
 SCF Done:  E(RB3LYP) =  -1164.20646553     A.U. after    7 cycles
 Optimization completed.
    -- Stationary point found.
 Normal termination of Gaussian 16 at Sat Dec 12 10:18:36 2020.

 --------------------------------------------------------------------
 #N Geom=AllCheck Guess=TCheck SCRF=Check GenChk RB3LYP/6-31G(d) Freq
 --------------------------------------------------------------------

 Structure from the checkpoint file:  "JID_9484.chk"
 -------------------------------
 CID_108047058_JID_9484_neutraal
 -------------------------------
 Charge =  0 Multiplicity = 1

 SCF Done:  E(RB3LYP) =  -1164.20646553     A.U. after    1 cycles

  Exact polarizability: 247.505  -0.691 180.053  -9.359  13.088 134.745
 Approx polarizability: 337.189  -2.159 288.166 -27.228  33.353 246.851

                      1                      2                      3
                      A                      A                      A
 Frequencies --     23.6247                28.0653                43.6626
 Red. masses --      4.2137                 5.6229                 5.1868
 Frc consts  --      0.0014                 0.0026                 0.0058
 IR Inten    --      0.0725                 0.1991                 0.0402

                      4                      5                      6
                      A                      A                      A
 Frequencies --     68.1590                77.4325                87.0812
 Red. masses --      3.4051                 1.0918                 1.0974
 Frc consts  --      0.0093                 0.0039                 0.0049
 IR Inten    --      0.3707                 0.2122                 0.2621

                      7                      8                      9
                      A                      A                      A
 Frequencies --    103.5907               151.7585               154.5304
 Red. masses --      3.3106                 4.6798                 2.0561
 Frc consts  --      0.0209                 0.0635                 0.0289
 IR Inten    --      1.0323                 0.9276                 1.6877

                     10                     11                     12
                      A                      A                      A
 Frequencies --    176.0055               176.6955               182.1687
 Red. masses --      3.4689                 3.6942                 2.2606
 Frc consts  --      0.0633                 0.0680                 0.0442
 IR Inten    --      1.3037                 1.7002                 0.4667

                     13                     14                     15
                      A                      A                      A
 Frequencies --    237.7770               276.9674               289.1351
 Red. masses --      2.0360                 3.2948                 3.9073
 Frc consts  --      0.0678                 0.1489                 0.1925
 IR Inten    --      0.6957                 1.5420                 2.2573

                     16                     17                     18
                      A                      A                      A
 Frequencies --    300.4661               323.5016               345.3619
 Red. masses --      3.7733                 3.8297                 4.3362
 Frc consts  --      0.2007                 0.2361                 0.3047
 IR Inten    --      0.3369                 4.0225                 1.3339

                     19                     20                     21
                      A                      A                      A
 Frequencies --    369.7196               434.5002               487.6917
 Red. masses --      4.3480                 4.7044                 4.0843
 Frc consts  --      0.3502                 0.5233                 0.5723
 IR Inten    --      3.0874                 0.9633                 2.2711

                     22                     23                     24
                      A                      A                      A
 Frequencies --    520.0170               524.3210               536.8233
 Red. masses --      5.8532                 4.1922                 4.8437
 Frc consts  --      0.9326                 0.6790                 0.8224
 IR Inten    --      5.4347                 1.1480                 2.9116

                     25                     26                     27
                      A                      A                      A
 Frequencies --    581.7682               583.7432               611.9175
 Red. masses --      4.0656                 5.6379                 4.7692
 Frc consts  --      0.8107                 1.1319                 1.0522
 IR Inten    --      0.3378                 1.3413                 2.3044

                     28                     29                     30
                      A                      A                      A
 Frequencies --    621.8401               632.5913               661.8087
 Red. masses --      5.4612                 5.6682                 4.9401
 Frc consts  --      1.2442                 1.3364                 1.2748
 IR Inten    --      4.2658                 9.4687                 4.0439

                     31                     32                     33
                      A                      A                      A
 Frequencies --    697.6984               723.9488               756.8582
 Red. masses --      4.8844                 1.7198                 2.8390
 Frc consts  --      1.4009                 0.5311                 0.9582
 IR Inten    --      3.0569                96.9928                13.6407

                     34                     35                     36
                      A                      A                      A
 Frequencies --    770.1493               784.4409               821.7354
 Red. masses --      6.3856                 1.4753                 2.6752
 Frc consts  --      2.2315                 0.5349                 1.0643
 IR Inten    --      7.1595                14.7181                 9.2689

                     37                     38                     39
                      A                      A                      A
 Frequencies --    827.4841               840.4022               874.3531
 Red. masses --      3.8336                 1.5474                 1.6402
 Frc consts  --      1.5466                 0.6439                 0.7388
 IR Inten    --     88.7986                18.6550                 2.0703

                     40                     41                     42
                      A                      A                      A
 Frequencies --    880.8531               892.8953               957.5218
 Red. masses --      4.2950                 1.3532                 1.2555
 Frc consts  --      1.9635                 0.6357                 0.6782
 IR Inten    --     52.3852                 0.4729                 0.5745

                     43                     44                     45
                      A                      A                      A
 Frequencies --    975.0350               989.0766               993.8674
 Red. masses --      2.7046                 1.8775                 2.0916
 Frc consts  --      1.5149                 1.0822                 1.2173
 IR Inten    --      7.9238                 5.4388                31.7285

                     46                     47                     48
                      A                      A                      A
 Frequencies --   1003.2379              1064.4894              1075.9416
 Red. masses --      2.6598                 1.4108                 2.6969
 Frc consts  --      1.5773                 0.9419                 1.8395
 IR Inten    --      2.7926                 0.7953                 3.9807

                     49                     50                     51
                      A                      A                      A
 Frequencies --   1076.7162              1108.7849              1113.0466
 Red. masses --      1.4918                 1.7076                 3.2860
 Frc consts  --      1.0190                 1.2369                 2.3985
 IR Inten    --      2.4414                 5.0016                 0.8299

                     52                     53                     54
                      A                      A                      A
 Frequencies --   1147.5323              1166.5546              1172.8250
 Red. masses --      2.8748                 1.5898                 1.6653
 Frc consts  --      2.2305                 1.2747                 1.3496
 IR Inten    --     30.1987                32.2029                13.8178

                     55                     56                     57
                      A                      A                      A
 Frequencies --   1182.2950              1197.0813              1203.9801
 Red. masses --      2.2842                 1.4099                 1.9652
 Frc consts  --      1.8812                 1.1904                 1.6784
 IR Inten    --     65.6003                12.7202                13.8648

                     58                     59                     60
                      A                      A                      A
 Frequencies --   1217.2912              1224.1910              1257.1591
 Red. masses --      3.3562                 2.7830                 2.7230
 Frc consts  --      2.9301                 2.4573                 2.5356
 IR Inten    --     49.0211                11.2999                 2.6894

                     61                     62                     63
                      A                      A                      A
 Frequencies --   1304.2345              1312.9936              1332.5840
 Red. masses --      1.7462                 2.0446                 3.3661
 Frc consts  --      1.7500                 2.0767                 3.5218
 IR Inten    --      1.9671                 5.5073                41.5863

                     64                     65                     66
                      A                      A                      A
 Frequencies --   1373.2615              1379.9867              1405.9410
 Red. masses --      1.3302                 2.4604                 5.4169
 Frc consts  --      1.4779                 2.7606                 6.3086
 IR Inten    --      8.4678                 6.2444                 0.8834

                     67                     68                     69
                      A                      A                      A
 Frequencies --   1433.8940              1444.5960              1460.6274
 Red. masses --      1.2620                 1.2802                 2.4530
 Frc consts  --      1.5287                 1.5741                 3.0834
 IR Inten    --      0.4458                 0.4303                14.1237

                     70                     71                     72
                      A                      A                      A
 Frequencies --   1479.9799              1503.8590              1504.2972
 Red. masses --      1.1634                 1.2238                 1.2024
 Frc consts  --      1.5014                 1.6307                 1.6031
 IR Inten    --      1.9558                30.5731                 9.2563

                     73                     74                     75
                      A                      A                      A
 Frequencies --   1507.4372              1509.8035              1517.3888
 Red. masses --      1.0437                 1.0436                 1.0558
 Frc consts  --      1.3974                 1.4016                 1.4323
 IR Inten    --     10.6045                 6.3704                 5.4298

                     76                     77                     78
                      A                      A                      A
 Frequencies --   1525.8926              1541.0102              1550.0852
 Red. masses --      1.2053                 2.6170                 1.8909
 Frc consts  --      1.6534                 3.6616                 2.6769
 IR Inten    --     14.4675                 5.5616                 5.0016

                     79                     80                     81
                      A                      A                      A
 Frequencies --   1551.4823              1598.6358              1645.3094
 Red. masses --      1.5339                 5.5754                 7.1515
 Frc consts  --      2.1754                 8.3951                11.4062
 IR Inten    --     18.1928                17.5483                 3.2652

                     82                     83                     84
                      A                      A                      A
 Frequencies --   1655.1499              1672.2965              3002.3555
 Red. masses --      6.4784                 8.1270                 1.0511
 Frc consts  --     10.4566                13.3908                 5.5825
 IR Inten    --      4.4863                 0.8549                73.6819

                     85                     86                     87
                      A                      A                      A
 Frequencies --   3032.2878              3049.1828              3056.5381
 Red. masses --      1.0825                 1.0366                 1.0370
 Frc consts  --      5.8643                 5.6785                 5.7083
 IR Inten    --     12.5483                27.1118                19.9125

                     88                     89                     90
                      A                      A                      A
 Frequencies --   3082.4133              3101.5199              3111.5804
 Red. masses --      1.0845                 1.1006                 1.1016
 Frc consts  --      6.0708                 6.2379                 6.2841
 IR Inten    --     38.0829                15.5343                10.4155

                     91                     92                     93
                      A                      A                      A
 Frequencies --   3127.6442              3133.5438              3158.8282
 Red. masses --      1.1020                 1.1021                 1.1009
 Frc consts  --      6.3514                 6.3759                 6.4722
 IR Inten    --     27.6015                18.9075                 4.6318

                     94                     95                     96
                      A                      A                      A
 Frequencies --   3182.0648              3195.5473              3210.1382
 Red. masses --      1.0866                 1.0901                 1.0959
 Frc consts  --      6.4824                 6.5584                 6.6541
 IR Inten    --      5.9892                18.3900                29.2434

                     97                     98                     99
                      A                      A                      A
 Frequencies --   3226.2742              3278.4546              3509.4710
 Red. masses --      1.0926                 1.0965                 1.0743
 Frc consts  --      6.7008                 6.9435                 7.7959
 IR Inten    --     11.3228                 3.8564                 0.2537

 - Thermochemistry -
 -------------------
 Temperature   298.150 Kelvin.  Pressure   1.00000 Atm.
 Atom     1 has atomic number  6 and mass  12.00000

 Molecular mass:   272.09834 amu.
 Principal axes and moments of inertia in atomic units:
                           1         2         3
     Eigenvalues --  2742.032759728.61696**********
           X            0.99998  -0.00363  -0.00417
           Y            0.00364   0.99999   0.00304
           Z            0.00416  -0.00305   0.99999
 This molecule is an asymmetric top.
 Rotational symmetry number  1.
 Warning -- assumption of classical behavior for rotation
           may cause significant error
 Rotational temperatures (Kelvin)      0.03159     0.00890     0.00770
 Rotational constants (GHZ):           0.65818     0.18551     0.16040
 Zero-point vibrational energy     743352.1 (Joules/Mol)
                                  177.66541 (Kcal/Mol)
 Warning -- explicit consideration of  27 degrees of freedom as
           vibrations may cause significant error
 Vibrational temperatures:     33.99    40.38    62.82    98.07   111.41
          (Kelvin)            125.29   149.04   218.35   222.33   253.23
                              254.23   262.10   342.11   398.49   416.00
                              432.30   465.45   496.90   531.94   625.15
                              701.68   748.19   754.38   772.37   837.03
                              839.88   880.41   894.69   910.16   952.20
                             1003.83  1041.60  1088.95  1108.07  1128.64
                             1182.29  1190.57  1209.15  1258.00  1267.35
                             1284.68  1377.66  1402.86  1423.06  1429.95
                             1443.44  1531.56  1548.04  1549.15  1595.29
                             1601.43  1651.04  1678.41  1687.43  1701.06
                             1722.33  1732.26  1751.41  1761.34  1808.77
                             1876.50  1889.10  1917.29  1975.82  1985.49
                             2022.84  2063.05  2078.45  2101.52  2129.36
                             2163.72  2164.35  2168.87  2172.27  2183.18
                             2195.42  2217.17  2230.23  2232.24  2300.08
                             2367.23  2381.39  2406.06  4319.72  4362.79
                             4387.09  4397.68  4434.91  4462.40  4476.87
                             4499.98  4508.47  4544.85  4578.28  4597.68
                             4618.67  4641.89  4716.96  5049.35

 Zero-point correction=                           0.283128 (Hartree/Particle)
 Thermal correction to Energy=                    0.301126
 Thermal correction to Enthalpy=                  0.302070
 Thermal correction to Gibbs Free Energy=         0.234982
 Sum of electronic and zero-point Energies=          -1163.923338
 Sum of electronic and thermal Energies=             -1163.905340
 Sum of electronic and thermal Enthalpies=           -1163.904395
 Sum of electronic and thermal Free Energies=        -1163.971483

                     E (Thermal)             CV                S
                      KCal/Mol        Cal/Mol-Kelvin    Cal/Mol-Kelvin
 Total                  188.959             67.324            141.198
 Electronic               0.000              0.000              0.000
 Translational            0.889              2.981             42.702
 Rotational               0.889              2.981             34.061
 Vibrational            187.182             61.363             64.435
 Vibration     1          0.593              1.985              6.304
 Vibration     2          0.593              1.984              5.962
 Vibration     3          0.595              1.980              5.086
 Vibration     4          0.598              1.969              4.206
 Vibration     5          0.599              1.964              3.955
 Vibration     6          0.601              1.958              3.725
 Vibration     7          0.605              1.946              3.386
 Vibration     8          0.619              1.901              2.650
 Vibration     9          0.620              1.898              2.616
 Vibration    10          0.628              1.872              2.370
 Vibration    11          0.628              1.871              2.363
 Vibration    12          0.630              1.864              2.306
 Vibration    13          0.656              1.783              1.819
 Vibration    14          0.678              1.716              1.552
 Vibration    15          0.686              1.694              1.479
 Vibration    16          0.693              1.673              1.414
 Vibration    17          0.708              1.628              1.292
 Vibration    18          0.724              1.585              1.187
 Vibration    19          0.742              1.534              1.081
 Vibration    20          0.795              1.395              0.844
 Vibration    21          0.844              1.277              0.690
 Vibration    22          0.875              1.206              0.610
 Vibration    23          0.879              1.196              0.600
 Vibration    24          0.892              1.169              0.572
 Vibration    25          0.939              1.071              0.482
 Vibration    26          0.941              1.067              0.478
 Vibration    27          0.971              1.007              0.430

 Optimization completed.
    -- Stationary point found.
 Normal termination of Gaussian 16 at Sat Dec 12 10:36:13 2020.

 ----------------------------------------------------------------------
 # B3LYP/6-311++G(d,p) empiricaldispersion=gd3bj scf=xqc pop=npa geom=c
 heck
 ----------------------------------------------------------------------

 ---------------------------------------
 CID_108047058_JID_9484_Energie_neutraal
 ---------------------------------------
 Structure from the checkpoint file:  "JID_9484.chk"
 Charge =  0 Multiplicity = 1

 SCF Done:  E(RB3LYP) =  -1164.43434069     A.U. after   16 cycles
 Normal termination of Gaussian 16 at Sat Dec 12 10:44:37 2020.

 ----------------------------------------------------------------------
 # B3LYP/6-311++G(d,p) empiricaldispersion=gd3bj scf=xqc pop=npa geom=c
 heck
 ----------------------------------------------------------------------

 -------------------------------------
 CID_108047058_JID_9484_Energie_kation
 -------------------------------------
 Structure from the checkpoint file:  "JID_9484.chk"
 Charge =  1 Multiplicity = 2

 SCF Done:  E(UB3LYP) =  -1164.14969779     A.U. after   33 cycles
 SCF Done:  E(UB3LYP) =  -1164.15053955     a.u. after    6 cycles
 Normal termination of Gaussian 16 at Sat Dec 12 13:07:32 2020.
 Gaussian 16:  ES64L-G16RevA.03 25-Dec-2016

 ----------------------------------------------------------------------
 # B3LYP/6-311++G(d,p) empiricaldispersion=gd3bj scf=xqc pop=npa geom=c
 heck
 ----------------------------------------------------------------------

 ------------------------------------
 CID_108047058_JID_9484_Energie_anion
 ------------------------------------
 Structure from the checkpoint file:  "JID_9484.chk"
 Charge = -1 Multiplicity = 2

                         Standard orientation:
 ---------------------------------------------------------------------
 Center     Atomic      Atomic             Coordinates (Angstroms)
 Number     Number       Type             X           Y           Z
 ---------------------------------------------------------------------
      1          6           0       -4.475199    1.372176    1.211048
      2          6           0       -3.964523    0.168273    0.467262
      3          6           0       -2.616635    0.026700    0.141944
      4          6           0       -2.069542   -1.068800   -0.550513
      5          6           0       -2.921494   -2.107826   -0.953705
      6          6           0       -4.273128   -1.998821   -0.645850
      7          6           0       -4.781285   -0.885208    0.048962
      8          6           0       -0.657973   -0.785952   -0.657116
      9          6           0       -0.455203    0.412487   -0.047745
     10          8           0       -1.631806    0.931312    0.449989
     11          6           0        0.766864    1.263043    0.138262
     12          6           0        2.018665    0.419203   -0.021180
     13          6           0        2.807975    0.267267   -1.125176
     14          7           0        3.874222   -0.599830   -1.013616
     15          6           0        3.929919   -1.131265    0.173069
     16         16           0        2.645437   -0.591774    1.258668
     17          6           0        4.970628   -2.111650    0.614652
     18          7           0        0.690222    2.423549   -0.748403
     19          6           0        1.731662    3.423459   -0.538237
     20          1           0       -5.557643    1.311405    1.355814
     21          1           0       -4.251142    2.297834    0.668001
     22          1           0       -4.001543    1.460623    2.196121
     23          1           0       -2.537028   -2.970117   -1.490135
     24          1           0       -4.956713   -2.787809   -0.946056
     25          1           0       -5.844479   -0.837309    0.269793
     26          1           0        0.106312   -1.397052   -1.114601
     27          1           0        0.740805    1.660251    1.162493
     28          1           0        2.654389    0.784804   -2.065261
     29          1           0        4.521790   -3.061093    0.927721
     30          1           0        5.645206   -2.299420   -0.223632
     31          1           0        5.554132   -1.725390    1.458130
     32          1           0        0.666651    2.111424   -1.716489
     33          1           0        2.761603    3.050535   -0.655852
     34          1           0        1.575391    4.247545   -1.240779
     35          1           0        1.634230    3.827107    0.476205
 ---------------------------------------------------------------------

 SCF Done:  E(UB3LYP) =  -1164.42523638     A.U. after   33 cycles
 SCF Done:  E(UB3LYP) =  -1164.42523638     a.u. after    1 cycles

 The electronic state is 2-A.
 Alpha  occ. eigenvalues --  -88.74583 -19.06789 -14.19674 -14.18292 -10.11335
 Alpha  occ. eigenvalues --  -10.11228 -10.11075 -10.09990 -10.08474 -10.07568
 Alpha  occ. eigenvalues --  -10.07380 -10.06932 -10.06857 -10.06734 -10.06651
 Alpha  occ. eigenvalues --  -10.06617 -10.06249 -10.06149 -10.05487  -7.83239
 Alpha  occ. eigenvalues --   -5.79514  -5.79177  -5.78845  -0.99370  -0.83383
 Alpha  occ. eigenvalues --   -0.80757  -0.75027  -0.70066  -0.68049  -0.65457
 Alpha  occ. eigenvalues --   -0.65304  -0.64216  -0.59488  -0.58828  -0.56935
 Alpha  occ. eigenvalues --   -0.54159  -0.50592  -0.48452  -0.46637  -0.44505
 Alpha  occ. eigenvalues --   -0.41780  -0.40624  -0.40121  -0.37373  -0.37331
 Alpha  occ. eigenvalues --   -0.35640  -0.34353  -0.33884  -0.33099  -0.32609
 Alpha  occ. eigenvalues --   -0.31977  -0.31591  -0.31387  -0.30098  -0.29192
 Alpha  occ. eigenvalues --   -0.28660  -0.28383  -0.27712  -0.27177  -0.26334
 Alpha  occ. eigenvalues --   -0.25630  -0.25213  -0.24175  -0.23236  -0.23154
 Alpha  occ. eigenvalues --   -0.18141  -0.15686  -0.15094  -0.13339  -0.12593
 Alpha  occ. eigenvalues --   -0.11934  -0.11209   0.05063
 Alpha virt. eigenvalues --    0.06882   0.07084   0.07447   0.07737   0.08071
 Alpha virt. eigenvalues --    0.09381   0.09455   0.10507   0.10599   0.10814
 Alpha virt. eigenvalues --    0.11013   0.11295   0.11573   0.11902   0.12581

  Beta  occ. eigenvalues --  -88.74558 -19.06747 -14.19618 -14.18315 -10.11365
  Beta  occ. eigenvalues --  -10.11253 -10.10899 -10.09692 -10.08457 -10.07576
  Beta  occ. eigenvalues --  -10.07266 -10.06884 -10.06745 -10.06684 -10.06635
  Beta  occ. eigenvalues --  -10.06576 -10.06169 -10.06021 -10.05479  -7.83216
  Beta  occ. eigenvalues --   -5.79509  -5.79171  -5.78752  -0.99273  -0.83189
  Beta  occ. eigenvalues --   -0.80630  -0.74879  -0.69871  -0.67816  -0.65266
  Beta  occ. eigenvalues --   -0.65133  -0.64030  -0.59409  -0.58688  -0.56808
  Beta  occ. eigenvalues --   -0.54080  -0.50518  -0.48255  -0.46513  -0.44259
  Beta  occ. eigenvalues --   -0.41530  -0.40507  -0.39996  -0.37274  -0.37171
  Beta  occ. eigenvalues --   -0.35444  -0.34254  -0.33765  -0.32965  -0.32230
  Beta  occ. eigenvalues --   -0.31896  -0.31506  -0.31292  -0.30029  -0.29146
  Beta  occ. eigenvalues --   -0.28517  -0.28300  -0.27634  -0.27015  -0.26215
  Beta  occ. eigenvalues --   -0.25406  -0.25055  -0.23797  -0.23108  -0.23017
  Beta  occ. eigenvalues --   -0.17668  -0.15147  -0.15045  -0.13073  -0.12373
  Beta  occ. eigenvalues --   -0.10847  -0.10488
  Beta virt. eigenvalues --    0.06864   0.07412   0.07706   0.08034   0.08442
  Beta virt. eigenvalues --    0.08943   0.09349   0.09909   0.10612   0.10661
  Beta virt. eigenvalues --    0.10808   0.11045   0.11424   0.11637   0.12186

 Mulliken charges and spin densities:
               1          2
     1  C   -0.643889  -0.003109
     2  C    0.033169   0.055259
     3  C   -0.619467  -0.031220
     4  C    0.907410  -0.002340
     5  C   -0.661134   0.108354
     6  C    0.035056  -0.048185
     7  C   -0.630573   0.084406
     8  C    0.354403  -0.017106
     9  C   -0.241676   0.139380
    10  O    0.002275   0.009756
    11  C   -0.391593  -0.048772
    12  C    0.414901   0.099905
    13  C   -0.372527   0.144804
    14  N   -0.025440   0.011743
    15  C   -0.561745   0.465367
    16  S   -0.219611   0.018216
    17  C    0.199493  -0.701648
    18  N   -0.017431   0.036327
    19  C    0.074276  -0.378558
    20  H    0.135896   0.000697
    21  H    0.149352   0.010477
    22  H    0.150743   0.003799
    23  H    0.094286   0.002664
    24  H    0.128304   0.004059
    25  H    0.082881  -0.005339
    26  H    0.163476   0.033800
    27  H    0.176140   0.061064
    28  H    0.123692   0.015034
    29  H    0.153502  -0.004836
    30  H    0.088550   0.054037
    31  H   -0.234277   0.404832
    32  H    0.209359  -0.001286
    33  H   -0.050418   0.213415
    34  H    0.014648   0.119821
    35  H   -0.022029   0.145185
 Sum of Mulliken charges =  -1.00000   1.00000

 Dipole moment (field-independent basis, Debye):
    X=             -5.5840    Y=             -0.5164    Z=             -0.4290  Tot=              5.6242
 Quadrupole moment (field-independent basis, Debye-Ang):
   XX=           -202.1258   YY=           -146.1399   ZZ=           -137.8629
   XY=             -3.0116   XZ=             -4.7666   YZ=              1.6125

 Summary of Natural Population Analysis:

                                       Natural Population
                Natural  -----------------------------------------------
    Atom  No    Charge         Core      Valence    Rydberg      Total
 -----------------------------------------------------------------------
      C    1   -0.28686      0.99959     2.28262    0.00464     3.28686
      C    2   -0.02387      0.99947     2.01558    0.00883     3.02387
      C    3    0.14485      0.99932     1.83807    0.01776     2.85515
      C    4   -0.06909      0.99953     2.05255    0.01702     3.06909
      C    5   -0.02567      0.99956     2.01996    0.00615     3.02567
      C    6   -0.13900      0.99964     2.12322    0.01614     3.13900
      C    7   -0.09848      0.99955     2.08960    0.00933     3.09848
      C    8   -0.16491      0.99950     2.15220    0.01321     3.16491
      C    9    0.25900      0.99942     1.72460    0.01697     2.74100
      O   10   -0.25078      0.99985     3.23759    0.01333     4.25078
      C   11   -0.06418      0.99953     2.04364    0.02100     3.06418
      C   12   -0.08138      0.99947     2.06855    0.01336     3.08138
      C   13   -0.02820      0.99944     2.01253    0.01623     3.02820
      N   14   -0.25904      0.99965     2.74813    0.01126     3.75904
      C   15    0.08188      0.99964     1.90073    0.01775     2.91812
      S   16    0.18009      4.99939     2.80173    0.01879     7.81991
      C   17   -0.30852      0.99961     2.30292    0.00599     3.30852
      N   18   -0.32624      0.99975     2.81502    0.01148     3.82624
      C   19   -0.18243      0.99966     2.17428    0.00848     3.18243
      H   20    0.09527      0.00000     0.40349    0.00124     0.40473
      H   21    0.10455      0.00000     0.39419    0.00126     0.39545
      H   22    0.10324      0.00000     0.39549    0.00127     0.39676
      H   23    0.09451      0.00000     0.40415    0.00134     0.40549
      H   24    0.09287      0.00000     0.40569    0.00144     0.40713
      H   25    0.09227      0.00000     0.40694    0.00080     0.40773
      H   26    0.11305      0.00000     0.38498    0.00197     0.38695
      H   27    0.10485      0.00000     0.39305    0.00210     0.39515
      H   28    0.09313      0.00000     0.40551    0.00136     0.40687
      H   29    0.10251      0.00000     0.39668    0.00081     0.39749
      H   30    0.10930      0.00000     0.38951    0.00119     0.39070
      H   31    0.10816      0.00000     0.38954    0.00230     0.39184
      H   32    0.17138      0.00000     0.32618    0.00243     0.32862
      H   33    0.08778      0.00000     0.41054    0.00168     0.41222
      H   34    0.09145      0.00000     0.40779    0.00075     0.40855
      H   35    0.09020      0.00000     0.40872    0.00108     0.40980
 =======================================================================
   * Total *    0.01170     22.99158    48.72596    0.27076    71.98830

 Normal termination of Gaussian 16 at Sat Dec 12 13:31:22 2020.
