 Gaussian 16, Revision A.03,

 -----------------------------------------------------------
 # opt freq B3LYP/6-31G(d) empiricaldispersion=gd3bj scf=xqc
 -----------------------------------------------------------

 -------------------------------
 CID_76922479_JID_10221_neutraal
 -------------------------------
 Symbolic Z-matrix:
 Charge =  0 Multiplicity = 1

 SCF Done:  E(RB3LYP) =  -1006.54985714     A.U. after   16 cycles
 SCF Done:  E(RB3LYP) =  -1006.55693522     A.U. after   15 cycles
 SCF Done:  E(RB3LYP) =  -1006.55617645     A.U. after   15 cycles
 SCF Done:  E(RB3LYP) =  -1006.55988594     A.U. after   15 cycles
 SCF Done:  E(RB3LYP) =  -1006.56131836     A.U. after   14 cycles
 SCF Done:  E(RB3LYP) =  -1006.56151585     A.U. after   15 cycles
 SCF Done:  E(RB3LYP) =  -1006.56227035     A.U. after   14 cycles
 SCF Done:  E(RB3LYP) =  -1006.56246308     A.U. after   13 cycles
 SCF Done:  E(RB3LYP) =  -1006.56255992     A.U. after   13 cycles
 SCF Done:  E(RB3LYP) =  -1006.56259297     A.U. after   12 cycles
 SCF Done:  E(RB3LYP) =  -1006.56262599     A.U. after   11 cycles
 SCF Done:  E(RB3LYP) =  -1006.56262683     A.U. after   10 cycles
 SCF Done:  E(RB3LYP) =  -1006.56262696     A.U. after    8 cycles
 SCF Done:  E(RB3LYP) =  -1006.56262699     A.U. after    7 cycles
 SCF Done:  E(RB3LYP) =  -1006.56262701     A.U. after    7 cycles
 SCF Done:  E(RB3LYP) =  -1006.56262701     A.U. after    7 cycles
 Optimization completed.
    -- Stationary point found.
 Normal termination of Gaussian 16 at Mon Dec 14 13:42:23 2020.

 --------------------------------------------------------------------
 #N Geom=AllCheck Guess=TCheck SCRF=Check GenChk RB3LYP/6-31G(d) Freq
 --------------------------------------------------------------------

 Structure from the checkpoint file:  "JID_10221.chk"
 -------------------------------
 CID_76922479_JID_10221_neutraal
 -------------------------------
 Charge =  0 Multiplicity = 1

 SCF Done:  E(RB3LYP) =  -1006.56262701     A.U. after    1 cycles

  Exact polarizability: 220.688  -7.516 164.663  20.034  14.194 115.171
 Approx polarizability: 303.693 -10.917 272.539  58.040  34.967 205.942

                      1                      2                      3
                      A                      A                      A
 Frequencies --     18.8309                27.9895                40.0554
 Red. masses --      4.9629                 5.1903                 5.4400
 Frc consts  --      0.0010                 0.0024                 0.0051
 IR Inten    --      0.1367                 0.2290                 0.3451

                      4                      5                      6
                      A                      A                      A
 Frequencies --     43.7927                65.1173                80.1434
 Red. masses --      3.7152                 4.8927                 5.2675
 Frc consts  --      0.0042                 0.0122                 0.0199
 IR Inten    --      0.2194                 0.7000                 1.0572

                      7                      8                      9
                      A                      A                      A
 Frequencies --    108.1206               138.6141               148.5511
 Red. masses --      6.7058                 5.3685                 6.5811
 Frc consts  --      0.0462                 0.0608                 0.0856
 IR Inten    --      2.0539                 1.6738                 0.7698

                     10                     11                     12
                      A                      A                      A
 Frequencies --    171.9837               202.8901               242.8345
 Red. masses --      4.4504                 4.4971                 2.3108
 Frc consts  --      0.0776                 0.1091                 0.0803
 IR Inten    --      3.0293                 4.1533                 3.7951

                     13                     14                     15
                      A                      A                      A
 Frequencies --    255.3037               265.2595               274.0081
 Red. masses --      5.6965                 3.7040                 4.5392
 Frc consts  --      0.2188                 0.1536                 0.2008
 IR Inten    --      2.4234                14.2232                 5.1996

                     16                     17                     18
                      A                      A                      A
 Frequencies --    289.3632               338.5476               365.8745
 Red. masses --      4.6894                 5.0880                 1.4302
 Frc consts  --      0.2313                 0.3436                 0.1128
 IR Inten    --      1.1943                 4.0852                99.4336

                     19                     20                     21
                      A                      A                      A
 Frequencies --    385.5443               398.6995               410.0664
 Red. masses --      2.7623                 2.3660                 2.7249
 Frc consts  --      0.2419                 0.2216                 0.2700
 IR Inten    --     12.3957                13.7368                 5.9696

                     22                     23                     24
                      A                      A                      A
 Frequencies --    414.3722               441.7909               475.9609
 Red. masses --      2.3383                 3.0689                 4.7668
 Frc consts  --      0.2366                 0.3529                 0.6362
 IR Inten    --     33.5608                 6.9676                 5.1443

                     25                     26                     27
                      A                      A                      A
 Frequencies --    520.7030               553.3991               587.7948
 Red. masses --      3.8097                 5.1965                 3.7580
 Frc consts  --      0.6086                 0.9377                 0.7650
 IR Inten    --      6.9979                 9.5361                16.0587

                     28                     29                     30
                      A                      A                      A
 Frequencies --    605.5507               632.3721               660.6129
 Red. masses --      1.9433                 6.4233                 4.6359
 Frc consts  --      0.4198                 1.5134                 1.1920
 IR Inten    --      3.7755                 5.7774                15.1052

                     31                     32                     33
                      A                      A                      A
 Frequencies --    682.9779               714.9766               727.1483
 Red. masses --      5.3343                 4.8558                 5.0226
 Frc consts  --      1.4660                 1.4625                 1.5647
 IR Inten    --     31.4987                19.1495                 9.1876

                     34                     35                     36
                      A                      A                      A
 Frequencies --    750.9335               783.3414               814.8822
 Red. masses --      6.1552                 7.4034                 1.7377
 Frc consts  --      2.0450                 2.6766                 0.6798
 IR Inten    --     11.8199                 8.0397               146.0758

                     37                     38                     39
                      A                      A                      A
 Frequencies --    825.7858               837.5358               865.8338
 Red. masses --      4.4706                 2.4663                 1.5201
 Frc consts  --      1.7962                 1.0193                 0.6714
 IR Inten    --     54.8708                14.8866                19.8454

                     40                     41                     42
                      A                      A                      A
 Frequencies --    886.3960               904.3308               920.2462
 Red. masses --      1.6124                 2.0265                 5.8883
 Frc consts  --      0.7464                 0.9765                 2.9380
 IR Inten    --      5.3195                 3.8067                23.0651

                     43                     44                     45
                      A                      A                      A
 Frequencies --    936.8112               949.9344               957.7252
 Red. masses --      2.4471                 1.5348                 2.7975
 Frc consts  --      1.2654                 0.8160                 1.5118
 IR Inten    --      6.5923                10.9373                20.4236

                     46                     47                     48
                      A                      A                      A
 Frequencies --    988.3155               995.0977              1009.5840
 Red. masses --      5.1407                 1.3108                 1.9272
 Frc consts  --      2.9585                 0.7647                 1.1574
 IR Inten    --    144.5775                 3.2153                 1.7792

                     49                     50                     51
                      A                      A                      A
 Frequencies --   1022.0669              1035.1980              1100.6743
 Red. masses --      1.7147                 3.9925                 1.6668
 Frc consts  --      1.0554                 2.5208                 1.1898
 IR Inten    --     24.8653                81.2950                 2.1668

                     52                     53                     54
                      A                      A                      A
 Frequencies --   1116.7960              1119.5432              1154.4990
 Red. masses --      2.3362                 6.6172                 2.5393
 Frc consts  --      1.7168                 4.8866                 1.9941
 IR Inten    --     18.4300               212.3291                27.2133

                     55                     56                     57
                      A                      A                      A
 Frequencies --   1173.2774              1183.3320              1198.3110
 Red. masses --      1.5716                 1.8129                 1.6599
 Frc consts  --      1.2746                 1.4956                 1.4044
 IR Inten    --     47.4780                 3.8664                 3.3593

                     58                     59                     60
                      A                      A                      A
 Frequencies --   1206.7537              1219.8772              1259.9299
 Red. masses --      1.3743                 1.4936                 1.2412
 Frc consts  --      1.1791                 1.3095                 1.1609
 IR Inten    --      5.7655                10.8473                 7.0620

                     61                     62                     63
                      A                      A                      A
 Frequencies --   1280.3352              1296.6244              1310.2889
 Red. masses --      1.2664                 1.4124                 3.7773
 Frc consts  --      1.2232                 1.3991                 3.8209
 IR Inten    --      6.7708                15.7015               259.6390

                     64                     65                     66
                      A                      A                      A
 Frequencies --   1325.9076              1340.8750              1350.2993
 Red. masses --      1.2371                 1.4350                 3.4312
 Frc consts  --      1.2814                 1.5202                 3.6860
 IR Inten    --      1.2194                 0.9694                14.0495

                     67                     68                     69
                      A                      A                      A
 Frequencies --   1360.0659              1378.4216              1389.2904
 Red. masses --      1.3106                 2.2139                 1.5779
 Frc consts  --      1.4284                 2.4784                 1.7944
 IR Inten    --      0.8025               138.6733                54.1827

                     70                     71                     72
                      A                      A                      A
 Frequencies --   1402.7793              1411.0397              1417.4388
 Red. masses --      8.6036                 1.4057                 1.9491
 Frc consts  --      9.9749                 1.6490                 2.3072
 IR Inten    --    230.2620                20.5345                21.0446

                     73                     74                     75
                      A                      A                      A
 Frequencies --   1436.8100              1458.6453              1518.1074
 Red. masses --      1.4364                 3.3535                 1.1171
 Frc consts  --      1.7472                 4.2038                 1.5169
 IR Inten    --      2.7019                 3.7457                10.0768

                     76                     77                     78
                      A                      A                      A
 Frequencies --   1520.6542              1532.4382              1547.0874
 Red. masses --      1.1445                 1.1364                 2.4361
 Frc consts  --      1.5594                 1.5723                 3.4353
 IR Inten    --     43.0578                17.5423                94.2829

                     79                     80                     81
                      A                      A                      A
 Frequencies --   1557.4719              1602.4550              1632.4457
 Red. masses --      1.1059                 7.3027                10.2914
 Frc consts  --      1.5805                11.0485                16.1585
 IR Inten    --      0.2156                12.8171               157.3258

                     82                     83                     84
                      A                      A                      A
 Frequencies --   1661.6699              1676.6301              1719.5617
 Red. masses --      1.2514                 6.4376                 4.7994
 Frc consts  --      2.0358                10.6622                 8.3612
 IR Inten    --     87.1335               162.1408                55.8400

                     85                     86                     87
                      A                      A                      A
 Frequencies --   3008.3618              3053.5140              3066.1846
 Red. masses --      1.0719                 1.0818                 1.0665
 Frc consts  --      5.7159                 5.9431                 5.9076
 IR Inten    --     90.8412                21.8616                 8.0445

                     88                     89                     90
                      A                      A                      A
 Frequencies --   3073.1807              3077.3148              3106.0147
 Red. masses --      1.0661                 1.0663                 1.0933
 Frc consts  --      5.9324                 5.9495                 6.2146
 IR Inten    --      8.2898                55.5062                39.0030

                     91                     92                     93
                      A                      A                      A
 Frequencies --   3120.3583              3128.9917              3162.4503
 Red. masses --      1.0991                 1.1052                 1.1018
 Frc consts  --      6.3053                 6.3753                 6.4924
 IR Inten    --     13.4324                50.4772                12.9000

                     94                     95                     96
                      A                      A                      A
 Frequencies --   3216.2193              3230.4248              3284.5713
 Red. masses --      1.0882                 1.0944                 1.0910
 Frc consts  --      6.6323                 6.7290                 6.9346
 IR Inten    --      2.7641                 2.5563                 7.2809

                     97                     98                     99
                      A                      A                      A
 Frequencies --   3507.2872              3611.0483              3767.4434
 Red. masses --      1.0480                 1.0965                 1.0678
 Frc consts  --      7.5955                 8.4240                 8.9300
 IR Inten    --     10.4059                 8.5546                84.3291

 - Thermochemistry -
 -------------------
 Temperature   298.150 Kelvin.  Pressure   1.00000 Atm.
 Atom     1 has atomic number  6 and mass  12.00000

 Molecular mass:   281.10117 amu.
 Principal axes and moments of inertia in atomic units:
                           1         2         3
     Eigenvalues --  2880.67844********************
           X            0.99997   0.00572  -0.00467
           Y           -0.00576   0.99995  -0.00841
           Z            0.00462   0.00844   0.99995
 This molecule is an asymmetric top.
 Rotational symmetry number  1.
 Warning -- assumption of classical behavior for rotation
           may cause significant error
 Rotational temperatures (Kelvin)      0.03007     0.00838     0.00735
 Rotational constants (GHZ):           0.62650     0.17459     0.15312
 Zero-point vibrational energy     730003.0 (Joules/Mol)
                                  174.47490 (Kcal/Mol)
 Warning -- explicit consideration of  28 degrees of freedom as
           vibrations may cause significant error
 Vibrational temperatures:     27.09    40.27    57.63    63.01    93.69
          (Kelvin)            115.31   155.56   199.43   213.73   247.45
                              291.91   349.38   367.33   381.65   394.24
                              416.33   487.09   526.41   554.71   573.64
                              589.99   596.19   635.64   684.80   749.18
                              796.22   845.71   871.25   909.84   950.47
                              982.65  1028.69  1046.20  1080.43  1127.05
                             1172.43  1188.12  1205.03  1245.74  1275.33
                             1301.13  1324.03  1347.86  1366.74  1377.95
                             1421.97  1431.72  1452.57  1470.53  1489.42
                             1583.62  1606.82  1610.77  1661.07  1688.08
                             1702.55  1724.10  1736.25  1755.13  1812.76
                             1842.12  1865.55  1885.21  1907.69  1929.22
                             1942.78  1956.83  1983.24  1998.88  2018.29
                             2030.17  2039.38  2067.25  2098.67  2184.22
                             2187.88  2204.84  2225.91  2240.85  2305.58
                             2348.73  2390.77  2412.30  2474.07  4328.36
                             4393.33  4411.56  4421.62  4427.57  4468.86
                             4489.50  4501.92  4550.06  4627.42  4647.86
                             4725.77  5046.20  5195.49  5420.51

 Zero-point correction=                           0.278043 (Hartree/Particle)
 Thermal correction to Energy=                    0.296512
 Thermal correction to Enthalpy=                  0.297456
 Thermal correction to Gibbs Free Energy=         0.228859
 Sum of electronic and zero-point Energies=          -1006.284584
 Sum of electronic and thermal Energies=             -1006.266115
 Sum of electronic and thermal Enthalpies=           -1006.265171
 Sum of electronic and thermal Free Energies=        -1006.333768

                     E (Thermal)             CV                S
                      KCal/Mol        Cal/Mol-Kelvin    Cal/Mol-Kelvin
 Total                  186.064             69.284            144.374
 Electronic               0.000              0.000              0.000
 Translational            0.889              2.981             42.799
 Rotational               0.889              2.981             34.217
 Vibrational            184.287             63.322             67.359
 Vibration     1          0.593              1.986              6.754
 Vibration     2          0.593              1.984              5.967
 Vibration     3          0.594              1.981              5.256
 Vibration     4          0.595              1.980              5.080
 Vibration     5          0.597              1.971              4.296
 Vibration     6          0.600              1.963              3.887
 Vibration     7          0.606              1.943              3.302
 Vibration     8          0.614              1.915              2.823
 Vibration     9          0.618              1.904              2.691
 Vibration    10          0.626              1.877              2.414
 Vibration    11          0.639              1.836              2.107
 Vibration    12          0.659              1.775              1.782
 Vibration    13          0.666              1.754              1.694
 Vibration    14          0.671              1.737              1.627
 Vibration    15          0.676              1.721              1.571
 Vibration    16          0.686              1.694              1.478
 Vibration    17          0.719              1.598              1.219
 Vibration    18          0.739              1.542              1.097
 Vibration    19          0.754              1.501              1.017
 Vibration    20          0.765              1.473              0.967
 Vibration    21          0.774              1.448              0.926
 Vibration    22          0.778              1.439              0.911
 Vibration    23          0.802              1.379              0.821
 Vibration    24          0.833              1.303              0.721
 Vibration    25          0.876              1.204              0.608
 Vibration    26          0.909              1.132              0.537
 Vibration    27          0.945              1.058              0.471
 Vibration    28          0.964              1.020              0.440

                           ! Non-Optimized Parameters !
 Normal termination of Gaussian 16 at Mon Dec 14 13:59:15 2020.

 ----------------------------------------------------------------------
 # B3LYP/6-311++G(d,p) empiricaldispersion=gd3bj scf=xqc pop=npa geom=c
 heck
 ----------------------------------------------------------------------

 ---------------------------------------
 CID_76922479_JID_10221_Energie_neutraal
 ---------------------------------------
 Structure from the checkpoint file:  "JID_10221.chk"
 Charge =  0 Multiplicity = 1

 SCF Done:  E(RB3LYP) =  -1006.86164166     A.U. after   17 cycles
 Normal termination of Gaussian 16 at Mon Dec 14 14:07:36 2020.

 ----------------------------------------------------------------------
 # B3LYP/6-311++G(d,p) empiricaldispersion=gd3bj scf=xqc pop=npa geom=c
 heck
 ----------------------------------------------------------------------

 -------------------------------------
 CID_76922479_JID_10221_Energie_kation
 -------------------------------------
 Structure from the checkpoint file:  "JID_10221.chk"
 Charge =  1 Multiplicity = 2

 SCF Done:  E(UB3LYP) =  -1006.56521979     A.U. after   29 cycles
 Normal termination of Gaussian 16 at Mon Dec 14 14:27:04 2020.
 Gaussian 16:  ES64L-G16RevA.03 25-Dec-2016

 ----------------------------------------------------------------------
 # B3LYP/6-311++G(d,p) empiricaldispersion=gd3bj scf=xqc pop=npa geom=c
 heck
 ----------------------------------------------------------------------

 ------------------------------------
 CID_76922479_JID_10221_Energie_anion
 ------------------------------------
 Structure from the checkpoint file:  "JID_10221.chk"
 Charge = -1 Multiplicity = 2

                         Standard orientation:
 ---------------------------------------------------------------------
 Center     Atomic      Atomic             Coordinates (Angstroms)
 Number     Number       Type             X           Y           Z
 ---------------------------------------------------------------------
      1          6           0       -3.807264   -1.450847    1.485340
      2          6           0       -3.251030   -1.681495    0.072342
      3          6           0       -3.538879   -0.338067   -0.621260
      4          8           0       -4.626328    0.267247    0.089782
      5          6           0       -5.016248   -0.563616    1.187322
      6          6           0       -2.369399    0.640819   -0.555599
      7          8           0       -1.344794    0.148266   -1.439773
      8          6           0       -0.081834   -0.025638   -1.000539
      9          6           0        0.658597    0.867412   -0.197594
     10          6           0        1.939765    0.551792    0.252181
     11          6           0        2.549241   -0.646345   -0.123002
     12          6           0        1.833243   -1.523323   -0.959011
     13          6           0        0.547802   -1.220401   -1.379333
     14          6           0        3.896526   -1.030165    0.357964
     15          7           0        4.902819   -0.271065    0.631341
     16          8           0        4.674506    1.086184    0.308225
     17          7           0        4.121752   -2.410644    0.469757
     18          7           0        0.170466    2.208608    0.132453
     19          8           0       -0.554185    2.770531   -0.689727
     20          8           0        0.547873    2.710121    1.191498
     21          1           0       -4.073012   -2.376946    2.003115
     22          1           0       -3.082565   -0.910776    2.105516
     23          1           0       -3.798117   -2.489738   -0.424890
     24          1           0       -2.187803   -1.937559    0.053656
     25          1           0       -3.823164   -0.473837   -1.671899
     26          1           0       -5.888702   -1.172602    0.904100
     27          1           0       -5.305411    0.087112    2.018115
     28          1           0       -2.676392    1.635688   -0.879535
     29          1           0       -1.990756    0.706700    0.470348
     30          1           0        2.459471    1.267365    0.871835
     31          1           0        2.300142   -2.451336   -1.270472
     32          1           0       -0.017238   -1.904883   -2.002937
     33          1           0        5.523423    1.486753    0.548599
     34          1           0        3.406748   -2.893753    1.006085
     35          1           0        5.048418   -2.600012    0.840609
 ---------------------------------------------------------------------

 SCF Done:  E(UB3LYP) =  -1006.89776591     A.U. after   25 cycles

 The electronic state is 2-A.
 Alpha  occ. eigenvalues --  -19.05013 -19.03256 -19.02436 -18.94466 -18.94463
 Alpha  occ. eigenvalues --  -14.32216 -14.23401 -14.22440 -10.13514 -10.13298
 Alpha  occ. eigenvalues --  -10.12420 -10.10625 -10.10313 -10.09205 -10.08462
 Alpha  occ. eigenvalues --  -10.06940 -10.05894 -10.04634 -10.04632 -10.04236
 Alpha  occ. eigenvalues --   -1.02686  -0.96737  -0.95228  -0.94131  -0.85448
 Alpha  occ. eigenvalues --   -0.83605  -0.73627  -0.71475  -0.70314  -0.67723
 Alpha  occ. eigenvalues --   -0.64801  -0.63106  -0.58002  -0.53784  -0.51904
 Alpha  occ. eigenvalues --   -0.50869  -0.48485  -0.47016  -0.45795  -0.42652
 Alpha  occ. eigenvalues --   -0.41547  -0.40947  -0.40431  -0.38422  -0.37828
 Alpha  occ. eigenvalues --   -0.36189  -0.35713  -0.35387  -0.34218  -0.33721
 Alpha  occ. eigenvalues --   -0.33084  -0.32724  -0.31963  -0.31081  -0.30475
 Alpha  occ. eigenvalues --   -0.29426  -0.28041  -0.27289  -0.27044  -0.25848
 Alpha  occ. eigenvalues --   -0.24882  -0.24155  -0.23425  -0.22674  -0.21497
 Alpha  occ. eigenvalues --   -0.18932  -0.17105  -0.16793  -0.14020  -0.13590
 Alpha  occ. eigenvalues --   -0.13068  -0.12082  -0.10553  -0.09821   0.02818
 Alpha virt. eigenvalues --    0.06074   0.07160   0.08177   0.08305   0.08588
 Alpha virt. eigenvalues --    0.08783   0.09619   0.10537   0.11057   0.11498
 Alpha virt. eigenvalues --    0.12001   0.12421   0.12618   0.13255   0.13750

  Beta  occ. eigenvalues --  -19.05010 -19.03252 -19.02381 -18.93989 -18.93960
  Beta  occ. eigenvalues --  -14.31563 -14.23390 -14.22439 -10.13513 -10.13283
  Beta  occ. eigenvalues --  -10.12418 -10.10403 -10.10289 -10.09205 -10.08460
  Beta  occ. eigenvalues --  -10.06894 -10.05946 -10.04703 -10.04541 -10.03923
  Beta  occ. eigenvalues --   -1.01612  -0.96728  -0.95196  -0.93996  -0.84526
  Beta  occ. eigenvalues --   -0.83595  -0.73374  -0.71442  -0.70306  -0.67668
  Beta  occ. eigenvalues --   -0.64255  -0.62946  -0.57903  -0.52990  -0.51878
  Beta  occ. eigenvalues --   -0.50671  -0.48351  -0.46896  -0.45633  -0.42573
  Beta  occ. eigenvalues --   -0.41344  -0.40887  -0.40224  -0.38268  -0.37724
  Beta  occ. eigenvalues --   -0.35828  -0.35277  -0.34911  -0.34111  -0.33032
  Beta  occ. eigenvalues --   -0.32633  -0.32051  -0.31042  -0.30845  -0.30142
  Beta  occ. eigenvalues --   -0.29333  -0.27786  -0.27255  -0.26923  -0.25774
  Beta  occ. eigenvalues --   -0.24558  -0.24056  -0.23350  -0.22593  -0.21166
  Beta  occ. eigenvalues --   -0.18683  -0.17076  -0.16684  -0.13017  -0.12903
  Beta  occ. eigenvalues --   -0.11678  -0.10269  -0.10144  -0.09087
  Beta virt. eigenvalues --    0.06037   0.07136   0.08192   0.08499   0.08550
  Beta virt. eigenvalues --    0.08769   0.09540   0.09937   0.10520   0.11059
  Beta virt. eigenvalues --    0.11555   0.12359   0.12520   0.13213   0.13617

 Mulliken charges and spin densities:
               1          2
     1  C   -0.226539  -0.021923
     2  C   -0.186651  -0.018877
     3  C   -0.762418   0.134896
     4  O   -0.101775  -0.002358
     5  C   -0.240562  -0.009285
     6  C    0.077445  -0.123615
     7  O   -0.067093   0.013989
     8  C    0.037523   0.170118
     9  C    0.052341   0.019308
    10  C   -0.349751   0.053834
    11  C    1.011266  -0.033307
    12  C   -1.041822   0.256534
    13  C   -0.264655  -0.063964
    14  C   -0.262870  -0.021307
    15  N   -0.296745   0.006167
    16  O   -0.117090   0.001926
    17  N   -0.335567   0.001914
    18  N   -0.291459   0.209248
    19  O   -0.116041   0.187155
    20  O   -0.154250   0.182605
    21  H    0.139052  -0.000388
    22  H    0.154381   0.001169
    23  H    0.125695   0.012254
    24  H    0.154197  -0.004593
    25  H    0.173593   0.012432
    26  H    0.118108   0.000306
    27  H    0.144951   0.003694
    28  H    0.254060  -0.003944
    29  H    0.089251   0.041022
    30  H    0.239526  -0.001374
    31  H    0.157166  -0.012650
    32  H    0.142566   0.005859
    33  H    0.255318   0.003763
    34  H    0.225226  -0.000191
    35  H    0.263627  -0.000417
 Sum of Mulliken charges =  -1.00000   1.00000

 Dipole moment (field-independent basis, Debye):
    X=             -2.5771    Y=             -9.2667    Z=              1.9210  Tot=              9.8083
 Quadrupole moment (field-independent basis, Debye-Ang):
   XX=           -147.7204   YY=           -147.2909   ZZ=           -129.2142
   XY=              9.1784   XZ=             -1.3889   YZ=             -5.7571

 Summary of Natural Population Analysis:

                                       Natural Population
                Natural  -----------------------------------------------
    Atom  No    Charge         Core      Valence    Rydberg      Total
 -----------------------------------------------------------------------
      C    1   -0.20816      0.99965     2.20218    0.00634     3.20816
      C    2   -0.20642      0.99963     2.19939    0.00741     3.20642
      C    3    0.06009      0.99957     1.92747    0.01287     2.93991
      O    4   -0.30603      0.99989     3.29605    0.01009     4.30603
      C    5   -0.00858      0.99961     1.99833    0.01063     3.00858
      C    6   -0.01434      0.99953     2.00297    0.01185     3.01434
      O    7   -0.27870      0.99984     3.26778    0.01107     4.27870
      C    8    0.20895      0.99934     1.77842    0.01328     2.79105
      C    9    0.01717      0.99937     1.96936    0.01410     2.98283
      C   10   -0.04991      0.99950     2.04196    0.00845     3.04991
      C   11   -0.09361      0.99947     2.08516    0.00898     3.09361
      C   12   -0.02932      0.99955     2.02133    0.00845     3.02932
      C   13   -0.14599      0.99954     2.13730    0.00916     3.14599
      C   14    0.19874      0.99958     1.78141    0.02026     2.80126
      N   15   -0.14092      0.99958     2.62521    0.01612     3.64092
      O   16   -0.28490      0.99990     3.27748    0.00753     4.28490
      N   17   -0.40274      0.99973     2.89466    0.00835     3.90274
      N   18    0.30692      0.99971     2.16604    0.02732     3.19308
      O   19   -0.19125      0.99990     3.18242    0.00894     4.19125
      O   20   -0.19351      0.99990     3.18595    0.00766     4.19351
      H   21    0.09864      0.00000     0.40028    0.00108     0.40136
      H   22    0.10165      0.00000     0.39711    0.00124     0.39835
      H   23    0.09395      0.00000     0.40495    0.00111     0.40605
      H   24    0.11445      0.00000     0.38449    0.00107     0.38555
      H   25    0.08681      0.00000     0.41203    0.00116     0.41319
      H   26    0.07208      0.00000     0.42644    0.00148     0.42792
      H   27    0.08766      0.00000     0.41115    0.00119     0.41234
      H   28    0.10627      0.00000     0.39269    0.00104     0.39373
      H   29    0.08772      0.00000     0.40982    0.00246     0.41228
      H   30    0.12444      0.00000     0.37429    0.00127     0.37556
      H   31    0.09668      0.00000     0.40209    0.00123     0.40332
      H   32    0.09808      0.00000     0.40032    0.00160     0.40192
      H   33    0.22838      0.00000     0.26904    0.00258     0.27162
      H   34    0.18259      0.00000     0.31565    0.00176     0.31741
      H   35    0.18312      0.00000     0.31502    0.00186     0.31688
 =======================================================================
   * Total *    0.00000     19.99278    53.75625    0.25098    74.00000

 Normal termination of Gaussian 16 at Mon Dec 14 14:43:21 2020.
