 Gaussian 16, Revision A.03,

 -----------------------------------------------------------
 # opt freq B3LYP/6-31G(d) empiricaldispersion=gd3bj scf=xqc
 -----------------------------------------------------------

 ------------------------------
 CID_53402273_JID_4455_neutraal
 ------------------------------
 Symbolic Z-matrix:
 Charge =  0 Multiplicity = 1

 SCF Done:  E(RB3LYP) =  -650.618504568     A.U. after   13 cycles
 SCF Done:  E(RB3LYP) =  -650.626809336     A.U. after   12 cycles
 SCF Done:  E(RB3LYP) =  -650.628334154     A.U. after   11 cycles
 SCF Done:  E(RB3LYP) =  -650.628976391     A.U. after   11 cycles
 SCF Done:  E(RB3LYP) =  -650.630207198     A.U. after   12 cycles
 SCF Done:  E(RB3LYP) =  -650.631176379     A.U. after   14 cycles
 SCF Done:  E(RB3LYP) =  -650.634300638     A.U. after   11 cycles
 SCF Done:  E(RB3LYP) =  -650.636817929     A.U. after   11 cycles
 SCF Done:  E(RB3LYP) =  -650.637600718     A.U. after   11 cycles
 SCF Done:  E(RB3LYP) =  -650.637688838     A.U. after   11 cycles
 SCF Done:  E(RB3LYP) =  -650.637832372     A.U. after    8 cycles
 SCF Done:  E(RB3LYP) =  -650.637832721     A.U. after   10 cycles
 SCF Done:  E(RB3LYP) =  -650.637832821     A.U. after    9 cycles
 SCF Done:  E(RB3LYP) =  -650.637832836     A.U. after    8 cycles
 Optimization completed.
    -- Stationary point found.
 Normal termination of Gaussian 16 at Thu Dec 10 09:56:56 2020.

 --------------------------------------------------------------------
 #N Geom=AllCheck Guess=TCheck SCRF=Check GenChk RB3LYP/6-31G(d) Freq
 --------------------------------------------------------------------

 Structure from the checkpoint file:  "JID_4455.chk"
 ------------------------------
 CID_53402273_JID_4455_neutraal
 ------------------------------
 Charge =  0 Multiplicity = 1

 SCF Done:  E(RB3LYP) =  -650.637832836     A.U. after    1 cycles

  Exact polarizability: 153.727  -4.493 140.089   5.576  -0.174  85.583
 Approx polarizability: 214.936  -6.251 219.514   8.509  -0.638 120.007

                      1                      2                      3
                      A                      A                      A
 Frequencies --     10.6437                66.2738                90.4128
 Red. masses --      3.8366                 3.3839                 3.3272
 Frc consts  --      0.0003                 0.0088                 0.0160
 IR Inten    --      0.4102                 2.6353                 1.4523

                      4                      5                      6
                      A                      A                      A
 Frequencies --    100.5396               136.6274               168.1070
 Red. masses --      3.5768                 3.3442                 2.3206
 Frc consts  --      0.0213                 0.0368                 0.0386
 IR Inten    --      4.4645                 0.2725                 6.3221

                      7                      8                      9
                      A                      A                      A
 Frequencies --    186.4584               212.0318               219.3399
 Red. masses --      3.5271                 1.8958                 1.7427
 Frc consts  --      0.0722                 0.0502                 0.0494
 IR Inten    --      2.2367                 0.8117                 0.6860

                     10                     11                     12
                      A                      A                      A
 Frequencies --    227.9068               241.5508               282.3497
 Red. masses --      2.0407                 1.2682                 1.8787
 Frc consts  --      0.0625                 0.0436                 0.0882
 IR Inten    --      1.1069                 0.7836                 0.0642

                     13                     14                     15
                      A                      A                      A
 Frequencies --    284.7803               307.1048               309.9611
 Red. masses --      1.6621                 2.4644                 2.8282
 Frc consts  --      0.0794                 0.1369                 0.1601
 IR Inten    --      1.1323                 2.0979                 1.4920

                     16                     17                     18
                      A                      A                      A
 Frequencies --    356.2260               402.9316               456.1437
 Red. masses --      1.4123                 3.4600                 4.5381
 Frc consts  --      0.1056                 0.3310                 0.5563
 IR Inten    --     36.3227                 1.9174                 6.4285

                     19                     20                     21
                      A                      A                      A
 Frequencies --    485.2032               496.9800               548.8389
 Red. masses --      4.5084                 3.9653                 5.2038
 Frc consts  --      0.6253                 0.5770                 0.9235
 IR Inten    --      4.6891                 2.0688                 8.6315

                     22                     23                     24
                      A                      A                      A
 Frequencies --    627.3005               630.0121               636.8919
 Red. masses --      3.7114                 4.2330                 3.5333
 Frc consts  --      0.8605                 0.9899                 0.8444
 IR Inten    --      1.6332                 0.7555                 2.2639

                     25                     26                     27
                      A                      A                      A
 Frequencies --    659.7114               710.6007               772.1785
 Red. masses --      2.9584                 2.2529                 2.3531
 Frc consts  --      0.7586                 0.6703                 0.8267
 IR Inten    --      7.8986                15.0444               159.0360

                     28                     29                     30
                      A                      A                      A
 Frequencies --    825.0624               840.7283               859.2761
 Red. masses --      1.4862                 1.5777                 1.4198
 Frc consts  --      0.5961                 0.6570                 0.6176
 IR Inten    --      7.6339                35.6453                12.2958

                     31                     32                     33
                      A                      A                      A
 Frequencies --    908.0012               952.6706               962.5450
 Red. masses --      2.2376                 1.5826                 4.7125
 Frc consts  --      1.0870                 0.8463                 2.5724
 IR Inten    --      6.9765                24.2092                23.9936

                     34                     35                     36
                      A                      A                      A
 Frequencies --    986.5364              1015.1656              1055.8922
 Red. masses --      1.7780                 6.1577                 2.3881
 Frc consts  --      1.0195                 3.7389                 1.5687
 IR Inten    --     68.2724                 1.4169                18.3856

                     37                     38                     39
                      A                      A                      A
 Frequencies --   1095.7352              1104.0504              1115.6252
 Red. masses --      2.9454                 3.0100                 2.1241
 Frc consts  --      2.0836                 2.1617                 1.5576
 IR Inten    --     34.3061                29.0434                40.3282

                     40                     41                     42
                      A                      A                      A
 Frequencies --   1157.2212              1186.1240              1186.6326
 Red. masses --      2.0691                 1.8567                 1.2737
 Frc consts  --      1.6325                 1.5391                 1.0567
 IR Inten    --     28.2569                18.0635                 0.0257

                     43                     44                     45
                      A                      A                      A
 Frequencies --   1186.9795              1203.8922              1222.2388
 Red. masses --      1.2714                 1.6615                 1.4942
 Frc consts  --      1.0554                 1.4188                 1.3151
 IR Inten    --      1.2662               144.9503                 0.8320

                     46                     47                     48
                      A                      A                      A
 Frequencies --   1230.2366              1249.2639              1295.3385
 Red. masses --      2.0455                 2.1233                 1.5020
 Frc consts  --      1.8240                 1.9524                 1.4849
 IR Inten    --      3.0157               266.3324                 6.5055

                     49                     50                     51
                      A                      A                      A
 Frequencies --   1328.2986              1346.0720              1350.7670
 Red. masses --      1.2145                 3.8211                 1.4521
 Frc consts  --      1.2625                 4.0792                 1.5610
 IR Inten    --      2.1114                99.0692                 7.2280

                     52                     53                     54
                      A                      A                      A
 Frequencies --   1382.6574              1407.1556              1429.5394
 Red. masses --      1.3600                 4.6218                 1.2617
 Frc consts  --      1.5318                 5.3919                 1.5191
 IR Inten    --      3.8761                88.0868                 9.0422

                     55                     56                     57
                      A                      A                      A
 Frequencies --   1486.5843              1499.2804              1511.8100
 Red. masses --      1.3981                 1.5377                 1.0880
 Frc consts  --      1.8204                 2.0365                 1.4651
 IR Inten    --     81.0324                11.1948                 2.1790

                     58                     59                     60
                      A                      A                      A
 Frequencies --   1519.8536              1520.3780              1520.4752
 Red. masses --      1.7968                 1.0484                 1.0487
 Frc consts  --      2.4454                 1.4279                 1.4284
 IR Inten    --     53.8981                 2.1718                10.0606

                     61                     62                     63
                      A                      A                      A
 Frequencies --   1523.5983              1524.5422              1535.0244
 Red. masses --      1.6230                 1.1765                 1.0891
 Frc consts  --      2.2198                 1.6111                 1.5120
 IR Inten    --     22.3625                 7.6495                21.3264

                     64                     65                     66
                      A                      A                      A
 Frequencies --   1538.2700              1540.1621              1655.8344
 Red. masses --      1.1020                 1.2120                 5.7217
 Frc consts  --      1.5364                 1.6939                 9.2429
 IR Inten    --     18.8911                 7.3101               179.6258

                     67                     68                     69
                      A                      A                      A
 Frequencies --   1666.4031              1716.2491              3027.2818
 Red. masses --      6.1653                 1.0693                 1.0346
 Frc consts  --     10.0870                 1.8557                 5.5865
 IR Inten    --    170.9930                13.9278                47.7516

                     70                     71                     72
                      A                      A                      A
 Frequencies --   3028.0108              3035.8990              3052.1139
 Red. masses --      1.0345                 1.0841                 1.0380
 Frc consts  --      5.5886                 5.8868                 5.6970
 IR Inten    --     50.2543                23.7988                22.8758

                     73                     74                     75
                      A                      A                      A
 Frequencies --   3086.5332              3087.2204              3120.0196
 Red. masses --      1.1066                 1.1066                 1.0985
 Frc consts  --      6.2115                 6.2143                 6.3003
 IR Inten    --     29.9542                51.3764                31.9011

                     76                     77                     78
                      A                      A                      A
 Frequencies --   3142.5193              3159.5884              3159.8922
 Red. masses --      1.1039                 1.1000                 1.1001
 Frc consts  --      6.4230                 6.4699                 6.4717
 IR Inten    --     23.6585                31.4647                23.5499

                     79                     80                     81
                      A                      A                      A
 Frequencies --   3204.9620              3221.7329              3245.9044
 Red. masses --      1.0904                 1.0884                 1.0901
 Frc consts  --      6.5992                 6.6562                 6.7666
 IR Inten    --      4.6560                 7.0231                 2.6713

                     82                     83                     84
                      A                      A                      A
 Frequencies --   3384.1185              3491.6527              3521.4667
 Red. masses --      1.0539                 1.0753                 1.0861
 Frc consts  --      7.1114                 7.7243                 7.9350
 IR Inten    --     11.7114                 2.0905                 0.3310

 - Thermochemistry -
 -------------------
 Temperature   298.150 Kelvin.  Pressure   1.00000 Atm.
 Atom     1 has atomic number  6 and mass  12.00000

 Molecular mass:   196.12118 amu.
 Principal axes and moments of inertia in atomic units:
                           1         2         3
     Eigenvalues --  2314.953613730.191065141.07452
           X            0.99989  -0.00838   0.01232
           Y            0.00837   0.99996   0.00100
           Z           -0.01232  -0.00090   0.99992
 This molecule is an asymmetric top.
 Rotational symmetry number  1.
 Warning -- assumption of classical behavior for rotation
           may cause significant error
 Rotational temperatures (Kelvin)      0.03741     0.02322     0.01685
 Rotational constants (GHZ):           0.77960     0.48382     0.35104
 Zero-point vibrational energy     677314.8 (Joules/Mol)
                                  161.88213 (Kcal/Mol)
 Warning -- explicit consideration of  21 degrees of freedom as
           vibrations may cause significant error
 Vibrational temperatures:     15.31    95.35   130.08   144.65   196.58
          (Kelvin)            241.87   268.27   305.07   315.58   327.91
                              347.54   406.24   409.74   441.86   445.96
                              512.53   579.73   656.29   698.10   715.04
                              789.66   902.55   906.45   916.35   949.18
                             1022.40  1110.99  1187.08  1209.62  1236.31
                             1306.41  1370.68  1384.89  1419.41  1460.60
                             1519.19  1576.52  1588.48  1605.14  1664.98
                             1706.57  1707.30  1707.80  1732.13  1758.53
                             1770.04  1797.41  1863.70  1911.13  1936.70
                             1943.45  1989.34  2024.58  2056.79  2138.86
                             2157.13  2175.16  2186.73  2187.48  2187.62
                             2192.12  2193.48  2208.56  2213.23  2215.95
                             2382.38  2397.58  2469.30  4355.58  4356.63
                             4367.98  4391.31  4440.83  4441.82  4489.01
                             4521.38  4545.94  4546.38  4611.23  4635.36
                             4670.13  4868.99  5023.71  5066.61

 Zero-point correction=                           0.257976 (Hartree/Particle)
 Thermal correction to Energy=                    0.272766
 Thermal correction to Enthalpy=                  0.273710
 Thermal correction to Gibbs Free Energy=         0.215296
 Sum of electronic and zero-point Energies=           -650.379857
 Sum of electronic and thermal Energies=              -650.365067
 Sum of electronic and thermal Enthalpies=            -650.364123
 Sum of electronic and thermal Free Energies=         -650.422537

                     E (Thermal)             CV                S
                      KCal/Mol        Cal/Mol-Kelvin    Cal/Mol-Kelvin
 Total                  171.163             55.145            122.943
 Electronic               0.000              0.000              0.000
 Translational            0.889              2.981             41.726
 Rotational               0.889              2.981             32.162
 Vibrational            169.386             49.183             49.055
 Vibration     1          0.593              1.987              7.887
 Vibration     2          0.598              1.970              4.261
 Vibration     3          0.602              1.956              3.651
 Vibration     4          0.604              1.949              3.444
 Vibration     5          0.614              1.917              2.851
 Vibration     6          0.625              1.882              2.457
 Vibration     7          0.632              1.858              2.263
 Vibration     8          0.643              1.823              2.026
 Vibration     9          0.647              1.812              1.965
 Vibration    10          0.651              1.798              1.895
 Vibration    11          0.658              1.777              1.791
 Vibration    12          0.681              1.706              1.519
 Vibration    13          0.683              1.702              1.505
 Vibration    14          0.697              1.660              1.378
 Vibration    15          0.699              1.655              1.363
 Vibration    16          0.732              1.562              1.139
 Vibration    17          0.768              1.464              0.952
 Vibration    18          0.814              1.347              0.777
 Vibration    19          0.841              1.283              0.696
 Vibration    20          0.853              1.257              0.666
 Vibration    21          0.904              1.142              0.547

 Optimization completed.
    -- Stationary point found.
 Normal termination of Gaussian 16 at Thu Dec 10 10:05:00 2020.

 ----------------------------------------------------------------------
 # B3LYP/6-311++G(d,p) empiricaldispersion=gd3bj scf=xqc pop=npa geom=c
 heck
 ----------------------------------------------------------------------

 --------------------------------------
 CID_53402273_JID_4455_Energie_neutraal
 --------------------------------------
 Structure from the checkpoint file:  "JID_4455.chk"
 Charge =  0 Multiplicity = 1

 SCF Done:  E(RB3LYP) =  -650.831175638     A.U. after   15 cycles
 Normal termination of Gaussian 16 at Thu Dec 10 10:08:13 2020.

 ----------------------------------------------------------------------
 # B3LYP/6-311++G(d,p) empiricaldispersion=gd3bj scf=xqc pop=npa geom=c
 heck
 ----------------------------------------------------------------------

 ------------------------------------
 CID_53402273_JID_4455_Energie_kation
 ------------------------------------
 Structure from the checkpoint file:  "JID_4455.chk"
 Charge =  1 Multiplicity = 2

 SCF Done:  E(UB3LYP) =  -650.540769311     A.U. after   33 cycles
 SCF Done:  E(UB3LYP) =  -650.540769311     a.u. after    1 cycles
 Normal termination of Gaussian 16 at Thu Dec 10 10:17:50 2020.
 Gaussian 16:  ES64L-G16RevA.03 25-Dec-2016

 ----------------------------------------------------------------------
 # B3LYP/6-311++G(d,p) empiricaldispersion=gd3bj scf=xqc pop=npa geom=c
 heck
 ----------------------------------------------------------------------

 -----------------------------------
 CID_53402273_JID_4455_Energie_anion
 -----------------------------------
 Structure from the checkpoint file:  "JID_4455.chk"
 Charge = -1 Multiplicity = 2

                         Standard orientation:
 ---------------------------------------------------------------------
 Center     Atomic      Atomic             Coordinates (Angstroms)
 Number     Number       Type             X           Y           Z
 ---------------------------------------------------------------------
      1          6           0       -2.663861   -0.915440   -1.800812
      2          6           0       -2.138199   -1.119070   -0.376012
      3          6           0       -0.725743   -0.557117   -0.222991
      4          6           0        0.361071   -1.415591   -0.135713
      5          6           0        1.663098   -0.898505   -0.023144
      6          6           0        1.871119    0.476921    0.016370
      7          6           0        0.765466    1.339586   -0.059378
      8          6           0       -0.527698    0.834012   -0.179333
      9          8           0        1.072511    2.668284   -0.003912
     10          6           0        0.003029    3.597680   -0.058404
     11          8           0        2.659815   -1.826072    0.049474
     12          6           0        3.992968   -1.358354    0.171377
     13          7           0       -3.122218   -0.568324    0.564893
     14          7           0       -2.731041   -0.578299    1.939098
     15          1           0       -2.719540    0.152742   -2.044209
     16          1           0       -3.665249   -1.345706   -1.898984
     17          1           0       -1.996133   -1.385868   -2.528406
     18          1           0       -2.086738   -2.197561   -0.174671
     19          1           0        0.229386   -2.492944   -0.157624
     20          1           0        2.854777    0.917937    0.110914
     21          1           0       -1.382622    1.497369   -0.231651
     22          1           0       -0.552982    3.515742   -1.001566
     23          1           0       -0.691054    3.461009    0.781024
     24          1           0        0.460975    4.586027    0.006944
     25          1           0        4.283685   -0.745004   -0.691423
     26          1           0        4.130901   -0.773349    1.090054
     27          1           0        4.621304   -2.249660    0.211073
     28          1           0       -3.324541    0.400472    0.326978
     29          1           0       -2.938007   -1.509256    2.296412
     30          1           0       -1.717453   -0.448003    2.020946
 ---------------------------------------------------------------------

 SCF Done:  E(UB3LYP) =  -650.817477515     A.U. after   33 cycles
 SCF Done:  E(UB3LYP) =  -650.817477515     a.u. after    1 cycles

 The electronic state is 2-A.
 Alpha  occ. eigenvalues --  -19.06329 -19.06018 -14.23540 -14.23106 -10.14570
 Alpha  occ. eigenvalues --  -10.14554 -10.12778 -10.12347 -10.11788 -10.09276
 Alpha  occ. eigenvalues --  -10.07608 -10.07540 -10.07395 -10.07393  -0.97965
 Alpha  occ. eigenvalues --   -0.97603  -0.87711  -0.76709  -0.72011  -0.67135
 Alpha  occ. eigenvalues --   -0.66161  -0.62383  -0.60922  -0.60230  -0.54489
 Alpha  occ. eigenvalues --   -0.50357  -0.48917  -0.45031  -0.42227  -0.41019
 Alpha  occ. eigenvalues --   -0.39789  -0.39670  -0.38436  -0.38049  -0.37533
 Alpha  occ. eigenvalues --   -0.37239  -0.34902  -0.34325  -0.32130  -0.30694
 Alpha  occ. eigenvalues --   -0.30107  -0.29320  -0.29095  -0.27532  -0.26520
 Alpha  occ. eigenvalues --   -0.25401  -0.24850  -0.24095  -0.20916  -0.17080
 Alpha  occ. eigenvalues --   -0.15662  -0.14278  -0.12856   0.04208
 Alpha virt. eigenvalues --    0.05692   0.06621   0.07409   0.07954   0.08436
 Alpha virt. eigenvalues --    0.08657   0.09354   0.09495   0.09901   0.10203
 Alpha virt. eigenvalues --    0.10437   0.11338   0.12019   0.12322   0.12902

  Beta  occ. eigenvalues --  -19.06321 -19.06008 -14.23528 -14.23098 -10.14571
  Beta  occ. eigenvalues --  -10.14555 -10.12729 -10.12293 -10.11783 -10.09277
  Beta  occ. eigenvalues --  -10.07587 -10.07530 -10.07392 -10.07374  -0.97948
  Beta  occ. eigenvalues --   -0.97585  -0.87697  -0.76699  -0.71994  -0.67109
  Beta  occ. eigenvalues --   -0.66135  -0.62345  -0.60859  -0.60175  -0.54453
  Beta  occ. eigenvalues --   -0.50319  -0.48878  -0.44994  -0.42205  -0.40990
  Beta  occ. eigenvalues --   -0.39759  -0.39646  -0.38412  -0.38020  -0.37505
  Beta  occ. eigenvalues --   -0.37205  -0.34860  -0.34287  -0.32089  -0.30670
  Beta  occ. eigenvalues --   -0.30086  -0.29295  -0.29070  -0.27505  -0.26490
  Beta  occ. eigenvalues --   -0.25374  -0.24811  -0.24059  -0.20898  -0.17068
  Beta  occ. eigenvalues --   -0.15649  -0.14268  -0.12843
  Beta virt. eigenvalues --    0.06275   0.06971   0.07137   0.07673   0.08003
  Beta virt. eigenvalues --    0.08956   0.09163   0.09499   0.09729   0.10325
  Beta virt. eigenvalues --    0.10571   0.11096   0.11580   0.12189   0.12675

 Mulliken charges and spin densities:
               1          2
     1  C    0.166290  -0.782183
     2  C   -0.474080  -0.212179
     3  C    1.714917  -0.188140
     4  C   -1.480313   0.742233
     5  C   -0.608205   0.098853
     6  C    0.755092  -0.658313
     7  C   -1.105067   0.381194
     8  C    0.661097  -0.413959
     9  O   -0.213008   0.067406
    10  C    0.825564  -1.195868
    11  O   -0.205677   0.056293
    12  C    1.033935  -1.370223
    13  N    0.102447  -0.076649
    14  N   -0.685651   0.124877
    15  H   -0.274810   0.435958
    16  H    0.034442   0.114031
    17  H    0.016518   0.132334
    18  H    0.073207   0.095641
    19  H    0.057496   0.114772
    20  H    0.039814   0.177330
    21  H    0.741148  -0.554028
    22  H   -0.451954   0.621652
    23  H   -0.261719   0.426821
    24  H   -0.716159   0.895352
    25  H   -0.248132   0.407565
    26  H   -0.225985   0.384760
    27  H   -0.705975   0.889263
    28  H    0.011869   0.231529
    29  H    0.195696   0.043612
    30  H    0.227202   0.010067
 Sum of Mulliken charges =  -1.00000   1.00000

 Dipole moment (field-independent basis, Debye):
    X=             -3.2763    Y=             -4.2558    Z=              0.5208  Tot=              5.3961
 Quadrupole moment (field-independent basis, Debye-Ang):
   XX=           -166.2356   YY=           -148.0187   ZZ=           -117.6725
   XY=             14.7170   XZ=             -1.1404   YZ=              1.4624

 Summary of Natural Population Analysis:

                                       Natural Population
                Natural  -----------------------------------------------
    Atom  No    Charge         Core      Valence    Rydberg      Total
 -----------------------------------------------------------------------
      C    1   -0.28636      0.99964     2.28000    0.00672     3.28636
      C    2   -0.01996      0.99956     2.00709    0.01331     3.01996
      C    3   -0.01337      0.99951     2.00254    0.01133     3.01337
      C    4   -0.13609      0.99946     2.12742    0.00920     3.13609
      C    5    0.17172      0.99939     1.81462    0.01428     2.82828
      C    6   -0.16555      0.99947     2.15739    0.00869     3.16555
      C    7    0.17686      0.99940     1.80986    0.01389     2.82314
      C    8   -0.16677      0.99945     2.15800    0.00932     3.16677
      O    9   -0.27160      0.99986     3.26130    0.01044     4.27160
      C   10   -0.10059      0.99960     2.09185    0.00914     3.10059
      O   11   -0.27230      0.99986     3.26218    0.01027     4.27230
      C   12   -0.10100      0.99960     2.09225    0.00915     3.10100
      N   13   -0.25189      0.99974     2.73741    0.01473     3.75189
      N   14   -0.32447      0.99978     2.81365    0.01104     3.82447
      H   15    0.10115      0.00000     0.39756    0.00129     0.39885
      H   16    0.10203      0.00000     0.39689    0.00108     0.39797
      H   17    0.10398      0.00000     0.39520    0.00083     0.39602
      H   18    0.09136      0.00000     0.40679    0.00185     0.40864
      H   19    0.10435      0.00000     0.39378    0.00187     0.39565
      H   20    0.11302      0.00000     0.38517    0.00181     0.38698
      H   21    0.10660      0.00000     0.39102    0.00239     0.39340
      H   22    0.08725      0.00000     0.41026    0.00250     0.41275
      H   23    0.08544      0.00000     0.41272    0.00184     0.41456
      H   24    0.09572      0.00000     0.40256    0.00172     0.40428
      H   25    0.08596      0.00000     0.41225    0.00179     0.41404
      H   26    0.08561      0.00000     0.41259    0.00180     0.41439
      H   27    0.09593      0.00000     0.40225    0.00182     0.40407
      H   28    0.16847      0.00000     0.32803    0.00351     0.33153
      H   29    0.16675      0.00000     0.33119    0.00206     0.33325
      H   30    0.16775      0.00000     0.33016    0.00209     0.33225
 =======================================================================
   * Total *   -0.00000     13.99432    38.82396    0.18172    53.00000

 Normal termination of Gaussian 16 at Thu Dec 10 10:28:08 2020.
