 Gaussian 16, Revision A.03,

 -----------------------------------------------------------
 # opt freq B3LYP/6-31G(d) empiricaldispersion=gd3bj scf=xqc
 -----------------------------------------------------------

 ------------------------------
 CID_82366046_JID_6369_neutraal
 ------------------------------
 Symbolic Z-matrix:
 Charge =  0 Multiplicity = 1

 SCF Done:  E(RB3LYP) =  -1067.30014202     A.U. after   15 cycles
 SCF Done:  E(RB3LYP) =  -1067.31079749     A.U. after   13 cycles
 SCF Done:  E(RB3LYP) =  -1067.31301403     A.U. after   12 cycles
 SCF Done:  E(RB3LYP) =  -1067.31412685     A.U. after   12 cycles
 SCF Done:  E(RB3LYP) =  -1067.31434461     A.U. after   12 cycles
 SCF Done:  E(RB3LYP) =  -1067.31441142     A.U. after   11 cycles
 SCF Done:  E(RB3LYP) =  -1067.31443292     A.U. after    9 cycles
 SCF Done:  E(RB3LYP) =  -1067.31444837     A.U. after   10 cycles
 SCF Done:  E(RB3LYP) =  -1067.31445960     A.U. after   10 cycles
 SCF Done:  E(RB3LYP) =  -1067.31446772     A.U. after   10 cycles
 SCF Done:  E(RB3LYP) =  -1067.31452917     A.U. after    8 cycles
 SCF Done:  E(RB3LYP) =  -1067.31453022     A.U. after   10 cycles
 SCF Done:  E(RB3LYP) =  -1067.31453133     A.U. after    9 cycles
 SCF Done:  E(RB3LYP) =  -1067.31453164     A.U. after    8 cycles
 SCF Done:  E(RB3LYP) =  -1067.31453170     A.U. after    7 cycles
 Optimization completed.
    -- Stationary point found.
 Normal termination of Gaussian 16 at Thu Dec 10 22:39:19 2020.

 --------------------------------------------------------------------
 #N Geom=AllCheck Guess=TCheck SCRF=Check GenChk RB3LYP/6-31G(d) Freq
 --------------------------------------------------------------------

 Structure from the checkpoint file:  "JID_6369.chk"
 ------------------------------
 CID_82366046_JID_6369_neutraal
 ------------------------------
 Charge =  0 Multiplicity = 1

 SCF Done:  E(RB3LYP) =  -1067.31453170     A.U. after    1 cycles

  Exact polarizability: 244.152  -2.444 152.592   4.014   1.690  79.811
 Approx polarizability: 346.442 -10.398 270.307   9.537   9.611 128.205

                      1                      2                      3
                      A                      A                      A
 Frequencies --     47.4940                60.7488                86.8457
 Red. masses --      4.3667                 4.8321                 4.1691
 Frc consts  --      0.0058                 0.0105                 0.0185
 IR Inten    --      1.8982                 0.8588                 1.5032

                      4                      5                      6
                      A                      A                      A
 Frequencies --     90.5748               126.0929               153.7535
 Red. masses --      2.9324                 1.2428                 2.5750
 Frc consts  --      0.0142                 0.0116                 0.0359
 IR Inten    --      6.2181                 0.8456                 6.8724

                      7                      8                      9
                      A                      A                      A
 Frequencies --    194.7699               233.0229               239.4768
 Red. masses --      5.7393                 4.9378                 4.3788
 Frc consts  --      0.1283                 0.1580                 0.1480
 IR Inten    --      1.0106                 1.3136                 8.3009

                     10                     11                     12
                      A                      A                      A
 Frequencies --    259.5787               285.1858               300.3138
 Red. masses --      4.1171                 1.3545                 4.7658
 Frc consts  --      0.1634                 0.0649                 0.2532
 IR Inten    --      0.6426                48.8593                 0.1374

                     13                     14                     15
                      A                      A                      A
 Frequencies --    330.7278               370.2224               416.8655
 Red. masses --      4.0015                 5.2036                 4.3840
 Frc consts  --      0.2579                 0.4202                 0.4489
 IR Inten    --      4.4397                 4.6791                 2.1893

                     16                     17                     18
                      A                      A                      A
 Frequencies --    437.6152               472.3257               504.9920
 Red. masses --      3.5489                 5.0986                 5.1126
 Frc consts  --      0.4004                 0.6702                 0.7682
 IR Inten    --      5.3403                 5.9487                 2.1602

                     19                     20                     21
                      A                      A                      A
 Frequencies --    506.3666               580.7757               608.4713
 Red. masses --      4.7400                 6.8837                 5.7076
 Frc consts  --      0.7161                 1.3680                 1.2450
 IR Inten    --     19.8525                10.2218                 3.5088

                     22                     23                     24
                      A                      A                      A
 Frequencies --    652.4852               666.3809               683.3385
 Red. masses --      5.8199                 4.2305                 5.4284
 Frc consts  --      1.4598                 1.1068                 1.4935
 IR Inten    --     16.8470                 9.4531                 3.1928

                     25                     26                     27
                      A                      A                      A
 Frequencies --    711.1311               736.0791               739.6931
 Red. masses --      5.4675                 5.1252                 5.1780
 Frc consts  --      1.6291                 1.6361                 1.6692
 IR Inten    --     19.7673                26.0222                43.4106

                     28                     29                     30
                      A                      A                      A
 Frequencies --    762.9057               815.9410               833.3602
 Red. masses --      1.7168                 5.9190                 3.3022
 Frc consts  --      0.5887                 2.3218                 1.3512
 IR Inten    --    158.5016                31.7462                19.9984

                     31                     32                     33
                      A                      A                      A
 Frequencies --    839.8886               848.7237               879.3777
 Red. masses --      1.5359                 1.4309                 1.4058
 Frc consts  --      0.6384                 0.6073                 0.6405
 IR Inten    --     33.8369                 6.1388                13.6978

                     34                     35                     36
                      A                      A                      A
 Frequencies --    934.6392               941.7763               976.2459
 Red. masses --      2.7138                 1.3998                 9.0144
 Frc consts  --      1.3967                 0.7315                 5.0618
 IR Inten    --     11.3807                 2.7789                39.3397

                     37                     38                     39
                      A                      A                      A
 Frequencies --   1016.1536              1064.2294              1074.1484
 Red. masses --      1.7039                 1.7581                 1.3867
 Frc consts  --      1.0366                 1.1732                 0.9427
 IR Inten    --      2.1050                 3.5575                 3.0777

                     40                     41                     42
                      A                      A                      A
 Frequencies --   1076.4645              1132.3017              1153.9795
 Red. masses --      4.8851                 2.3788                 1.5498
 Frc consts  --      3.3352                 1.7969                 1.2160
 IR Inten    --    135.0439                12.3822                10.0855

                     43                     44                     45
                      A                      A                      A
 Frequencies --   1158.9041              1186.4549              1215.2067
 Red. masses --      2.1572                 2.1050                 1.1019
 Frc consts  --      1.7070                 1.7459                 0.9587
 IR Inten    --     25.2678                 5.0346                 0.5675

                     46                     47                     48
                      A                      A                      A
 Frequencies --   1220.0305              1261.1492              1295.4310
 Red. masses --      1.9838                 2.0313                 2.5860
 Frc consts  --      1.7397                 1.9035                 2.5569
 IR Inten    --      4.4704               106.3016                53.3593

                     49                     50                     51
                      A                      A                      A
 Frequencies --   1297.4513              1303.4219              1373.3734
 Red. masses --      2.6367                 1.7324                 3.7985
 Frc consts  --      2.6152                 1.7340                 4.2212
 IR Inten    --    191.4348                46.5047                12.9868

                     52                     53                     54
                      A                      A                      A
 Frequencies --   1432.7574              1446.9818              1448.7638
 Red. masses --      3.3528                 1.4194                 1.4112
 Frc consts  --      4.0552                 1.7510                 1.7452
 IR Inten    --     16.0887                 9.8772                 2.9323

                     55                     56                     57
                      A                      A                      A
 Frequencies --   1486.2635              1506.0609              1523.6471
 Red. masses --      3.9864                 1.0426                 1.1172
 Frc consts  --      5.1882                 1.3933                 1.5281
 IR Inten    --     75.9621                 6.4627                12.1574

                     58                     59                     60
                      A                      A                      A
 Frequencies --   1540.4125              1574.3241              1578.4859
 Red. masses --      3.1616                 1.1601                 4.9076
 Frc consts  --      4.4201                 1.6941                 7.2044
 IR Inten    --    315.7962                 0.1511                77.0800

                     61                     62                     63
                      A                      A                      A
 Frequencies --   1639.6758              1663.6154              1679.4030
 Red. masses --      5.6705                 7.2865                 7.5884
 Frc consts  --      8.9822                11.8815                12.6099
 IR Inten    --      7.6875                14.3698                 2.8904

                     64                     65                     66
                      A                      A                      A
 Frequencies --   1682.6414              3027.4159              3036.8748
 Red. masses --      1.1844                 1.0667                 1.0368
 Frc consts  --      1.9757                 5.7604                 5.6339
 IR Inten    --     88.2496               156.8066                59.6633

                     67                     68                     69
                      A                      A                      A
 Frequencies --   3084.8706              3119.8160              3123.5439
 Red. masses --      1.1019                 1.1045                 1.0999
 Frc consts  --      6.1781                 6.3341                 6.3226
 IR Inten    --     21.1592                57.8243                13.2635

                     70                     71                     72
                      A                      A                      A
 Frequencies --   3205.9996              3208.0491              3226.9839
 Red. masses --      1.0923                 1.0887                 1.0936
 Frc consts  --      6.6146                 6.6012                 6.7099
 IR Inten    --      6.9038                 3.6766                 9.2418

                     73                     74                     75
                      A                      A                      A
 Frequencies --   3229.0203              3499.8622              3600.3719
 Red. masses --      1.0919                 1.0482                 1.0968
 Frc consts  --      6.7079                 7.5647                 8.3764
 IR Inten    --      0.6700                11.2846                16.7151

 - Thermochemistry -
 -------------------
 Temperature   298.150 Kelvin.  Pressure   1.00000 Atm.
 Atom     1 has atomic number  6 and mass  12.00000

 Molecular mass:   233.05105 amu.
 Principal axes and moments of inertia in atomic units:
                           1         2         3
     Eigenvalues --  1464.623117699.176978856.27584
           X            0.99994   0.01126  -0.00135
           Y           -0.01127   0.99987  -0.01147
           Z            0.00122   0.01149   0.99993
 This molecule is an asymmetric top.
 Rotational symmetry number  1.
 Warning -- assumption of classical behavior for rotation
           may cause significant error
 Rotational temperatures (Kelvin)      0.05914     0.01125     0.00978
 Rotational constants (GHZ):           1.23222     0.23441     0.20378
 Zero-point vibrational energy     548623.7 (Joules/Mol)
                                  131.12422 (Kcal/Mol)
 Warning -- explicit consideration of  21 degrees of freedom as
           vibrations may cause significant error
 Vibrational temperatures:     68.33    87.40   124.95   130.32   181.42
          (Kelvin)            221.22   280.23   335.27   344.55   373.48
                              410.32   432.08   475.84   532.67   599.78
                              629.63   679.57   726.57   728.55   835.61
                              875.45   938.78   958.77   983.17  1023.16
                             1059.05  1064.25  1097.65  1173.96  1199.02
                             1208.41  1221.12  1265.23  1344.74  1355.01
                             1404.60  1462.02  1531.19  1545.46  1548.79
                             1629.13  1660.32  1667.40  1707.04  1748.41
                             1755.35  1814.51  1863.84  1866.74  1875.33
                             1975.98  2061.42  2081.88  2084.45  2138.40
                             2166.89  2192.19  2216.31  2265.10  2271.09
                             2359.13  2393.57  2416.29  2420.95  4355.78
                             4369.39  4438.44  4488.72  4494.08  4612.72
                             4615.67  4642.91  4645.84  5035.52  5180.13

 Zero-point correction=                           0.208960 (Hartree/Particle)
 Thermal correction to Energy=                    0.223077
 Thermal correction to Enthalpy=                  0.224021
 Thermal correction to Gibbs Free Energy=         0.167403
 Sum of electronic and zero-point Energies=          -1067.105572
 Sum of electronic and thermal Energies=             -1067.091455
 Sum of electronic and thermal Enthalpies=           -1067.090510
 Sum of electronic and thermal Free Energies=        -1067.147129

                     E (Thermal)             CV                S
                      KCal/Mol        Cal/Mol-Kelvin    Cal/Mol-Kelvin
 Total                  139.983             54.139            119.164
 Electronic               0.000              0.000              0.000
 Translational            0.889              2.981             42.240
 Rotational               0.889              2.981             32.968
 Vibrational            138.205             48.178             43.956
 Vibration     1          0.595              1.979              4.919
 Vibration     2          0.597              1.973              4.433
 Vibration     3          0.601              1.958              3.730
 Vibration     4          0.602              1.956              3.648
 Vibration     5          0.611              1.927              3.005
 Vibration     6          0.619              1.898              2.625
 Vibration     7          0.635              1.847              2.182
 Vibration     8          0.654              1.790              1.856
 Vibration     9          0.657              1.780              1.807
 Vibration    10          0.668              1.747              1.665
 Vibration    11          0.683              1.701              1.502
 Vibration    12          0.693              1.673              1.415
 Vibration    13          0.713              1.614              1.257
 Vibration    14          0.742              1.533              1.079
 Vibration    15          0.780              1.434              0.903
 Vibration    16          0.798              1.388              0.834
 Vibration    17          0.829              1.311              0.731
 Vibration    18          0.860              1.239              0.646
 Vibration    19          0.862              1.236              0.642
 Vibration    20          0.937              1.073              0.484
 Vibration    21          0.967              1.014              0.435

 Optimization completed.
    -- Stationary point found.
 Normal termination of Gaussian 16 at Thu Dec 10 22:47:45 2020.

 ----------------------------------------------------------------------
 # B3LYP/6-311++G(d,p) empiricaldispersion=gd3bj scf=xqc pop=npa geom=c
 heck
 ----------------------------------------------------------------------

 --------------------------------------
 CID_82366046_JID_6369_Energie_neutraal
 --------------------------------------
 Structure from the checkpoint file:  "JID_6369.chk"
 Charge =  0 Multiplicity = 1

 SCF Done:  E(RB3LYP) =  -1067.52384136     A.U. after   17 cycles
 Normal termination of Gaussian 16 at Thu Dec 10 22:51:47 2020.

 ----------------------------------------------------------------------
 # B3LYP/6-311++G(d,p) empiricaldispersion=gd3bj scf=xqc pop=npa geom=c
 heck
 ----------------------------------------------------------------------

 ------------------------------------
 CID_82366046_JID_6369_Energie_kation
 ------------------------------------
 Structure from the checkpoint file:  "JID_6369.chk"
 Charge =  1 Multiplicity = 2

 SCF Done:  E(UB3LYP) =  -1067.27481185     A.U. after   23 cycles
 Normal termination of Gaussian 16 at Thu Dec 10 23:00:55 2020.
 Gaussian 16:  ES64L-G16RevA.03 25-Dec-2016

 ----------------------------------------------------------------------
 # B3LYP/6-311++G(d,p) empiricaldispersion=gd3bj scf=xqc pop=npa geom=c
 heck
 ----------------------------------------------------------------------

 -----------------------------------
 CID_82366046_JID_6369_Energie_anion
 -----------------------------------
 Structure from the checkpoint file:  "JID_6369.chk"
 Charge = -1 Multiplicity = 2

                         Standard orientation:
 ---------------------------------------------------------------------
 Center     Atomic      Atomic             Coordinates (Angstroms)
 Number     Number       Type             X           Y           Z
 ---------------------------------------------------------------------
      1          6           0       -4.256243   -2.170821    0.393153
      2          6           0       -3.233907   -1.096887    0.193335
      3          6           0       -1.882087   -1.158852    0.332477
      4          6           0       -1.181236    0.076527    0.085588
      5          6           0       -2.054360    1.088198   -0.258997
      6         16           0       -3.719527    0.538694   -0.252682
      7          7           0       -1.773624    2.423381   -0.556632
      8          6           0        0.283510    0.218556    0.147026
      9          6           0        1.104339   -0.838578   -0.321645
     10          6           0        2.468596   -0.673922   -0.240596
     11          6           0        3.049836    0.487107    0.267248
     12          6           0        2.280997    1.533720    0.729345
     13          6           0        0.884461    1.376632    0.668781
     14          8           0        4.420804    0.391082    0.190349
     15          6           0        4.686383   -0.956569   -0.212705
     16          8           0        3.455135   -1.538077   -0.656100
     17          1           0       -4.962084   -1.926871    1.197166
     18          1           0       -3.754091   -3.105596    0.662075
     19          1           0       -4.844790   -2.355766   -0.514445
     20          1           0       -1.370170   -2.068496    0.630475
     21          1           0       -0.800678    2.550367   -0.822071
     22          1           0       -2.385166    2.818303   -1.264018
     23          1           0        0.671641   -1.736236   -0.748020
     24          1           0        2.734237    2.430900    1.136209
     25          1           0        0.253678    2.156627    1.082360
     26          1           0        5.404160   -0.954567   -1.037251
     27          1           0        5.071813   -1.526148    0.644801
 ---------------------------------------------------------------------

 SCF Done:  E(UB3LYP) =  -1067.50817021     A.U. after   33 cycles
 SCF Done:  E(UB3LYP) =  -1067.50817021     a.u. after    1 cycles

 The electronic state is 2-A.
 Alpha  occ. eigenvalues --  -88.76498 -19.07185 -19.07060 -14.22271 -10.19095
 Alpha  occ. eigenvalues --  -10.13700 -10.13243 -10.12546 -10.09510 -10.08767
 Alpha  occ. eigenvalues --  -10.08430 -10.08245 -10.07645 -10.07600 -10.06909
 Alpha  occ. eigenvalues --  -10.06817  -7.85118  -5.81424  -5.81073  -5.80670
 Alpha  occ. eigenvalues --   -1.03326  -0.94221  -0.82803  -0.76807  -0.75528
 Alpha  occ. eigenvalues --   -0.68433  -0.66047  -0.65040  -0.62263  -0.58645
 Alpha  occ. eigenvalues --   -0.56248  -0.52890  -0.52357  -0.46077  -0.45618
 Alpha  occ. eigenvalues --   -0.42903  -0.42589  -0.42131  -0.40747  -0.39141
 Alpha  occ. eigenvalues --   -0.36217  -0.35195  -0.34594  -0.33509  -0.32970
 Alpha  occ. eigenvalues --   -0.31930  -0.30227  -0.29890  -0.29202  -0.28793
 Alpha  occ. eigenvalues --   -0.27573  -0.27371  -0.26146  -0.25518  -0.23530
 Alpha  occ. eigenvalues --   -0.22407  -0.20654  -0.16436  -0.14452  -0.11900
 Alpha  occ. eigenvalues --   -0.08795   0.04619
 Alpha virt. eigenvalues --    0.05738   0.05972   0.07280   0.08131   0.08476
 Alpha virt. eigenvalues --    0.08738   0.08963   0.09257   0.10245   0.11023
 Alpha virt. eigenvalues --    0.11235   0.11456   0.11668   0.12496   0.12905

  Beta  occ. eigenvalues --  -88.76493 -19.07187 -19.07048 -14.22207 -10.19046
  Beta  occ. eigenvalues --  -10.13716 -10.13186 -10.12427 -10.09470 -10.08742
  Beta  occ. eigenvalues --  -10.08407 -10.08206 -10.07657 -10.07521 -10.06904
  Beta  occ. eigenvalues --  -10.06830  -7.85113  -5.81411  -5.81073  -5.80659
  Beta  occ. eigenvalues --   -1.03303  -0.94204  -0.82670  -0.76729  -0.75450
  Beta  occ. eigenvalues --   -0.68351  -0.65967  -0.64948  -0.62189  -0.58563
  Beta  occ. eigenvalues --   -0.56151  -0.52831  -0.52255  -0.45974  -0.45525
  Beta  occ. eigenvalues --   -0.42849  -0.42518  -0.42050  -0.40659  -0.39047
  Beta  occ. eigenvalues --   -0.36151  -0.35142  -0.34525  -0.33431  -0.32924
  Beta  occ. eigenvalues --   -0.31887  -0.30089  -0.29809  -0.29175  -0.28686
  Beta  occ. eigenvalues --   -0.27477  -0.27279  -0.26068  -0.25470  -0.23408
  Beta  occ. eigenvalues --   -0.22282  -0.20533  -0.16214  -0.14255  -0.11763
  Beta  occ. eigenvalues --   -0.08534
  Beta virt. eigenvalues --    0.06346   0.07109   0.07431   0.07890   0.08315
  Beta virt. eigenvalues --    0.08832   0.08997   0.09313   0.09719   0.10301
  Beta virt. eigenvalues --    0.11106   0.11397   0.11571   0.11702   0.12548

 Mulliken charges and spin densities:
               1          2
     1  C    0.558300  -0.869319
     2  C   -0.390813   0.607516
     3  C   -0.137922  -0.088831
     4  C    0.790770  -0.952218
     5  C   -0.101711   0.135521
     6  S   -0.889924   0.383347
     7  N   -0.151838  -0.092068
     8  C    0.748146   0.155334
     9  C   -0.811595   0.126356
    10  C   -0.153274   0.183428
    11  C    0.068976   0.120937
    12  C   -0.374445  -0.088482
    13  C   -0.363241  -0.060722
    14  O   -0.231157   0.075663
    15  C    1.479448  -1.526577
    16  O   -0.223852   0.066864
    17  H   -0.173661   0.337502
    18  H   -0.076702   0.224436
    19  H    0.059629   0.086984
    20  H    0.136495  -0.006935
    21  H    0.211148   0.018163
    22  H   -0.412939   0.682565
    23  H    0.148213   0.028971
    24  H    0.162678   0.001602
    25  H    0.194625   0.000676
    26  H   -0.585114   0.777904
    27  H   -0.480240   0.671381
 Sum of Mulliken charges =  -1.00000   1.00000

 Dipole moment (field-independent basis, Debye):
    X=             -2.2759    Y=              0.1516    Z=              1.1482  Tot=              2.5537
 Quadrupole moment (field-independent basis, Debye-Ang):
   XX=           -213.2278   YY=           -135.9596   ZZ=           -126.4244
   XY=             18.6151   XZ=              4.1285   YZ=              7.3949

 Summary of Natural Population Analysis:

                                       Natural Population
                Natural  -----------------------------------------------
    Atom  No    Charge         Core      Valence    Rydberg      Total
 -----------------------------------------------------------------------
      C    1   -0.29733      0.99961     2.29129    0.00643     3.29733
      C    2   -0.10034      0.99950     2.08934    0.01151     3.10034
      C    3   -0.13178      0.99948     2.11595    0.01635     3.13178
      C    4   -0.03203      0.99941     2.02220    0.01042     3.03203
      C    5    0.02203      0.99950     1.95894    0.01954     2.97797
      S    6    0.18186      4.99940     2.79977    0.01897     7.81814
      N    7   -0.40312      0.99970     2.89120    0.01222     3.90312
      C    8   -0.03622      0.99955     2.02051    0.01616     3.03622
      C    9   -0.10815      0.99949     2.09934    0.00932     3.10815
      C   10    0.13221      0.99933     1.85502    0.01345     2.86779
      C   11    0.13370      0.99932     1.85336    0.01362     2.86630
      C   12   -0.11887      0.99953     2.11049    0.00885     3.11887
      C   13   -0.11731      0.99955     2.10757    0.01020     3.11731
      O   14   -0.27299      0.99987     3.26550    0.00761     4.27299
      C   15    0.15587      0.99963     1.82819    0.01631     2.84413
      O   16   -0.27334      0.99987     3.26571    0.00776     4.27334
      H   17    0.10420      0.00000     0.39415    0.00165     0.39580
      H   18    0.10527      0.00000     0.39391    0.00082     0.39473
      H   19    0.10090      0.00000     0.39805    0.00104     0.39910
      H   20    0.10324      0.00000     0.39558    0.00118     0.39676
      H   21    0.19078      0.00000     0.30754    0.00168     0.30922
      H   22    0.19023      0.00000     0.30180    0.00797     0.30977
      H   23    0.10650      0.00000     0.39213    0.00137     0.39350
      H   24    0.10393      0.00000     0.39525    0.00081     0.39607
      H   25    0.10483      0.00000     0.39385    0.00132     0.39517
      H   26    0.08289      0.00000     0.41386    0.00325     0.41711
      H   27    0.07445      0.00000     0.42218    0.00337     0.42555
 =======================================================================
   * Total *    0.00142     19.99273    40.78266    0.22319    60.99858

 Normal termination of Gaussian 16 at Thu Dec 10 23:10:56 2020.
