 Gaussian 16, Revision A.03,

 -----------------------------------------------------------
 # opt freq B3LYP/6-31G(d) empiricaldispersion=gd3bj scf=xqc
 -----------------------------------------------------------

 -------------------------------
 CID_145341918_JID_6242_neutraal
 -------------------------------
 Symbolic Z-matrix:
 Charge =  0 Multiplicity = 1

 SCF Done:  E(RB3LYP) =  -691.047991513     A.U. after   16 cycles
 SCF Done:  E(RB3LYP) =  -691.049979398     A.U. after   15 cycles
 SCF Done:  E(RB3LYP) =  -691.048488534     A.U. after   13 cycles
 SCF Done:  E(RB3LYP) =  -691.053906896     A.U. after   13 cycles
 SCF Done:  E(RB3LYP) =  -691.054961514     A.U. after   15 cycles
 SCF Done:  E(RB3LYP) =  -691.056373043     A.U. after   12 cycles
 SCF Done:  E(RB3LYP) =  -691.056229929     A.U. after   12 cycles
 SCF Done:  E(RB3LYP) =  -691.056634339     A.U. after   12 cycles
 SCF Done:  E(RB3LYP) =  -691.056695465     A.U. after   11 cycles
 SCF Done:  E(RB3LYP) =  -691.056772695     A.U. after   12 cycles
 SCF Done:  E(RB3LYP) =  -691.057212634     A.U. after    7 cycles
 SCF Done:  E(RB3LYP) =  -691.057212695     A.U. after    7 cycles
 SCF Done:  E(RB3LYP) =  -691.057212833     A.U. after    7 cycles
 SCF Done:  E(RB3LYP) =  -691.057212881     A.U. after    7 cycles
 SCF Done:  E(RB3LYP) =  -691.057212895     A.U. after    6 cycles
 Optimization completed.
    -- Stationary point found.
 Normal termination of Gaussian 16 at Thu Dec 10 22:32:47 2020.

 --------------------------------------------------------------------
 #N Geom=AllCheck Guess=TCheck SCRF=Check GenChk RB3LYP/6-31G(d) Freq
 --------------------------------------------------------------------

 Structure from the checkpoint file:  "JID_6242.chk"
 -------------------------------
 CID_145341918_JID_6242_neutraal
 -------------------------------
 Charge =  0 Multiplicity = 1

 SCF Done:  E(RB3LYP) =  -691.057212895     A.U. after    1 cycles

  Exact polarizability: 206.411  -4.573  97.358  -3.502   9.353 143.035
 Approx polarizability: 307.435 -10.778 133.178   4.079  21.987 268.680

                      1                      2                      3
                      A                      A                      A
 Frequencies --     25.2933                38.4382                50.8702
 Red. masses --      3.7843                 3.2194                 2.8942
 Frc consts  --      0.0014                 0.0028                 0.0044
 IR Inten    --      0.3073                 0.0531                 0.5518

                      4                      5                      6
                      A                      A                      A
 Frequencies --     61.7655                74.1602                85.4455
 Red. masses --      3.2432                 3.0024                 2.2378
 Frc consts  --      0.0073                 0.0097                 0.0096
 IR Inten    --      0.0240                 1.1799                 0.3592

                      7                      8                      9
                      A                      A                      A
 Frequencies --     96.7561               108.8855               111.6540
 Red. masses --      1.7905                 1.6657                 2.1597
 Frc consts  --      0.0099                 0.0116                 0.0159
 IR Inten    --      0.1252                 0.2254                 0.7774

                     10                     11                     12
                      A                      A                      A
 Frequencies --    137.4229               168.6953               236.6285
 Red. masses --      4.4120                 2.7162                 1.9381
 Frc consts  --      0.0491                 0.0455                 0.0639
 IR Inten    --      3.2832                 0.6483                 0.0922

                     13                     14                     15
                      A                      A                      A
 Frequencies --    240.0981               272.2838               308.6310
 Red. masses --      2.3791                 3.5011                 4.3382
 Frc consts  --      0.0808                 0.1529                 0.2435
 IR Inten    --      0.2290                 1.0160                 1.3578

                     16                     17                     18
                      A                      A                      A
 Frequencies --    331.1189               366.3326               411.4692
 Red. masses --      1.0097                 3.9918                 2.5522
 Frc consts  --      0.0652                 0.3156                 0.2546
 IR Inten    --      0.0346                 9.1153                 1.7089

                     19                     20                     21
                      A                      A                      A
 Frequencies --    437.7549               468.9252               507.3090
 Red. masses --      3.1569                 3.7685                 6.2230
 Frc consts  --      0.3564                 0.4882                 0.9436
 IR Inten    --      2.8402                 4.4208                 0.5545

                     22                     23                     24
                      A                      A                      A
 Frequencies --    528.4945               559.8171               608.1235
 Red. masses --      3.6226                 5.5191                 3.4500
 Frc consts  --      0.5961                 1.0191                 0.7517
 IR Inten    --      1.5574                 5.6698                 0.1411

                     25                     26                     27
                      A                      A                      A
 Frequencies --    622.8241               699.7774               709.1793
 Red. masses --      6.2185                 4.2786                 3.7142
 Frc consts  --      1.4212                 1.2344                 1.1006
 IR Inten    --      2.4652                 1.5369                20.1793

                     28                     29                     30
                      A                      A                      A
 Frequencies --    767.7285               793.2217               806.5294
 Red. masses --      2.8559                 1.5844                 2.8139
 Frc consts  --      0.9918                 0.5874                 1.0785
 IR Inten    --      2.2084                49.5944                 7.3141

                     31                     32                     33
                      A                      A                      A
 Frequencies --    815.7759               839.2139               842.8430
 Red. masses --      2.2701                 1.0558                 1.0589
 Frc consts  --      0.8901                 0.4381                 0.4432
 IR Inten    --     15.3530                 7.4972                 3.7295

                     34                     35                     36
                      A                      A                      A
 Frequencies --    874.7838               878.9576               900.4108
 Red. masses --      2.6123                 3.1714                 1.5092
 Frc consts  --      1.1778                 1.4436                 0.7209
 IR Inten    --      2.9424                 5.1898                 1.2648

                     37                     38                     39
                      A                      A                      A
 Frequencies --    925.2205               944.7094               978.0995
 Red. masses --      1.6927                 1.4281                 1.3536
 Frc consts  --      0.8537                 0.7509                 0.7629
 IR Inten    --     12.9129                 3.2646                 1.6898

                     40                     41                     42
                      A                      A                      A
 Frequencies --    983.6484               999.7202              1014.7976
 Red. masses --      3.7468                 1.2782                 3.2665
 Frc consts  --      2.1360                 0.7527                 1.9819
 IR Inten    --      1.3973                 0.0062                 0.0685

                     43                     44                     45
                      A                      A                      A
 Frequencies --   1054.8756              1067.5969              1111.6377
 Red. masses --      2.1233                 2.0413                 2.2068
 Frc consts  --      1.3921                 1.3708                 1.6067
 IR Inten    --      4.9497                 0.4722                11.0995

                     46                     47                     48
                      A                      A                      A
 Frequencies --   1133.0514              1139.2078              1181.6659
 Red. masses --      1.8874                 1.7671                 1.2676
 Frc consts  --      1.4276                 1.3512                 1.0429
 IR Inten    --      1.9757                17.7605                 6.1779

                     49                     50                     51
                      A                      A                      A
 Frequencies --   1209.4588              1235.0120              1238.6522
 Red. masses --      2.2775                 2.2890                 1.4577
 Frc consts  --      1.9628                 2.0570                 1.3177
 IR Inten    --     18.3761                 9.7671                 0.4365

                     52                     53                     54
                      A                      A                      A
 Frequencies --   1241.0540              1274.2336              1286.7827
 Red. masses --      1.4714                 1.9172                 2.2868
 Frc consts  --      1.3352                 1.8340                 2.2309
 IR Inten    --      1.0624                19.4586                20.5601

                     55                     56                     57
                      A                      A                      A
 Frequencies --   1318.9534              1324.1050              1374.1907
 Red. masses --      1.3692                 1.8503                 6.1128
 Frc consts  --      1.4033                 1.9113                 6.8012
 IR Inten    --      1.9823                38.6347                26.6233

                     58                     59                     60
                      A                      A                      A
 Frequencies --   1390.8130              1402.8744              1430.2127
 Red. masses --      1.8947                 1.3404                 1.4284
 Frc consts  --      2.1594                 1.5543                 1.7215
 IR Inten    --     28.5440                33.4281                34.4340

                     61                     62                     63
                      A                      A                      A
 Frequencies --   1432.4086              1447.3688              1453.3510
 Red. masses --      1.2096                 1.4456                 1.2698
 Frc consts  --      1.4622                 1.7843                 1.5803
 IR Inten    --      5.5421                 2.1454                 1.3679

                     64                     65                     66
                      A                      A                      A
 Frequencies --   1454.5906              1506.6539              1510.2424
 Red. masses --      1.3577                 1.4437                 1.3894
 Frc consts  --      1.6925                 1.9308                 1.8671
 IR Inten    --      2.1346                 3.9877                 2.4635

                     67                     68                     69
                      A                      A                      A
 Frequencies --   1512.0595              1521.0520              1526.9845
 Red. masses --      1.2056                 2.7466                 1.0645
 Frc consts  --      1.6240                 3.7440                 1.4624
 IR Inten    --      4.6088                56.9167                14.1585

                     70                     71                     72
                      A                      A                      A
 Frequencies --   1532.3937              1533.3315              1535.7873
 Red. masses --      1.0326                 1.0271                 1.0531
 Frc consts  --      1.4286                 1.4228                 1.4635
 IR Inten    --      0.8755                 0.8728                 0.8000

                     73                     74                     75
                      A                      A                      A
 Frequencies --   1538.1570              1542.2181              1616.5610
 Red. masses --      1.0669                 1.0509                 6.1834
 Frc consts  --      1.4873                 1.4727                 9.5206
 IR Inten    --      3.2947                13.2717                13.1543

                     76                     77                     78
                      A                      A                      A
 Frequencies --   1666.1102              1674.3619              1768.6706
 Red. masses --      6.6215                 6.5765                11.6850
 Frc consts  --     10.8296                10.8629                21.5365
 IR Inten    --    175.2913                71.9875               334.7222

                     79                     80                     81
                      A                      A                      A
 Frequencies --   3035.0015              3048.0538              3052.8204
 Red. masses --      1.0616                 1.0356                 1.0378
 Frc consts  --      5.7616                 5.6687                 5.6988
 IR Inten    --     25.8570                22.3102                38.1490

                     82                     83                     84
                      A                      A                      A
 Frequencies --   3065.5720              3069.6602              3080.7039
 Red. masses --      1.0471                 1.0858                 1.0731
 Frc consts  --      5.7976                 6.0283                 6.0004
 IR Inten    --     13.3353                24.0933                55.4564

                     85                     86                     87
                      A                      A                      A
 Frequencies --   3100.5652              3105.9658              3126.3325
 Red. masses --      1.1017                 1.1008                 1.1029
 Frc consts  --      6.2399                 6.2565                 6.3514
 IR Inten    --      4.3724                26.6961                41.1118

                     88                     89                     90
                      A                      A                      A
 Frequencies --   3130.6900              3142.5054              3153.9820
 Red. masses --      1.1022                 1.1004                 1.0996
 Frc consts  --      6.3649                 6.4024                 6.4445
 IR Inten    --     28.3687                40.2466                16.3127

                     91                     92                     93
                      A                      A                      A
 Frequencies --   3157.3513              3179.9753              3192.5761
 Red. masses --      1.0985                 1.0912                 1.0867
 Frc consts  --      6.4519                 6.5011                 6.5262
 IR Inten    --      9.9032                14.0108                 5.1566

                     94                     95                     96
                      A                      A                      A
 Frequencies --   3207.9143              3222.3077              3227.9652
 Red. masses --      1.0909                 1.0938                 1.0946
 Frc consts  --      6.6140                 6.6915                 6.7198
 IR Inten    --     14.9274                 8.6053                 8.2625

 - Thermochemistry -
 -------------------
 Temperature   298.150 Kelvin.  Pressure   1.00000 Atm.
 Atom     1 has atomic number  6 and mass  12.00000

 Molecular mass:   218.14191 amu.
 Principal axes and moments of inertia in atomic units:
                           1         2         3
     Eigenvalues --  2270.540514694.641605095.00515
           X            0.99997  -0.00696  -0.00341
           Y            0.00692   0.99988  -0.01390
           Z            0.00350   0.01387   0.99990
 This molecule is an asymmetric top.
 Rotational symmetry number  1.
 Warning -- assumption of classical behavior for rotation
           may cause significant error
 Rotational temperatures (Kelvin)      0.03815     0.01845     0.01700
 Rotational constants (GHZ):           0.79485     0.38443     0.35422
 Zero-point vibrational energy     766330.4 (Joules/Mol)
                                  183.15736 (Kcal/Mol)
 Warning -- explicit consideration of  24 degrees of freedom as
           vibrations may cause significant error
 Vibrational temperatures:     36.39    55.30    73.19    88.87   106.70
          (Kelvin)            122.94   139.21   156.66   160.65   197.72
                              242.71   340.46   345.45   391.76   444.05
                              476.41   527.07   592.01   629.83   674.68
                              729.90   760.39   805.45   874.95   896.10
                             1006.82  1020.35  1104.59  1141.27  1160.42
                             1173.72  1207.44  1212.66  1258.62  1264.62
                             1295.49  1331.19  1359.23  1407.27  1415.25
                             1438.37  1460.07  1517.73  1536.03  1599.40
                             1630.21  1639.07  1700.15  1740.14  1776.91
                             1782.14  1785.60  1833.34  1851.39  1897.68
                             1905.09  1977.15  2001.07  2018.42  2057.76
                             2060.92  2082.44  2091.05  2092.83  2167.74
                             2172.90  2175.52  2188.45  2196.99  2204.77
                             2206.12  2209.66  2213.06  2218.91  2325.87
                             2397.16  2409.03  2544.72  4366.69  4385.47
                             4392.33  4410.67  4416.56  4432.45  4461.02
                             4468.79  4498.10  4504.36  4521.36  4537.88
                             4542.72  4575.28  4593.40  4615.47  4636.18
                             4644.32

 Zero-point correction=                           0.291880 (Hartree/Particle)
 Thermal correction to Energy=                    0.308875
 Thermal correction to Enthalpy=                  0.309820
 Thermal correction to Gibbs Free Energy=         0.245198
 Sum of electronic and zero-point Energies=           -690.765333
 Sum of electronic and thermal Energies=              -690.748337
 Sum of electronic and thermal Enthalpies=            -690.747393
 Sum of electronic and thermal Free Energies=         -690.812014

                     E (Thermal)             CV                S
                      KCal/Mol        Cal/Mol-Kelvin    Cal/Mol-Kelvin
 Total                  193.822             61.261            136.007
 Electronic               0.000              0.000              0.000
 Translational            0.889              2.981             42.043
 Rotational               0.889              2.981             32.363
 Vibrational            192.045             55.299             61.601
 Vibration     1          0.593              1.985              6.168
 Vibration     2          0.594              1.982              5.338
 Vibration     3          0.595              1.977              4.783
 Vibration     4          0.597              1.973              4.400
 Vibration     5          0.599              1.966              4.040
 Vibration     6          0.601              1.959              3.762
 Vibration     7          0.603              1.951              3.519
 Vibration     8          0.606              1.942              3.289
 Vibration     9          0.607              1.940              3.240
 Vibration    10          0.614              1.916              2.839
 Vibration    11          0.625              1.881              2.450
 Vibration    12          0.656              1.785              1.828
 Vibration    13          0.657              1.779              1.802
 Vibration    14          0.675              1.724              1.582
 Vibration    15          0.698              1.657              1.370
 Vibration    16          0.713              1.613              1.255
 Vibration    17          0.739              1.542              1.095
 Vibration    18          0.775              1.445              0.921
 Vibration    19          0.798              1.388              0.834
 Vibration    20          0.826              1.319              0.741
 Vibration    21          0.863              1.234              0.640
 Vibration    22          0.883              1.187              0.591
 Vibration    23          0.915              1.118              0.524
 Vibration    24          0.967              1.015              0.436

                           ! Non-Optimized Parameters !
 Normal termination of Gaussian 16 at Thu Dec 10 22:45:20 2020.

 ----------------------------------------------------------------------
 # B3LYP/6-311++G(d,p) empiricaldispersion=gd3bj scf=xqc pop=npa geom=c
 heck
 ----------------------------------------------------------------------

 ---------------------------------------
 CID_145341918_JID_6242_Energie_neutraal
 ---------------------------------------
 Structure from the checkpoint file:  "JID_6242.chk"
 Charge =  0 Multiplicity = 1

 SCF Done:  E(RB3LYP) =  -691.242635664     A.U. after   16 cycles
 Normal termination of Gaussian 16 at Thu Dec 10 22:50:38 2020.

 ----------------------------------------------------------------------
 # B3LYP/6-311++G(d,p) empiricaldispersion=gd3bj scf=xqc pop=npa geom=c
 heck
 ----------------------------------------------------------------------

 -------------------------------------
 CID_145341918_JID_6242_Energie_kation
 -------------------------------------
 Structure from the checkpoint file:  "JID_6242.chk"
 Charge =  1 Multiplicity = 2

 SCF Done:  E(UB3LYP) =  -690.938266382     A.U. after   23 cycles
 Normal termination of Gaussian 16 at Thu Dec 10 23:01:02 2020.
 Gaussian 16:  ES64L-G16RevA.03 25-Dec-2016

 ----------------------------------------------------------------------
 # B3LYP/6-311++G(d,p) empiricaldispersion=gd3bj scf=xqc pop=npa geom=c
 heck
 ----------------------------------------------------------------------

 ------------------------------------
 CID_145341918_JID_6242_Energie_anion
 ------------------------------------
 Structure from the checkpoint file:  "JID_6242.chk"
 Charge = -1 Multiplicity = 2

                         Standard orientation:
 ---------------------------------------------------------------------
 Center     Atomic      Atomic             Coordinates (Angstroms)
 Number     Number       Type             X           Y           Z
 ---------------------------------------------------------------------
      1          6           0       -0.236540    2.622186   -0.371582
      2          6           0       -1.728359    2.924278   -0.518208
      3          6           0        3.291918    1.391139    0.499274
      4          6           0        3.640504    0.191234   -0.382638
      5          6           0        2.872805   -1.085325   -0.025967
      6          7           0        1.419826   -0.969555   -0.227974
      7          6           0        0.898129   -1.113971   -1.491180
      8          7           0       -0.349149   -1.060067   -1.817928
      9          6           0       -1.251691   -0.841406   -0.785229
     10          6           0       -2.626376   -0.794314   -1.082194
     11          6           0       -3.548911   -0.578225   -0.070647
     12          6           0       -3.126329   -0.396819    1.258703
     13          6           0       -1.775889   -0.438455    1.567035
     14          6           0       -0.833017   -0.664950    0.552971
     15          6           0        0.594091   -0.710558    0.883766
     16          8           0        1.067300   -0.548970    2.002834
     17          1           0        0.375044    3.512831   -0.557779
     18          1           0        0.079226    1.848149   -1.080035
     19          1           0       -0.005839    2.263992    0.637491
     20          1           0       -2.045142    3.705662    0.182222
     21          1           0       -1.966068    3.269965   -1.530831
     22          1           0       -2.331219    2.033351   -0.320008
     23          1           0        2.243338    1.677066    0.384181
     24          1           0        3.906733    2.257125    0.231760
     25          1           0        3.454945    1.162999    1.557181
     26          1           0        3.462538    0.436034   -1.438903
     27          1           0        4.710237   -0.040498   -0.296055
     28          1           0        3.222505   -1.925422   -0.634881
     29          1           0        3.013254   -1.337105    1.026132
     30          1           0        1.639812   -1.295742   -2.266767
     31          1           0       -2.930941   -0.930522   -2.114503
     32          1           0       -4.608581   -0.543570   -0.307390
     33          1           0       -3.858807   -0.223006    2.041071
     34          1           0       -1.416178   -0.301087    2.581128
 ---------------------------------------------------------------------

 SCF Done:  E(UB3LYP) =  -691.243677002     A.U. after   33 cycles
 SCF Done:  E(UB3LYP) =  -691.243677002     a.u. after    1 cycles

 The electronic state is 2-A.
 Alpha  occ. eigenvalues --  -18.95219 -14.23243 -14.18080 -10.13206 -10.12134
 Alpha  occ. eigenvalues --  -10.09242 -10.07182 -10.06487 -10.05003 -10.04964
 Alpha  occ. eigenvalues --  -10.04827 -10.04671 -10.04233 -10.04148 -10.03885
 Alpha  occ. eigenvalues --  -10.03569  -0.91257  -0.85325  -0.78446  -0.71839
 Alpha  occ. eigenvalues --   -0.67511  -0.64441  -0.63257  -0.62064  -0.58448
 Alpha  occ. eigenvalues --   -0.53833  -0.51655  -0.50795  -0.48307  -0.46606
 Alpha  occ. eigenvalues --   -0.42317  -0.40107  -0.38602  -0.35852  -0.34380
 Alpha  occ. eigenvalues --   -0.34072  -0.32940  -0.32779  -0.31858  -0.30652
 Alpha  occ. eigenvalues --   -0.30539  -0.29982  -0.29054  -0.28658  -0.26389
 Alpha  occ. eigenvalues --   -0.25458  -0.24971  -0.24367  -0.23948  -0.23536
 Alpha  occ. eigenvalues --   -0.23405  -0.23257  -0.22822  -0.22136  -0.15958
 Alpha  occ. eigenvalues --   -0.14939  -0.13286  -0.13202  -0.10340   0.04523
 Alpha virt. eigenvalues --    0.06922   0.07915   0.08195   0.08761   0.09087
 Alpha virt. eigenvalues --    0.09770   0.10157   0.10521   0.11486   0.11782
 Alpha virt. eigenvalues --    0.12427   0.12652   0.13192   0.13611   0.14199

  Beta  occ. eigenvalues --  -18.95072 -14.23055 -14.18162 -10.13071 -10.12028
  Beta  occ. eigenvalues --  -10.09242 -10.07020 -10.06454 -10.04995 -10.04964
  Beta  occ. eigenvalues --  -10.04826 -10.04712 -10.04289 -10.04031 -10.03586
  Beta  occ. eigenvalues --  -10.03393  -0.90950  -0.85109  -0.78265  -0.71567
  Beta  occ. eigenvalues --   -0.67429  -0.64436  -0.62798  -0.61814  -0.58336
  Beta  occ. eigenvalues --   -0.53709  -0.51255  -0.50785  -0.48128  -0.46456
  Beta  occ. eigenvalues --   -0.42156  -0.39867  -0.38440  -0.35561  -0.34282
  Beta  occ. eigenvalues --   -0.33924  -0.32892  -0.32769  -0.31674  -0.30477
  Beta  occ. eigenvalues --   -0.30210  -0.29902  -0.28895  -0.28500  -0.26342
  Beta  occ. eigenvalues --   -0.25161  -0.24556  -0.24229  -0.23865  -0.23494
  Beta  occ. eigenvalues --   -0.23201  -0.23170  -0.22682  -0.21650  -0.15128
  Beta  occ. eigenvalues --   -0.14959  -0.13025  -0.12036  -0.09585
  Beta virt. eigenvalues --    0.07305   0.07999   0.08455   0.08944   0.09202
  Beta virt. eigenvalues --    0.09466   0.09993   0.10245   0.10690   0.11548
  Beta virt. eigenvalues --    0.11712   0.12465   0.12659   0.13193   0.13612

 Mulliken charges and spin densities:
               1          2
     1  C   -0.225271  -0.022661
     2  C   -0.611682   0.003989
     3  C   -0.286951  -0.157169
     4  C    0.504932  -0.681312
     5  C   -0.317456   0.065058
     6  N    0.184339   0.075806
     7  C    0.266228  -0.099636
     8  N   -0.128444  -0.026649
     9  C   -0.053007   0.009616
    10  C   -0.012059  -0.052122
    11  C   -0.357826   0.228556
    12  C   -0.424391  -0.054972
    13  C   -0.409014   0.122756
    14  C    0.687715   0.045802
    15  C   -0.637415   0.043258
    16  O   -0.343854   0.053116
    17  H    0.113847   0.005803
    18  H    0.151693  -0.006634
    19  H    0.124097   0.029257
    20  H    0.098966   0.008205
    21  H    0.107813   0.000888
    22  H    0.210042  -0.002250
    23  H    0.189631  -0.046551
    24  H    0.006387   0.114224
    25  H    0.137737   0.005020
    26  H    0.115411  -0.002793
    27  H   -0.475339   0.622297
    28  H   -0.355962   0.528827
    29  H    0.173137   0.011349
    30  H   -0.015868   0.196810
    31  H    0.146368   0.004629
    32  H    0.121058  -0.020639
    33  H    0.128162   0.002154
    34  H    0.186974  -0.004032
 Sum of Mulliken charges =  -1.00000   1.00000

 Dipole moment (field-independent basis, Debye):
    X=             -2.5809    Y=              2.7601    Z=             -0.4180  Tot=              3.8018
 Quadrupole moment (field-independent basis, Debye-Ang):
   XX=           -150.1315   YY=           -120.6788   ZZ=           -123.2533
   XY=              2.5014   XZ=             -0.2497   YZ=             -2.3193

 Summary of Natural Population Analysis:

                                       Natural Population
                Natural  -----------------------------------------------
    Atom  No    Charge         Core      Valence    Rydberg      Total
 -----------------------------------------------------------------------
      C    1   -0.29084      0.99968     2.28608    0.00509     3.29084
      C    2   -0.28672      0.99968     2.28322    0.00382     3.28672
      C    3   -0.28869      0.99966     2.28276    0.00628     3.28869
      C    4   -0.19182      0.99964     2.18455    0.00763     3.19182
      C    5   -0.08869      0.99961     2.07693    0.01215     3.08869
      N    6   -0.22203      0.99963     2.71211    0.01029     3.72203
      C    7    0.17365      0.99963     1.80965    0.01707     2.82635
      N    8   -0.27548      0.99969     2.76528    0.01051     3.77548
      C    9    0.10386      0.99945     1.88171    0.01497     2.89614
      C   10   -0.11960      0.99954     2.11145    0.00862     3.11960
      C   11   -0.04693      0.99958     2.03835    0.00900     3.04693
      C   12   -0.12572      0.99958     2.11702    0.00913     3.12572
      C   13   -0.05585      0.99955     2.04780    0.00850     3.05585
      C   14   -0.06036      0.99944     2.05044    0.01048     3.06036
      C   15    0.35366      0.99959     1.62303    0.02372     2.64634
      O   16   -0.31891      0.99988     3.31420    0.00483     4.31891
      H   17    0.08756      0.00000     0.41138    0.00106     0.41244
      H   18    0.10126      0.00000     0.39746    0.00128     0.39874
      H   19    0.10243      0.00000     0.39610    0.00147     0.39757
      H   20    0.08765      0.00000     0.41145    0.00090     0.41235
      H   21    0.08860      0.00000     0.41048    0.00092     0.41140
      H   22    0.11017      0.00000     0.38873    0.00111     0.38983
      H   23    0.10355      0.00000     0.39522    0.00123     0.39645
      H   24    0.09238      0.00000     0.40691    0.00071     0.40762
      H   25    0.10177      0.00000     0.39744    0.00079     0.39823
      H   26    0.09150      0.00000     0.40741    0.00109     0.40850
      H   27    0.09686      0.00000     0.40107    0.00208     0.40314
      H   28    0.09776      0.00000     0.40027    0.00197     0.40224
      H   29    0.11254      0.00000     0.38621    0.00125     0.38746
      H   30    0.08205      0.00000     0.41620    0.00175     0.41795
      H   31    0.09866      0.00000     0.40002    0.00132     0.40134
      H   32    0.08854      0.00000     0.41049    0.00097     0.41146
      H   33    0.09220      0.00000     0.40683    0.00097     0.40780
      H   34    0.10501      0.00000     0.39394    0.00104     0.39499
 =======================================================================
   * Total *    0.00000     15.99380    42.82221    0.18400    59.00000

 Normal termination of Gaussian 16 at Thu Dec 10 23:16:06 2020.
