 Gaussian 16, Revision A.03,

 -----------------------------------------------------------
 # opt freq B3LYP/6-31G(d) empiricaldispersion=gd3bj scf=xqc
 -----------------------------------------------------------

 -------------------------------
 CID_62539984_JID_10048_neutraal
 -------------------------------
 Symbolic Z-matrix:
 Charge =  0 Multiplicity = 1

 SCF Done:  E(RB3LYP) =  -1564.79150810     A.U. after   15 cycles
 SCF Done:  E(RB3LYP) =  -1564.79651049     A.U. after   12 cycles
 SCF Done:  E(RB3LYP) =  -1564.79737464     A.U. after   12 cycles
 SCF Done:  E(RB3LYP) =  -1564.79757627     A.U. after   12 cycles
 SCF Done:  E(RB3LYP) =  -1564.79797792     A.U. after   11 cycles
 SCF Done:  E(RB3LYP) =  -1564.79817947     A.U. after   12 cycles
 SCF Done:  E(RB3LYP) =  -1564.79838026     A.U. after   12 cycles
 SCF Done:  E(RB3LYP) =  -1564.79857382     A.U. after   12 cycles
 SCF Done:  E(RB3LYP) =  -1564.79875776     A.U. after   12 cycles
 SCF Done:  E(RB3LYP) =  -1564.79894895     A.U. after   12 cycles
 SCF Done:  E(RB3LYP) =  -1564.80563869     A.U. after    7 cycles
 SCF Done:  E(RB3LYP) =  -1564.80563904     A.U. after    8 cycles
 SCF Done:  E(RB3LYP) =  -1564.80563912     A.U. after    8 cycles
 SCF Done:  E(RB3LYP) =  -1564.80563916     A.U. after    7 cycles
 SCF Done:  E(RB3LYP) =  -1564.80563921     A.U. after    7 cycles
 Optimization completed.
    -- Stationary point found.
 Normal termination of Gaussian 16 at Sun Dec 13 17:19:17 2020.

 --------------------------------------------------------------------
 #N Geom=AllCheck Guess=TCheck SCRF=Check GenChk RB3LYP/6-31G(d) Freq
 --------------------------------------------------------------------

 Structure from the checkpoint file:  "JID_10048.chk"
 -------------------------------
 CID_62539984_JID_10048_neutraal
 -------------------------------
 Charge =  0 Multiplicity = 1

 SCF Done:  E(RB3LYP) =  -1564.80563921     A.U. after    1 cycles

  Exact polarizability: 248.600   8.145 170.362  -2.657  -0.364 201.120
 Approx polarizability: 339.915  15.588 251.175  -0.461  12.954 357.704

                      1                      2                      3
                      A                      A                      A
 Frequencies --     21.0107                23.2296                27.6343
 Red. masses --      4.5260                 3.7267                 5.2103
 Frc consts  --      0.0012                 0.0012                 0.0023
 IR Inten    --      1.1669                 0.4445                 1.0632

                      4                      5                      6
                      A                      A                      A
 Frequencies --     36.6949                54.5139                71.6368
 Red. masses --      5.3569                 4.4165                 3.8959
 Frc consts  --      0.0042                 0.0077                 0.0118
 IR Inten    --      0.5155                 0.1446                 0.2140

                      7                      8                      9
                      A                      A                      A
 Frequencies --     80.3572               108.6597               126.4765
 Red. masses --      3.7412                 4.0660                 3.8713
 Frc consts  --      0.0142                 0.0283                 0.0365
 IR Inten    --      2.3656                 1.9409                 3.4931

                     10                     11                     12
                      A                      A                      A
 Frequencies --    131.6068               147.9759               162.4148
 Red. masses --      1.0692                 3.0294                 3.7995
 Frc consts  --      0.0109                 0.0391                 0.0591
 IR Inten    --      0.5215                 4.7936                 2.4539

                     13                     14                     15
                      A                      A                      A
 Frequencies --    206.6564               217.8592               233.9267
 Red. masses --      2.0947                 2.5172                 1.8623
 Frc consts  --      0.0527                 0.0704                 0.0600
 IR Inten    --      1.1774                 0.8230                 1.9486

                     16                     17                     18
                      A                      A                      A
 Frequencies --    240.1261               251.9918               263.3337
 Red. masses --      1.9488                 2.5375                 4.9089
 Frc consts  --      0.0662                 0.0949                 0.2006
 IR Inten    --      0.8195                 1.3001                 0.9561

                     19                     20                     21
                      A                      A                      A
 Frequencies --    274.7349               295.8774               313.1344
 Red. masses --      1.9074                 3.9126                 2.9291
 Frc consts  --      0.0848                 0.2018                 0.1692
 IR Inten    --      7.5298                 3.2626                 2.8992

                     22                     23                     24
                      A                      A                      A
 Frequencies --    350.4741               377.0842               388.8412
 Red. masses --      3.7961                 4.0281                 3.6916
 Frc consts  --      0.2747                 0.3375                 0.3289
 IR Inten    --      2.8189                 0.0070                 3.3546

                     25                     26                     27
                      A                      A                      A
 Frequencies --    413.8986               414.7637               470.7645
 Red. masses --      3.5988                 3.3921                 4.2479
 Frc consts  --      0.3632                 0.3438                 0.5547
 IR Inten    --      2.4274                 0.8715                 8.3466

                     28                     29                     30
                      A                      A                      A
 Frequencies --    529.9216               559.9945               571.6661
 Red. masses --      3.2400                 7.2101                 3.5976
 Frc consts  --      0.5361                 1.3322                 0.6927
 IR Inten    --     13.1852                 3.2690                 6.4140

                     31                     32                     33
                      A                      A                      A
 Frequencies --    582.5259               642.8795               655.7754
 Red. masses --      3.1205                 5.6586                 6.0977
 Frc consts  --      0.6239                 1.3779                 1.5450
 IR Inten    --      2.9737                 0.2633                 0.6014

                     34                     35                     36
                      A                      A                      A
 Frequencies --    665.9087               689.9403               726.9074
 Red. masses --      5.1462                 3.2203                 3.7711
 Frc consts  --      1.3445                 0.9032                 1.1740
 IR Inten    --      2.7487                49.3557                13.6384

                     37                     38                     39
                      A                      A                      A
 Frequencies --    731.2191               741.4209               755.9673
 Red. masses --      3.0406                 1.4649                 2.6015
 Frc consts  --      0.9579                 0.4744                 0.8760
 IR Inten    --      1.3748                14.8116                73.2596

                     40                     41                     42
                      A                      A                      A
 Frequencies --    806.4130               827.1317               840.9946
 Red. masses --      2.1688                 2.4984                 1.2694
 Frc consts  --      0.8310                 1.0071                 0.5290
 IR Inten    --     68.1238                 3.3816                 0.4663

                     43                     44                     45
                      A                      A                      A
 Frequencies --    850.4889               860.3337               867.4397
 Red. masses --      2.3587                 3.3290                 3.8142
 Frc consts  --      1.0052                 1.4518                 1.6909
 IR Inten    --      8.5645                19.6646                78.4219

                     46                     47                     48
                      A                      A                      A
 Frequencies --    917.7710               954.2508               964.7609
 Red. masses --      2.3729                 1.3228                 1.3339
 Frc consts  --      1.1776                 0.7097                 0.7315
 IR Inten    --      3.1535                 0.0475                 2.2080

                     49                     50                     51
                      A                      A                      A
 Frequencies --    991.6650              1001.7592              1004.6083
 Red. masses --      1.1837                 2.1598                 2.1471
 Frc consts  --      0.6858                 1.2770                 1.2767
 IR Inten    --      4.9688                14.6814                12.9621

                     52                     53                     54
                      A                      A                      A
 Frequencies --   1024.7089              1030.1411              1041.0695
 Red. masses --      1.7986                 2.4220                 3.2434
 Frc consts  --      1.1127                 1.5143                 2.0712
 IR Inten    --      5.2837                22.3186                 1.7065

                     55                     56                     57
                      A                      A                      A
 Frequencies --   1079.5335              1080.1590              1114.4981
 Red. masses --      1.5426                 2.2925                 3.2901
 Frc consts  --      1.0592                 1.5759                 2.4078
 IR Inten    --     11.8573                70.7789                43.1676

                     58                     59                     60
                      A                      A                      A
 Frequencies --   1120.9062              1145.3932              1157.5385
 Red. masses --      2.5296                 2.1216                 1.7923
 Frc consts  --      1.8726                 1.6399                 1.4149
 IR Inten    --     17.5811                23.0604                37.8861

                     61                     62                     63
                      A                      A                      A
 Frequencies --   1171.2016              1182.5447              1184.3764
 Red. masses --      2.5347                 3.1288                 1.6139
 Frc consts  --      2.0485                 2.5779                 1.3339
 IR Inten    --     31.2065                56.7543                 4.0157

                     64                     65                     66
                      A                      A                      A
 Frequencies --   1200.6716              1211.5244              1234.2457
 Red. masses --      1.4173                 2.1330                 1.3093
 Frc consts  --      1.2038                 1.8446                 1.1751
 IR Inten    --      1.5606                 6.6469                 2.2446

                     67                     68                     69
                      A                      A                      A
 Frequencies --   1238.1742              1276.9506              1290.3017
 Red. masses --      1.7651                 1.1484                 1.5427
 Frc consts  --      1.5944                 1.1032                 1.5132
 IR Inten    --     25.2953                15.3200                 0.3199

                     70                     71                     72
                      A                      A                      A
 Frequencies --   1318.9266              1339.3646              1351.3251
 Red. masses --      1.9082                 1.9446                 3.6159
 Frc consts  --      1.9558                 2.0554                 3.8903
 IR Inten    --      0.9564                 7.6795                24.4180

                     73                     74                     75
                      A                      A                      A
 Frequencies --   1381.4235              1387.8922              1394.8636
 Red. masses --      1.5715                 1.3135                 1.2725
 Frc consts  --      1.7669                 1.4907                 1.4588
 IR Inten    --      1.9955                 3.2806                 2.1454

                     76                     77                     78
                      A                      A                      A
 Frequencies --   1411.5042              1436.0538              1441.6034
 Red. masses --      1.2756                 1.3071                 1.2731
 Frc consts  --      1.4973                 1.5882                 1.5589
 IR Inten    --     21.4368                12.4333                 1.3712

                     79                     80                     81
                      A                      A                      A
 Frequencies --   1460.6619              1498.1999              1499.3443
 Red. masses --      2.4295                 1.0867                 1.0518
 Frc consts  --      3.0540                 1.4372                 1.3931
 IR Inten    --      7.5840                 7.1136                 8.1312

                     82                     83                     84
                      A                      A                      A
 Frequencies --   1502.9679              1505.8145              1512.3764
 Red. masses --      1.1682                 1.0444                 1.2040
 Frc consts  --      1.5547                 1.3952                 1.6225
 IR Inten    --      2.1291                 5.8069                 6.9067

                     85                     86                     87
                      A                      A                      A
 Frequencies --   1515.9837              1517.7428              1526.6448
 Red. masses --      1.0475                 1.0640                 1.2198
 Frc consts  --      1.4184                 1.4441                 1.6750
 IR Inten    --      3.4456                33.5689                46.0966

                     88                     89                     90
                      A                      A                      A
 Frequencies --   1532.5435              1544.5991              1549.6291
 Red. masses --      1.0610                 2.0944                 6.5107
 Frc consts  --      1.4683                 2.9441                 9.2116
 IR Inten    --      3.3913                43.4687                14.4492

                     91                     92                     93
                      A                      A                      A
 Frequencies --   1558.4901              1596.9158              1621.8071
 Red. masses --      1.0919                 4.9549                 6.0759
 Frc consts  --      1.5626                 7.4447                 9.4158
 IR Inten    --      7.1002                36.4903                 1.1918

                     94                     95                     96
                      A                      A                      A
 Frequencies --   1658.6143              2975.4274              2994.9678
 Red. masses --      5.4545                 1.0679                 1.0405
 Frc consts  --      8.8409                 5.5706                 5.4991
 IR Inten    --     25.5714                57.6862                81.1191

                     97                     98                     99
                      A                      A                      A
 Frequencies --   3041.0906              3042.8741              3045.2351
 Red. masses --      1.0815                 1.1023                 1.0634
 Frc consts  --      5.8928                 6.0133                 5.8103
 IR Inten    --     12.4389                60.8694                63.6953

                    100                    101                    102
                      A                      A                      A
 Frequencies --   3053.0553              3064.4535              3065.2963
 Red. masses --      1.0365                 1.0305                 1.0906
 Frc consts  --      5.6926                 5.7016                 6.0375
 IR Inten    --     25.4209                20.6477                20.3613

                    103                    104                    105
                      A                      A                      A
 Frequencies --   3090.2573              3108.5738              3130.0790
 Red. masses --      1.1039                 1.1013                 1.0978
 Frc consts  --      6.2113                 6.2700                 6.3371
 IR Inten    --     49.6750                15.3239                30.3814

                    106                    107                    108
                      A                      A                      A
 Frequencies --   3139.5451              3147.1321              3160.7869
 Red. masses --      1.1019                 1.1082                 1.1038
 Frc consts  --      6.3991                 6.4667                 6.4972
 IR Inten    --     16.8356                 9.8448                 5.3069

                    109                    110                    111
                      A                      A                      A
 Frequencies --   3172.6630              3194.0040              3208.9417
 Red. masses --      1.0873                 1.0936                 1.0874
 Frc consts  --      6.4482                 6.5732                 6.5971
 IR Inten    --     11.4682                13.4933                 1.7363

                    112                    113                    114
                      A                      A                      A
 Frequencies --   3225.7400              3276.4781              3534.6630
 Red. masses --      1.0926                 1.0947                 1.0736
 Frc consts  --      6.6983                 6.9241                 7.9026
 IR Inten    --      6.8074                 1.4424                 6.7936

 - Thermochemistry -
 -------------------
 Temperature   298.150 Kelvin.  Pressure   1.00000 Atm.
 Atom     1 has atomic number  6 and mass  12.00000

 Molecular mass:   308.10171 amu.
 Principal axes and moments of inertia in atomic units:
                           1         2         3
     Eigenvalues --  4895.43647********************
           X            0.99995  -0.00999   0.00167
           Y            0.01005   0.99925  -0.03727
           Z           -0.00130   0.03729   0.99930
 This molecule is an asymmetric top.
 Rotational symmetry number  1.
 Warning -- assumption of classical behavior for rotation
           may cause significant error
 Rotational temperatures (Kelvin)      0.01769     0.00849     0.00729
 Rotational constants (GHZ):           0.36866     0.17691     0.15185
 Zero-point vibrational energy     867100.7 (Joules/Mol)
                                  207.24204 (Kcal/Mol)
 Warning -- explicit consideration of  31 degrees of freedom as
           vibrations may cause significant error
 Vibrational temperatures:     30.23    33.42    39.76    52.80    78.43
          (Kelvin)            103.07   115.62   156.34   181.97   189.35
                              212.90   233.68   297.33   313.45   336.57
                              345.49   362.56   378.88   395.28   425.70
                              450.53   504.25   542.54   559.46   595.51
                              596.75   677.33   762.44   805.71   822.50
                              838.12   924.96   943.51   958.09   992.67
                             1045.86  1052.06  1066.74  1087.67  1160.25
                             1190.06  1210.00  1223.66  1237.83  1248.05
                             1320.47  1372.95  1388.08  1426.78  1441.31
                             1445.41  1474.33  1482.14  1497.87  1553.21
                             1554.11  1603.51  1612.73  1647.97  1665.44
                             1685.10  1701.42  1704.05  1727.50  1743.11
                             1775.80  1781.46  1837.25  1856.46  1897.64
                             1927.05  1944.26  1987.56  1996.87  2006.90
                             2030.84  2066.16  2074.15  2101.57  2155.58
                             2157.22  2162.44  2166.53  2175.97  2181.16
                             2183.69  2196.50  2204.99  2222.33  2229.57
                             2242.32  2297.61  2333.42  2386.38  4280.98
                             4309.09  4375.45  4378.02  4381.41  4392.67
                             4409.07  4410.28  4446.19  4472.54  4503.49
                             4517.11  4528.02  4547.67  4564.75  4595.46
                             4616.95  4641.12  4714.12  5085.59

 Zero-point correction=                           0.330261 (Hartree/Particle)
 Thermal correction to Energy=                    0.351353
 Thermal correction to Enthalpy=                  0.352298
 Thermal correction to Gibbs Free Energy=         0.277277
 Sum of electronic and zero-point Energies=          -1564.475378
 Sum of electronic and thermal Energies=             -1564.454286
 Sum of electronic and thermal Enthalpies=           -1564.453342
 Sum of electronic and thermal Free Energies=        -1564.528362

                     E (Thermal)             CV                S
                      KCal/Mol        Cal/Mol-Kelvin    Cal/Mol-Kelvin
 Total                  220.478             77.436            157.894
 Electronic               0.000              0.000              0.000
 Translational            0.889              2.981             43.072
 Rotational               0.889              2.981             34.739
 Vibrational            218.700             71.474             80.083
 Vibration     1          0.593              1.986              6.536
 Vibration     2          0.593              1.985              6.337
 Vibration     3          0.593              1.984              5.992
 Vibration     4          0.594              1.982              5.430
 Vibration     5          0.596              1.976              4.647
 Vibration     6          0.598              1.968              4.108
 Vibration     7          0.600              1.962              3.882
 Vibration     8          0.606              1.942              3.293
 Vibration     9          0.611              1.927              2.999
 Vibration    10          0.612              1.922              2.922
 Vibration    11          0.617              1.905              2.698
 Vibration    12          0.623              1.889              2.521
 Vibration    13          0.641              1.830              2.073
 Vibration    14          0.646              1.814              1.977
 Vibration    15          0.654              1.789              1.849
 Vibration    16          0.657              1.779              1.802
 Vibration    17          0.664              1.759              1.717
 Vibration    18          0.670              1.740              1.640
 Vibration    19          0.677              1.720              1.566
 Vibration    20          0.690              1.681              1.440
 Vibration    21          0.701              1.649              1.346
 Vibration    22          0.727              1.574              1.164
 Vibration    23          0.748              1.519              1.051
 Vibration    24          0.757              1.494              1.005
 Vibration    25          0.777              1.440              0.913
 Vibration    26          0.778              1.438              0.910
 Vibration    27          0.828              1.315              0.735
 Vibration    28          0.885              1.184              0.587
 Vibration    29          0.916              1.118              0.524
 Vibration    30          0.928              1.093              0.501
 Vibration    31          0.939              1.069              0.481

                           ! Non-Optimized Parameters !
 Normal termination of Gaussian 16 at Sun Dec 13 17:41:25 2020.

 ----------------------------------------------------------------------
 # B3LYP/6-311++G(d,p) empiricaldispersion=gd3bj scf=xqc pop=npa geom=c
 heck
 ----------------------------------------------------------------------

 ---------------------------------------
 CID_62539984_JID_10048_Energie_neutraal
 ---------------------------------------
 Structure from the checkpoint file:  "JID_10048.chk"
 Charge =  0 Multiplicity = 1

 SCF Done:  E(RB3LYP) =  -1565.06795302     A.U. after   16 cycles
 Normal termination of Gaussian 16 at Sun Dec 13 17:52:51 2020.

 ----------------------------------------------------------------------
 # B3LYP/6-311++G(d,p) empiricaldispersion=gd3bj scf=xqc pop=npa geom=c
 heck
 ----------------------------------------------------------------------

 -------------------------------------
 CID_62539984_JID_10048_Energie_kation
 -------------------------------------
 Structure from the checkpoint file:  "JID_10048.chk"
 Charge =  1 Multiplicity = 2

 SCF Done:  E(UB3LYP) =  -1564.80201432     A.U. after   25 cycles
 Normal termination of Gaussian 16 at Sun Dec 13 18:17:50 2020.
 Gaussian 16:  ES64L-G16RevA.03 25-Dec-2016

 ----------------------------------------------------------------------
 # B3LYP/6-311++G(d,p) empiricaldispersion=gd3bj scf=xqc pop=npa geom=c
 heck
 ----------------------------------------------------------------------

 ------------------------------------
 CID_62539984_JID_10048_Energie_anion
 ------------------------------------
 Structure from the checkpoint file:  "JID_10048.chk"
 Charge = -1 Multiplicity = 2

                         Standard orientation:
 ---------------------------------------------------------------------
 Center     Atomic      Atomic             Coordinates (Angstroms)
 Number     Number       Type             X           Y           Z
 ---------------------------------------------------------------------
      1          6           0        4.172775   -1.044964    2.573715
      2          6           0        3.675697   -0.976813    1.162057
      3          6           0        4.108814   -1.740551    0.115026
      4         16           0        3.260738   -1.313970   -1.340452
      5          6           0        2.366419   -0.119342   -0.419953
      6          7           0        2.683581   -0.066140    0.840227
      7          6           0        1.263909    0.709051   -1.036112
      8          6           0       -0.080340    0.011063   -0.812794
      9          6           0       -0.900771   -0.321740   -1.894048
     10          6           0       -2.160905   -0.878978   -1.696187
     11          6           0       -2.627052   -1.124842   -0.396775
     12          6           0       -1.798505   -0.814580    0.691264
     13          6           0       -0.540904   -0.255461    0.479267
     14         16           0       -4.256149   -1.828250   -0.248183
     15          6           0       -4.507482   -1.907523    1.553065
     16          7           0        1.388656    2.068194   -0.517039
     17          6           0        0.434788    3.060116   -0.995725
     18          6           0       -0.980654    2.998289   -0.410722
     19          8           0       -0.856422    2.943891    1.000057
     20          6           0       -2.100477    2.794799    1.647425
     21          1           0        4.587341   -0.079088    2.884300
     22          1           0        3.353123   -1.282550    3.261658
     23          1           0        4.949115   -1.807237    2.683232
     24          1           0        4.870606   -2.507237    0.116736
     25          1           0        1.430525    0.756904   -2.120148
     26          1           0       -0.557725   -0.127272   -2.907927
     27          1           0       -2.788167   -1.119853   -2.550232
     28          1           0       -2.122762   -1.007337    1.707331
     29          1           0        0.090576   -0.015345    1.328523
     30          1           0       -3.789321   -2.579329    2.030562
     31          1           0       -4.451405   -0.914809    2.007951
     32          1           0       -5.514310   -2.306920    1.696080
     33          1           0        1.389307    2.043770    0.499629
     34          1           0        0.855845    4.045127   -0.759511
     35          1           0        0.371570    2.993122   -2.089402
     36          1           0       -1.542489    3.899265   -0.713674
     37          1           0       -1.532902    2.122941   -0.775172
     38          1           0       -2.767216    3.648972    1.447147
     39          1           0       -2.608888    1.871635    1.329619
     40          1           0       -1.902397    2.744123    2.721685
 ---------------------------------------------------------------------

 SCF Done:  E(UB3LYP) =  -1565.05873192     A.U. after   33 cycles
 SCF Done:  E(UB3LYP) =  -1565.05873192     a.u. after    1 cycles

 The electronic state is 2-A.
 Alpha  occ. eigenvalues --  -88.76915 -88.75103 -19.03216 -14.19787 -14.19594
 Alpha  occ. eigenvalues --  -10.11892 -10.11655 -10.11631 -10.11400 -10.10589
 Alpha  occ. eigenvalues --  -10.10426 -10.10113 -10.09717 -10.08831 -10.08273
 Alpha  occ. eigenvalues --  -10.07876 -10.07557 -10.07406 -10.07271 -10.07061
 Alpha  occ. eigenvalues --   -7.85570  -7.83703  -5.81849  -5.81503  -5.81179
 Alpha  occ. eigenvalues --   -5.80104  -5.79706  -5.79101  -0.94505  -0.85871
 Alpha  occ. eigenvalues --   -0.81078  -0.76497  -0.70704  -0.68890  -0.68624
 Alpha  occ. eigenvalues --   -0.65969  -0.65024  -0.64191  -0.60616  -0.57506
 Alpha  occ. eigenvalues --   -0.56372  -0.53852  -0.51642  -0.50109  -0.48364
 Alpha  occ. eigenvalues --   -0.47425  -0.43584  -0.41766  -0.40371  -0.39322
 Alpha  occ. eigenvalues --   -0.38369  -0.37267  -0.36876  -0.35720  -0.34896
 Alpha  occ. eigenvalues --   -0.34441  -0.33822  -0.33662  -0.33395  -0.32502
 Alpha  occ. eigenvalues --   -0.32084  -0.30729  -0.30137  -0.29424  -0.29160
 Alpha  occ. eigenvalues --   -0.27989  -0.27774  -0.27170  -0.26072  -0.25737
 Alpha  occ. eigenvalues --   -0.25571  -0.24537  -0.23145  -0.22286  -0.18962
 Alpha  occ. eigenvalues --   -0.17810  -0.17069  -0.16918  -0.15893  -0.13845
 Alpha  occ. eigenvalues --   -0.12937  -0.10787   0.04314
 Alpha virt. eigenvalues --    0.05669   0.06494   0.06703   0.07367   0.08002
 Alpha virt. eigenvalues --    0.08289   0.08483   0.08609   0.09037   0.09510
 Alpha virt. eigenvalues --    0.09669   0.10571   0.10772   0.10879   0.11450

  Beta  occ. eigenvalues --  -88.76888 -88.75096 -19.03212 -14.19726 -14.19567
  Beta  occ. eigenvalues --  -10.11663 -10.11650 -10.11638 -10.11375 -10.10595
  Beta  occ. eigenvalues --  -10.10335 -10.10108 -10.09652 -10.08710 -10.08273
  Beta  occ. eigenvalues --  -10.07900 -10.07510 -10.07382 -10.07211 -10.07060
  Beta  occ. eigenvalues --   -7.85546  -7.83696  -5.81840  -5.81494  -5.81085
  Beta  occ. eigenvalues --   -5.80093  -5.79695  -5.79090  -0.94495  -0.85668
  Beta  occ. eigenvalues --   -0.81017  -0.76404  -0.70595  -0.68718  -0.68500
  Beta  occ. eigenvalues --   -0.65932  -0.64965  -0.64108  -0.60493  -0.57421
  Beta  occ. eigenvalues --   -0.56267  -0.53770  -0.51599  -0.50056  -0.48163
  Beta  occ. eigenvalues --   -0.47324  -0.43439  -0.41686  -0.40292  -0.39292
  Beta  occ. eigenvalues --   -0.38327  -0.37211  -0.36826  -0.35634  -0.34795
  Beta  occ. eigenvalues --   -0.34370  -0.33746  -0.33583  -0.33318  -0.32474
  Beta  occ. eigenvalues --   -0.32033  -0.30670  -0.30051  -0.29325  -0.28921
  Beta  occ. eigenvalues --   -0.27943  -0.27636  -0.26948  -0.25993  -0.25614
  Beta  occ. eigenvalues --   -0.25449  -0.24488  -0.23111  -0.22206  -0.18694
  Beta  occ. eigenvalues --   -0.17246  -0.17009  -0.16845  -0.15730  -0.13218
  Beta  occ. eigenvalues --   -0.12820  -0.10576
  Beta virt. eigenvalues --    0.06341   0.06607   0.06955   0.07594   0.07647
  Beta virt. eigenvalues --    0.08051   0.08409   0.08536   0.08864   0.09510
  Beta virt. eigenvalues --    0.09618   0.09797   0.10615   0.10973   0.11198

 Mulliken charges and spin densities:
               1          2
     1  C   -0.446907  -0.085320
     2  C   -0.352630  -0.046325
     3  C    0.119464   0.146466
     4  S   -0.447167   0.048749
     5  C   -0.067965   0.040147
     6  N    0.170690   0.024889
     7  C   -0.723909  -0.029878
     8  C    1.893306  -0.341553
     9  C   -0.471078   0.088717
    10  C   -0.521997  -0.088723
    11  C   -0.014955   0.765188
    12  C   -0.677068   0.186309
    13  C   -0.095023  -0.446265
    14  S   -0.356736  -0.385699
    15  C    0.596241  -1.088039
    16  N    0.054696   0.013631
    17  C   -0.010265  -0.177619
    18  C   -0.335770  -0.008910
    19  O   -0.095421   0.015567
    20  C   -0.045338  -0.282946
    21  H    0.145626   0.005727
    22  H    0.126245   0.022570
    23  H    0.128038   0.001233
    24  H    0.202593   0.000370
    25  H    0.151635   0.060199
    26  H    0.028543   0.100631
    27  H    0.150806   0.021770
    28  H    0.120723   0.034154
    29  H    0.239092   0.034928
    30  H   -0.115791   0.307084
    31  H   -0.437731   0.635753
    32  H   -0.704822   0.899790
    33  H    0.273246  -0.018015
    34  H    0.173290   0.021262
    35  H    0.040511   0.061587
    36  H   -0.004235   0.147267
    37  H    0.124846   0.043930
    38  H   -0.115924   0.231639
    39  H    0.467119  -0.253943
    40  H   -0.165980   0.293681
 Sum of Mulliken charges =  -1.00000   1.00000

 Dipole moment (field-independent basis, Debye):
    X=              6.9303    Y=              0.9353    Z=             -3.5956  Tot=              7.8633
 Quadrupole moment (field-independent basis, Debye-Ang):
   XX=           -226.4171   YY=           -174.8391   ZZ=           -165.0274
   XY=            -15.8171   XZ=             22.0902   YZ=             -0.1612

 Summary of Natural Population Analysis:

                                       Natural Population
                Natural  -----------------------------------------------
    Atom  No    Charge         Core      Valence    Rydberg      Total
 -----------------------------------------------------------------------
      C    1   -0.29162      0.99963     2.28754    0.00445     3.29162
      C    2    0.05961      0.99950     1.92873    0.01216     2.94039
      C    3   -0.19726      0.99946     2.18879    0.00901     3.19726
      S    4    0.18817      4.99943     2.79262    0.01979     7.81183
      C    5    0.09485      0.99958     1.88698    0.01859     2.90515
      N    6   -0.25614      0.99961     2.74546    0.01107     3.75614
      C    7   -0.03586      0.99949     2.02054    0.01584     3.03586
      C    8   -0.02305      0.99948     2.01161    0.01196     3.02305
      C    9   -0.09119      0.99951     2.08228    0.00940     3.09119
      C   10   -0.11750      0.99951     2.10793    0.01006     3.11750
      C   11   -0.07553      0.99941     2.06376    0.01235     3.07553
      C   12   -0.11878      0.99949     2.10883    0.01046     3.11878
      C   13   -0.08764      0.99950     2.07792    0.01022     3.08764
      S   14    0.12600      4.99954     2.85364    0.02083     7.87400
      C   15   -0.35301      0.99963     2.34662    0.00676     3.35301
      N   16   -0.33273      0.99974     2.82117    0.01182     3.83273
      C   17   -0.09322      0.99963     2.08288    0.01071     3.09322
      C   18   -0.02160      0.99959     2.01022    0.01179     3.02160
      O   19   -0.30217      0.99988     3.29262    0.00966     4.30217
      C   20   -0.09810      0.99962     2.08861    0.00987     3.09810
      H   21    0.10326      0.00000     0.39567    0.00107     0.39674
      H   22    0.10433      0.00000     0.39427    0.00139     0.39567
      H   23    0.09745      0.00000     0.40180    0.00075     0.40255
      H   24    0.10477      0.00000     0.39432    0.00091     0.39523
      H   25    0.09731      0.00000     0.40084    0.00185     0.40269
      H   26    0.09640      0.00000     0.40220    0.00140     0.40360
      H   27    0.10049      0.00000     0.39863    0.00088     0.39951
      H   28    0.10385      0.00000     0.39470    0.00144     0.39615
      H   29    0.11058      0.00000     0.38730    0.00212     0.38942
      H   30    0.10343      0.00000     0.39475    0.00182     0.39657
      H   31    0.10651      0.00000     0.39112    0.00236     0.39349
      H   32    0.11264      0.00000     0.38546    0.00189     0.38736
      H   33    0.18688      0.00000     0.30999    0.00312     0.31312
      H   34    0.09261      0.00000     0.40621    0.00118     0.40739
      H   35    0.09180      0.00000     0.40725    0.00095     0.40820
      H   36    0.07585      0.00000     0.42288    0.00128     0.42415
      H   37    0.08831      0.00000     0.40948    0.00222     0.41169
      H   38    0.07500      0.00000     0.42372    0.00128     0.42500
      H   39    0.08597      0.00000     0.41240    0.00163     0.41403
      H   40    0.08933      0.00000     0.40954    0.00113     0.41067
 =======================================================================
   * Total *    0.00000     27.99123    53.74128    0.26749    82.00000

 Normal termination of Gaussian 16 at Sun Dec 13 18:52:20 2020.
