 Gaussian 16, Revision A.03,

 -----------------------------------------------------------
 # opt freq B3LYP/6-31G(d) empiricaldispersion=gd3bj scf=xqc
 -----------------------------------------------------------

 -------------------------------
 CID_115236851_JID_2967_neutraal
 -------------------------------
 Symbolic Z-matrix:
 Charge =  0 Multiplicity = 1

 SCF Done:  E(RB3LYP) =  -913.655072759     A.U. after   15 cycles
 SCF Done:  E(RB3LYP) =  -913.659946613     A.U. after   13 cycles
 SCF Done:  E(RB3LYP) =  -913.660701728     A.U. after   12 cycles
 SCF Done:  E(RB3LYP) =  -913.660874627     A.U. after   12 cycles
 SCF Done:  E(RB3LYP) =  -913.660933978     A.U. after   12 cycles
 SCF Done:  E(RB3LYP) =  -913.661238405     A.U. after   11 cycles
 SCF Done:  E(RB3LYP) =  -913.661364897     A.U. after   12 cycles
 SCF Done:  E(RB3LYP) =  -913.661378832     A.U. after   10 cycles
 SCF Done:  E(RB3LYP) =  -913.661383188     A.U. after    9 cycles
 SCF Done:  E(RB3LYP) =  -913.661385645     A.U. after    8 cycles
 SCF Done:  E(RB3LYP) =  -913.661396828     A.U. after   11 cycles
 SCF Done:  E(RB3LYP) =  -913.661399873     A.U. after   10 cycles
 SCF Done:  E(RB3LYP) =  -913.661400559     A.U. after   10 cycles
 SCF Done:  E(RB3LYP) =  -913.661400843     A.U. after    9 cycles
 SCF Done:  E(RB3LYP) =  -913.661400856     A.U. after    8 cycles
 Optimization completed.
    -- Stationary point found.
 Normal termination of Gaussian 16 at Wed Dec  9 18:18:37 2020.

 --------------------------------------------------------------------
 #N Geom=AllCheck Guess=TCheck SCRF=Check GenChk RB3LYP/6-31G(d) Freq
 --------------------------------------------------------------------

 Structure from the checkpoint file:  "JID_2967.chk"
 -------------------------------
 CID_115236851_JID_2967_neutraal
 -------------------------------
 Charge =  0 Multiplicity = 1

 SCF Done:  E(RB3LYP) =  -913.661400856     A.U. after    1 cycles

  Exact polarizability: 178.252  -0.536  92.199   4.695  -0.896  70.412
 Approx polarizability: 238.744  -2.252 161.123  15.308  -3.697 118.106

                      1                      2                      3
                      A                      A                      A
 Frequencies --     21.2054                33.5829                52.5234
 Red. masses --      5.8500                 5.5642                 4.6057
 Frc consts  --      0.0015                 0.0037                 0.0075
 IR Inten    --      0.8608                 1.1068                 0.9485

                      4                      5                      6
                      A                      A                      A
 Frequencies --     68.1735               139.3011               145.5438
 Red. masses --      4.7460                 5.9812                 3.4155
 Frc consts  --      0.0130                 0.0684                 0.0426
 IR Inten    --      1.1147                 2.3477                 0.7198

                      7                      8                      9
                      A                      A                      A
 Frequencies --    203.8349               251.5151               297.4446
 Red. masses --      3.1677                 4.6955                 4.7165
 Frc consts  --      0.0775                 0.1750                 0.2459
 IR Inten    --      0.7586                 2.3681                 0.4728

                     10                     11                     12
                      A                      A                      A
 Frequencies --    364.8621               418.7321               496.0990
 Red. masses --      3.9502                 3.5609                 4.6149
 Frc consts  --      0.3098                 0.3679                 0.6692
 IR Inten    --      2.3641                32.6641                 2.6996

                     13                     14                     15
                      A                      A                      A
 Frequencies --    519.4338               554.4069               585.2341
 Red. masses --      6.5156                 2.5266                 1.6503
 Frc consts  --      1.0358                 0.4576                 0.3330
 IR Inten    --      2.9017                 8.3612                66.4013

                     16                     17                     18
                      A                      A                      A
 Frequencies --    602.0347               624.0020               656.7801
 Red. masses --      1.7842                 3.3320                 1.4993
 Frc consts  --      0.3810                 0.7644                 0.3811
 IR Inten    --     96.1825                18.1830                24.4892

                     19                     20                     21
                      A                      A                      A
 Frequencies --    676.9977               683.7072               732.0669
 Red. masses --      2.0699                 2.8188                 3.6101
 Frc consts  --      0.5590                 0.7764                 1.1399
 IR Inten    --     61.1505                65.7451                38.7895

                     22                     23                     24
                      A                      A                      A
 Frequencies --    753.4883               780.0686               855.8866
 Red. masses --      5.0495                 1.3987                 3.8837
 Frc consts  --      1.6891                 0.5015                 1.6762
 IR Inten    --      2.8391                36.7295                12.9939

                     25                     26                     27
                      A                      A                      A
 Frequencies --    875.3471               891.6963               909.8761
 Red. masses --      2.2815                 1.2770                 3.5530
 Frc consts  --      1.0300                 0.5982                 1.7330
 IR Inten    --     14.6990                 0.0562                 9.6822

                     28                     29                     30
                      A                      A                      A
 Frequencies --    997.2253              1032.6417              1072.4527
 Red. masses --      1.8362                 1.1370                 1.7371
 Frc consts  --      1.0759                 0.7144                 1.1772
 IR Inten    --     39.2340                36.4972                 6.4710

                     31                     32                     33
                      A                      A                      A
 Frequencies --   1101.4145              1116.2386              1130.8428
 Red. masses --      3.1653                 1.1599                 2.7563
 Frc consts  --      2.2624                 0.8515                 2.0767
 IR Inten    --     18.2269                 2.7161                56.1100

                     34                     35                     36
                      A                      A                      A
 Frequencies --   1203.7289              1233.4683              1263.4605
 Red. masses --      1.6754                 1.4459                 1.3780
 Frc consts  --      1.4303                 1.2961                 1.2961
 IR Inten    --    148.8348               121.6204                22.6901

                     37                     38                     39
                      A                      A                      A
 Frequencies --   1289.2080              1314.8198              1332.6928
 Red. masses --      3.1106                 1.3174                 1.3548
 Frc consts  --      3.0460                 1.3418                 1.4177
 IR Inten    --     40.8480                20.5079                 1.1615

                     40                     41                     42
                      A                      A                      A
 Frequencies --   1372.9259              1399.8108              1407.0954
 Red. masses --      1.5507                 2.8450                 1.7672
 Frc consts  --      1.7222                 3.2845                 2.0615
 IR Inten    --     35.3506               105.1908                56.5729

                     43                     44                     45
                      A                      A                      A
 Frequencies --   1499.5629              1524.1124              1540.7540
 Red. masses --      1.6379                 1.0812                 3.9817
 Frc consts  --      2.1701                 1.4797                 5.5691
 IR Inten    --      4.0777                12.1535               118.6756

                     46                     47                     48
                      A                      A                      A
 Frequencies --   1613.9987              1729.6039              1830.1026
 Red. masses --      4.7947                 6.5312                 9.0495
 Frc consts  --      7.3590                11.5117                17.8577
 IR Inten    --    155.2596                16.8858               385.6256

                     49                     50                     51
                      A                      A                      A
 Frequencies --   2995.1607              3048.2049              3201.9201
 Red. masses --      1.0658                 1.0951                 1.0934
 Frc consts  --      5.6332                 5.9951                 6.6048
 IR Inten    --     41.0988                13.2233                 0.1573

                     52                     53                     54
                      A                      A                      A
 Frequencies --   3210.1802              3210.7039              3225.4513
 Red. masses --      1.0878                 1.0887                 1.0951
 Frc consts  --      6.6049                 6.6126                 6.7123
 IR Inten    --      4.3732                13.4582                 8.4435

                     55                     56                     57
                      A                      A                      A
 Frequencies --   3279.6736              3547.3966              3702.4055
 Red. masses --      1.0967                 1.0750                 1.0643
 Frc consts  --      6.9505                 7.9700                 8.5953
 IR Inten    --      0.8978                13.6806                71.4174

 - Thermochemistry -
 -------------------
 Temperature   298.150 Kelvin.  Pressure   1.00000 Atm.
 Atom     1 has atomic number  6 and mass  12.00000

 Molecular mass:   183.03540 amu.
 Principal axes and moments of inertia in atomic units:
                           1         2         3
     Eigenvalues --   561.522197200.225087404.90269
           X            0.99998   0.00415  -0.00403
           Y           -0.00412   0.99996   0.00737
           Z            0.00406  -0.00736   0.99996
 This molecule is an asymmetric top.
 Rotational symmetry number  1.
 Warning -- assumption of classical behavior for rotation
           may cause significant error
 Rotational temperatures (Kelvin)      0.15425     0.01203     0.01170
 Rotational constants (GHZ):           3.21402     0.25065     0.24372
 Zero-point vibrational energy     422408.0 (Joules/Mol)
                                  100.95793 (Kcal/Mol)
 Warning -- explicit consideration of  16 degrees of freedom as
           vibrations may cause significant error
 Vibrational temperatures:     30.51    48.32    75.57    98.09   200.42
          (Kelvin)            209.41   293.27   361.87   427.96   524.96
                              602.46   713.78   747.35   797.67   842.02
                              866.19   897.80   944.96   974.05   983.70
                             1053.28  1084.10  1122.34  1231.43  1259.43
                             1282.95  1309.11  1434.78  1485.74  1543.02
                             1584.69  1606.02  1627.03  1731.90  1774.69
                             1817.84  1854.88  1891.73  1917.45  1975.33
                             2014.02  2024.50  2157.54  2192.86  2216.80
                             2322.18  2488.51  2633.11  4309.37  4385.69
                             4606.85  4618.73  4619.49  4640.70  4718.72
                             5103.91  5326.94

 Zero-point correction=                           0.160887 (Hartree/Particle)
 Thermal correction to Energy=                    0.172791
 Thermal correction to Enthalpy=                  0.173735
 Thermal correction to Gibbs Free Energy=         0.119879
 Sum of electronic and zero-point Energies=           -913.500514
 Sum of electronic and thermal Energies=              -913.488610
 Sum of electronic and thermal Enthalpies=            -913.487665
 Sum of electronic and thermal Free Energies=         -913.541522

                     E (Thermal)             CV                S
                      KCal/Mol        Cal/Mol-Kelvin    Cal/Mol-Kelvin
 Total                  108.428             42.989            113.351
 Electronic               0.000              0.000              0.000
 Translational            0.889              2.981             41.520
 Rotational               0.889              2.981             31.771
 Vibrational            106.651             37.027             40.060
 Vibration     1          0.593              1.985              6.518
 Vibration     2          0.594              1.983              5.606
 Vibration     3          0.596              1.977              4.720
 Vibration     4          0.598              1.969              4.205
 Vibration     5          0.615              1.914              2.813
 Vibration     6          0.617              1.907              2.730
 Vibration     7          0.640              1.834              2.098
 Vibration     8          0.663              1.760              1.720
 Vibration     9          0.691              1.678              1.431
 Vibration    10          0.738              1.545              1.101
 Vibration    11          0.782              1.430              0.896
 Vibration    12          0.852              1.259              0.668
 Vibration    13          0.874              1.207              0.611
 Vibration    14          0.910              1.130              0.535
 Vibration    15          0.942              1.063              0.476
 Vibration    16          0.960              1.027              0.446

 Optimization completed.
    -- Stationary point found.
 Normal termination of Gaussian 16 at Wed Dec  9 18:22:15 2020.

 ----------------------------------------------------------------------
 # B3LYP/6-311++G(d,p) empiricaldispersion=gd3bj scf=xqc pop=npa geom=c
 heck
 ----------------------------------------------------------------------

 ---------------------------------------
 CID_115236851_JID_2967_Energie_neutraal
 ---------------------------------------
 Structure from the checkpoint file:  "JID_2967.chk"
 Charge =  0 Multiplicity = 1

 SCF Done:  E(RB3LYP) =  -913.848587163     A.U. after   16 cycles
 Normal termination of Gaussian 16 at Wed Dec  9 18:24:11 2020.

 ----------------------------------------------------------------------
 # B3LYP/6-311++G(d,p) empiricaldispersion=gd3bj scf=xqc pop=npa geom=c
 heck
 ----------------------------------------------------------------------

 -------------------------------------
 CID_115236851_JID_2967_Energie_kation
 -------------------------------------
 Structure from the checkpoint file:  "JID_2967.chk"
 Charge =  1 Multiplicity = 2

 SCF Done:  E(UB3LYP) =  -913.571560884     A.U. after   23 cycles
 Normal termination of Gaussian 16 at Wed Dec  9 18:26:52 2020.
 Gaussian 16:  ES64L-G16RevA.03 25-Dec-2016

 ----------------------------------------------------------------------
 # B3LYP/6-311++G(d,p) empiricaldispersion=gd3bj scf=xqc pop=npa geom=c
 heck
 ----------------------------------------------------------------------

 ------------------------------------
 CID_115236851_JID_2967_Energie_anion
 ------------------------------------
 Structure from the checkpoint file:  "JID_2967.chk"
 Charge = -1 Multiplicity = 2

                         Standard orientation:
 ---------------------------------------------------------------------
 Center     Atomic      Atomic             Coordinates (Angstroms)
 Number     Number       Type             X           Y           Z
 ---------------------------------------------------------------------
      1          6           0        4.191708    0.938514   -0.244732
      2          6           0        4.283044   -0.407197   -0.049305
      3         16           0        2.705918   -1.118644    0.203054
      4          6           0        1.927669    0.447181    0.039787
      5          6           0        2.851754    1.434321   -0.200567
      6          7           0        0.553619    0.588072    0.220710
      7          6           0       -0.330230   -0.526515   -0.112203
      8          6           0       -1.736572   -0.196382    0.285298
      9          6           0       -2.783136   -0.282171   -0.543105
     10          6           0       -4.176333    0.021841   -0.158729
     11          8           0       -5.123567   -0.061950   -0.913971
     12          8           0       -4.309520    0.414102    1.135859
     13          1           0        5.054248    1.571125   -0.424758
     14          1           0        5.158617   -1.040201   -0.047057
     15          1           0        2.582699    2.476846   -0.332692
     16          1           0        0.218894    1.468681   -0.157003
     17          1           0       -0.277976   -0.814506   -1.174810
     18          1           0        0.001475   -1.396070    0.472290
     19          1           0       -1.880947    0.130473    1.312266
     20          1           0       -2.668855   -0.593856   -1.577364
     21          1           0       -5.260912    0.584530    1.261540
 ---------------------------------------------------------------------

 SCF Done:  E(UB3LYP) =  -913.854522154     A.U. after   33 cycles
 SCF Done:  E(UB3LYP) =  -913.854522154     a.u. after    1 cycles

 The electronic state is 2-A.
 Alpha  occ. eigenvalues --  -88.76937 -19.02048 -18.94337 -14.21921 -10.13096
 Alpha  occ. eigenvalues --  -10.12762 -10.08607 -10.08475 -10.07500 -10.06224
 Alpha  occ. eigenvalues --  -10.01606 -10.01511  -7.85534  -5.81837  -5.81476
 Alpha  occ. eigenvalues --   -5.81102  -0.95467  -0.86016  -0.83515  -0.75870
 Alpha  occ. eigenvalues --   -0.65955  -0.63167  -0.60961  -0.56393  -0.48731
 Alpha  occ. eigenvalues --   -0.46378  -0.45006  -0.43057  -0.41506  -0.37398
 Alpha  occ. eigenvalues --   -0.34225  -0.33620  -0.33322  -0.30920  -0.30003
 Alpha  occ. eigenvalues --   -0.29827  -0.28124  -0.27674  -0.27308  -0.24520
 Alpha  occ. eigenvalues --   -0.23831  -0.22516  -0.19268  -0.18146  -0.15162
 Alpha  occ. eigenvalues --   -0.13516  -0.12715  -0.09239   0.04745
 Alpha virt. eigenvalues --    0.06161   0.08079   0.08898   0.09254   0.09544
 Alpha virt. eigenvalues --    0.10598   0.11549   0.12059   0.12939   0.13305
 Alpha virt. eigenvalues --    0.13630   0.14497   0.14809   0.15934   0.16130

  Beta  occ. eigenvalues --  -88.76935 -19.02007 -18.93984 -14.21840 -10.13079
  Beta  occ. eigenvalues --  -10.12502 -10.08641 -10.08427 -10.07492 -10.06228
  Beta  occ. eigenvalues --  -10.01410 -10.01093  -7.85532  -5.81829  -5.81476
  Beta  occ. eigenvalues --   -5.81101  -0.95190  -0.85512  -0.83408  -0.75799
  Beta  occ. eigenvalues --   -0.65358  -0.63111  -0.60723  -0.56077  -0.48257
  Beta  occ. eigenvalues --   -0.46265  -0.44903  -0.42531  -0.41369  -0.37250
  Beta  occ. eigenvalues --   -0.34002  -0.33372  -0.33117  -0.30707  -0.29791
  Beta  occ. eigenvalues --   -0.28739  -0.27849  -0.27609  -0.27201  -0.24270
  Beta  occ. eigenvalues --   -0.23690  -0.22243  -0.19139  -0.16915  -0.15152
  Beta  occ. eigenvalues --   -0.12371  -0.11250  -0.09166
  Beta virt. eigenvalues --    0.06893   0.08346   0.08963   0.09261   0.09555
  Beta virt. eigenvalues --    0.10560   0.11066   0.11514   0.12389   0.13064
  Beta virt. eigenvalues --    0.13256   0.13629   0.14458   0.14906   0.15992

 Mulliken charges and spin densities:
               1          2
     1  C   -0.281193  -0.587967
     2  C    0.615935  -0.317184
     3  S   -0.293062  -0.027520
     4  C   -0.819583  -0.248786
     5  C    0.936162   0.261160
     6  N    0.171227  -0.009475
     7  C   -1.140894   0.089335
     8  C    0.243518   0.369448
     9  C   -0.120562   0.033356
    10  C   -0.094627   0.220383
    11  O   -0.422804   0.111442
    12  O   -0.244868   0.010540
    13  H   -0.097395   0.218097
    14  H   -0.621658   0.866230
    15  H    0.142770   0.000474
    16  H    0.188421   0.030489
    17  H    0.142556  -0.004661
    18  H    0.114937   0.023212
    19  H    0.188328  -0.025727
    20  H    0.142076  -0.012494
    21  H    0.250716  -0.000354
 Sum of Mulliken charges =  -1.00000   1.00000

 Dipole moment (field-independent basis, Debye):
    X=              2.7162    Y=              1.7554    Z=              1.1334  Tot=              3.4270
 Quadrupole moment (field-independent basis, Debye-Ang):
   XX=           -183.7873   YY=            -86.7758   ZZ=            -92.0337
   XY=              3.0385   XZ=            -11.3485   YZ=             -1.1583

 Summary of Natural Population Analysis:

                                       Natural Population
                Natural  -----------------------------------------------
    Atom  No    Charge         Core      Valence    Rydberg      Total
 -----------------------------------------------------------------------
      C    1   -0.12234      0.99954     2.11149    0.01131     3.12234
      C    2   -0.21205      0.99954     2.19927    0.01323     3.21205
      S    3    0.18052      4.99943     2.79896    0.02109     7.81948
      C    4    0.02552      0.99949     1.96008    0.01491     2.97448
      C    5   -0.17692      0.99948     2.16705    0.01039     3.17692
      N    6   -0.30927      0.99966     2.79753    0.01208     3.80927
      C    7   -0.10503      0.99961     2.09576    0.00966     3.10503
      C    8    0.01345      0.99954     1.97762    0.00939     2.98655
      C    9   -0.14259      0.99947     2.13330    0.00982     3.14259
      C   10    0.41424      0.99969     1.56179    0.02427     2.58576
      O   11   -0.30130      0.99987     3.29440    0.00702     4.30130
      O   12   -0.36064      0.99988     3.35223    0.00854     4.36064
      H   13    0.10298      0.00000     0.39615    0.00087     0.39702
      H   14    0.10923      0.00000     0.38877    0.00201     0.39077
      H   15    0.10249      0.00000     0.39661    0.00090     0.39751
      H   16    0.18553      0.00000     0.31227    0.00220     0.31447
      H   17    0.08335      0.00000     0.41458    0.00207     0.41665
      H   18    0.09945      0.00000     0.39917    0.00138     0.40055
      H   19    0.09222      0.00000     0.40656    0.00122     0.40778
      H   20    0.09105      0.00000     0.40783    0.00112     0.40895
      H   21    0.23011      0.00000     0.26681    0.00308     0.26989
 =======================================================================
   * Total *    0.00000     15.99520    31.83823    0.16657    48.00000

 Normal termination of Gaussian 16 at Wed Dec  9 18:30:49 2020.
