 Gaussian 16, Revision A.03,

 -----------------------------------------------------------
 # opt freq B3LYP/6-31G(d) empiricaldispersion=gd3bj scf=xqc
 -----------------------------------------------------------

 -------------------------------
 CID_61329031_JID_10748_neutraal
 -------------------------------
 Symbolic Z-matrix:
 Charge =  0 Multiplicity = 1

 SCF Done:  E(RB3LYP) =  -990.714913786     A.U. after   15 cycles
 SCF Done:  E(RB3LYP) =  -990.721358255     A.U. after   13 cycles
 SCF Done:  E(RB3LYP) =  -990.719909905     A.U. after   13 cycles
 SCF Done:  E(RB3LYP) =  -990.722213891     A.U. after   13 cycles
 SCF Done:  E(RB3LYP) =  -990.723825021     A.U. after   13 cycles
 SCF Done:  E(RB3LYP) =  -990.725142726     A.U. after   13 cycles
 SCF Done:  E(RB3LYP) =  -990.726588207     A.U. after   13 cycles
 SCF Done:  E(RB3LYP) =  -990.727396768     A.U. after   13 cycles
 SCF Done:  E(RB3LYP) =  -990.727530185     A.U. after   12 cycles
 SCF Done:  E(RB3LYP) =  -990.727723488     A.U. after   12 cycles
 SCF Done:  E(RB3LYP) =  -990.727887779     A.U. after    8 cycles
 SCF Done:  E(RB3LYP) =  -990.727888087     A.U. after    8 cycles
 SCF Done:  E(RB3LYP) =  -990.727888346     A.U. after    8 cycles
 SCF Done:  E(RB3LYP) =  -990.727888480     A.U. after    8 cycles
 SCF Done:  E(RB3LYP) =  -990.727888525     A.U. after    7 cycles
 Optimization completed.
    -- Stationary point found.
 Normal termination of Gaussian 16 at Sat Dec 12 16:37:09 2020.

 --------------------------------------------------------------------
 #N Geom=AllCheck Guess=TCheck SCRF=Check GenChk RB3LYP/6-31G(d) Freq
 --------------------------------------------------------------------

 Structure from the checkpoint file:  "JID_10748.chk"
 -------------------------------
 CID_61329031_JID_10748_neutraal
 -------------------------------
 Charge =  0 Multiplicity = 1

 SCF Done:  E(RB3LYP) =  -990.727888525     A.U. after    1 cycles

  Exact polarizability: 242.948  11.824 164.296   5.859   0.272 101.609
 Approx polarizability: 321.058  24.540 272.187  21.633   2.528 158.010

                      1                      2                      3
                      A                      A                      A
 Frequencies --     21.1606                29.2196                36.0803
 Red. masses --      5.6514                 7.6455                 7.7381
 Frc consts  --      0.0015                 0.0038                 0.0059
 IR Inten    --      2.0337                 0.1837                 4.4211

                      4                      5                      6
                      A                      A                      A
 Frequencies --     45.3457                59.5151                62.2033
 Red. masses --      5.2172                 5.4509                 5.3481
 Frc consts  --      0.0063                 0.0114                 0.0122
 IR Inten    --      0.1403                 0.4624                 1.6868

                      7                      8                      9
                      A                      A                      A
 Frequencies --     83.4406               104.4457               115.3498
 Red. masses --      5.0272                 4.2459                 2.3549
 Frc consts  --      0.0206                 0.0273                 0.0185
 IR Inten    --      0.8856                 0.9714                 6.0023

                     10                     11                     12
                      A                      A                      A
 Frequencies --    134.7240               146.2357               170.8350
 Red. masses --      2.4564                 2.5420                 2.6340
 Frc consts  --      0.0263                 0.0320                 0.0453
 IR Inten    --      0.6021                 5.9024                 2.8177

                     13                     14                     15
                      A                      A                      A
 Frequencies --    173.7698               179.9695               220.7479
 Red. masses --      3.4235                 1.1761                 3.2592
 Frc consts  --      0.0609                 0.0224                 0.0936
 IR Inten    --      4.1814                 0.2713                 1.8293

                     16                     17                     18
                      A                      A                      A
 Frequencies --    262.6553               281.1870               304.2337
 Red. masses --      4.5000                 5.3828                 5.9584
 Frc consts  --      0.1829                 0.2508                 0.3249
 IR Inten    --      1.2091                 0.5470                 7.8602

                     19                     20                     21
                      A                      A                      A
 Frequencies --    320.0627               359.2895               378.1307
 Red. masses --      4.5588                 4.0217                 3.4877
 Frc consts  --      0.2751                 0.3059                 0.2938
 IR Inten    --      4.6385                 4.5449                11.2047

                     22                     23                     24
                      A                      A                      A
 Frequencies --    409.1103               460.8765               480.8386
 Red. masses --      3.3818                 3.4747                 4.0250
 Frc consts  --      0.3335                 0.4348                 0.5483
 IR Inten    --     14.0137                 0.1686                13.1395

                     25                     26                     27
                      A                      A                      A
 Frequencies --    495.7875               512.7070               527.3512
 Red. masses --      2.3405                 3.9544                 3.0400
 Frc consts  --      0.3390                 0.6124                 0.4981
 IR Inten    --      9.8633                11.5907                11.3444

                     28                     29                     30
                      A                      A                      A
 Frequencies --    540.9509               562.7069               580.7985
 Red. masses --      2.9812                 4.2866                 2.0508
 Frc consts  --      0.5140                 0.7997                 0.4076
 IR Inten    --     17.3310                15.3970                47.4748

                     31                     32                     33
                      A                      A                      A
 Frequencies --    609.3814               614.8459               623.5004
 Red. masses --      3.1413                 3.2402                 1.6888
 Frc consts  --      0.6873                 0.7217                 0.3868
 IR Inten    --     45.6569                28.5240               101.2267

                     34                     35                     36
                      A                      A                      A
 Frequencies --    660.7558               698.7850               704.7349
 Red. masses --      2.4327                 1.5801                 3.6492
 Frc consts  --      0.6258                 0.4546                 1.0678
 IR Inten    --     12.7791                63.5639                70.4980

                     37                     38                     39
                      A                      A                      A
 Frequencies --    725.4983               739.7534               776.3425
 Red. masses --      4.8816                 4.4353                 4.3659
 Frc consts  --      1.5139                 1.4300                 1.5504
 IR Inten    --     19.9151                 8.0567                41.4662

                     40                     41                     42
                      A                      A                      A
 Frequencies --    847.8916               851.7929               888.7862
 Red. masses --      4.7847                 5.1358                 1.4487
 Frc consts  --      2.0267                 2.1954                 0.6743
 IR Inten    --      5.3788                20.4574                20.3025

                     43                     44                     45
                      A                      A                      A
 Frequencies --    904.7908               922.5588               943.6090
 Red. masses --      4.6057                 1.3508                 4.5779
 Frc consts  --      2.2215                 0.6774                 2.4016
 IR Inten    --      8.4979                12.5433                 1.3574

                     46                     47                     48
                      A                      A                      A
 Frequencies --    959.4210              1003.6900              1019.1717
 Red. masses --      3.9107                 1.3082                 1.9257
 Frc consts  --      2.1209                 0.7764                 1.1785
 IR Inten    --     16.5569                 7.5754                 8.3395

                     49                     50                     51
                      A                      A                      A
 Frequencies --   1025.8514              1051.7513              1072.7667
 Red. masses --      1.5808                 1.9623                 1.8549
 Frc consts  --      0.9802                 1.2789                 1.2577
 IR Inten    --     13.4857                57.8490                32.3070

                     52                     53                     54
                      A                      A                      A
 Frequencies --   1076.0742              1141.8285              1147.8351
 Red. masses --      1.6529                 2.8317                 2.8297
 Frc consts  --      1.1276                 2.1752                 2.1966
 IR Inten    --     10.8143                58.5575               217.4476

                     55                     56                     57
                      A                      A                      A
 Frequencies --   1156.0798              1185.7644              1194.9825
 Red. masses --      1.3461                 1.6965                 2.2624
 Frc consts  --      1.0600                 1.4054                 1.9034
 IR Inten    --      8.2059                 5.3004                23.0442

                     58                     59                     60
                      A                      A                      A
 Frequencies --   1200.1811              1227.9284              1275.4903
 Red. masses --      2.1628                 1.8103                 1.5225
 Frc consts  --      1.8355                 1.6082                 1.4594
 IR Inten    --    225.8134                 1.7834                22.6680

                     61                     62                     63
                      A                      A                      A
 Frequencies --   1292.0144              1334.9830              1335.1196
 Red. masses --      2.0134                 1.4684                 1.2378
 Frc consts  --      1.9803                 1.5419                 1.3000
 IR Inten    --     16.7631                39.3714                 2.9922

                     64                     65                     66
                      A                      A                      A
 Frequencies --   1354.0866              1362.8060              1392.0904
 Red. masses --      4.4568                 1.7103                 2.8356
 Frc consts  --      4.8147                 1.8715                 3.2376
 IR Inten    --     19.7868               145.7676               332.5782

                     67                     68                     69
                      A                      A                      A
 Frequencies --   1393.7364              1404.9712              1429.3060
 Red. masses --      2.0456                 1.6643                 1.6837
 Frc consts  --      2.3411                 1.9356                 2.0266
 IR Inten    --     65.3664                20.7657               117.5113

                     70                     71                     72
                      A                      A                      A
 Frequencies --   1445.6975              1454.5489              1475.1402
 Red. masses --      1.3032                 3.2526                 1.8226
 Frc consts  --      1.6048                 4.0545                 2.3367
 IR Inten    --      9.8370                 2.8659                53.4143

                     73                     74                     75
                      A                      A                      A
 Frequencies --   1483.3949              1493.4105              1496.2796
 Red. masses --      1.7048                 1.0849                 1.2051
 Frc consts  --      2.2102                 1.4256                 1.5896
 IR Inten    --     43.8057                 5.4860                39.9856

                     76                     77                     78
                      A                      A                      A
 Frequencies --   1515.7393              1523.5400              1526.0041
 Red. masses --      1.0545                 1.0620                 1.0851
 Frc consts  --      1.4275                 1.4523                 1.4888
 IR Inten    --      9.2825                 5.6457                12.2936

                     79                     80                     81
                      A                      A                      A
 Frequencies --   1532.6226              1551.4780              1563.2251
 Red. masses --      1.1619                 1.1489                 2.3801
 Frc consts  --      1.6080                 1.6293                 3.4267
 IR Inten    --      2.1572                62.6041                22.7998

                     82                     83                     84
                      A                      A                      A
 Frequencies --   1632.8751              1669.7686              1766.3205
 Red. masses --      6.3606                 5.7593                 7.9944
 Frc consts  --      9.9920                 9.4610                14.6952
 IR Inten    --     25.3841                62.7735               351.6453

                     85                     86                     87
                      A                      A                      A
 Frequencies --   1773.0310              1852.7589              3030.0023
 Red. masses --      7.6619                10.0877                 1.0468
 Frc consts  --     14.1911                20.4023                 5.6625
 IR Inten    --    444.5062               310.0822                25.9589

                     88                     89                     90
                      A                      A                      A
 Frequencies --   3039.8401              3068.8687              3088.7694
 Red. masses --      1.0429                 1.0621                 1.0913
 Frc consts  --      5.6781                 5.8935                 6.1341
 IR Inten    --     58.9316                22.6704                15.5732

                     91                     92                     93
                      A                      A                      A
 Frequencies --   3093.0303              3098.3624              3128.2265
 Red. masses --      1.0610                 1.0986                 1.1018
 Frc consts  --      5.9802                 6.2136                 6.3527
 IR Inten    --     14.6052                33.6405                 4.3577

                     94                     95                     96
                      A                      A                      A
 Frequencies --   3136.6059              3159.2474              3160.7722
 Red. masses --      1.1000                 1.1061                 1.0993
 Frc consts  --      6.3763                 6.5043                 6.4706
 IR Inten    --     13.6642                13.8439                14.9306

                     97                     98                     99
                      A                      A                      A
 Frequencies --   3199.8801              3220.5870              3232.3268
 Red. masses --      1.0898                 1.0889                 1.0949
 Frc consts  --      6.5745                 6.6547                 6.7400
 IR Inten    --     10.0463                 4.6649                 2.6486

                    100                    101                    102
                      A                      A                      A
 Frequencies --   3570.8677              3593.6171              3680.2165
 Red. masses --      1.0750                 1.0755                 1.0640
 Frc consts  --      8.0761                 8.1836                 8.4909
 IR Inten    --     22.0130                29.5627                59.0656

 - Thermochemistry -
 -------------------
 Temperature   298.150 Kelvin.  Pressure   1.00000 Atm.
 Atom     1 has atomic number  6 and mass  12.00000

 Molecular mass:   280.10592 amu.
 Principal axes and moments of inertia in atomic units:
                           1         2         3
     Eigenvalues --  2577.12926********************
           X            0.99995  -0.00879  -0.00462
           Y            0.00874   0.99989  -0.01210
           Z            0.00472   0.01206   0.99992
 This molecule is an asymmetric top.
 Rotational symmetry number  1.
 Warning -- assumption of classical behavior for rotation
           may cause significant error
 Rotational temperatures (Kelvin)      0.03361     0.00655     0.00573
 Rotational constants (GHZ):           0.70029     0.13658     0.11945
 Zero-point vibrational energy     758837.6 (Joules/Mol)
                                  181.36654 (Kcal/Mol)
 Warning -- explicit consideration of  32 degrees of freedom as
           vibrations may cause significant error
 Vibrational temperatures:     30.45    42.04    51.91    65.24    85.63
          (Kelvin)             89.50   120.05   150.27   165.96   193.84
                              210.40   245.79   250.02   258.94   317.61
                              377.90   404.57   437.72   460.50   516.94
                              544.05   588.62   663.10   691.82   713.33
                              737.67   758.74   778.31   809.61   835.64
                              876.76   884.63   897.08   950.68  1005.40
                             1013.96  1043.83  1064.34  1116.98  1219.93
                             1225.54  1278.77  1301.79  1327.36  1357.64
                             1380.39  1444.09  1466.36  1475.97  1513.24
                             1543.47  1548.23  1642.84  1651.48  1663.34
                             1706.05  1719.31  1726.79  1766.72  1835.15
                             1858.92  1920.74  1920.94  1948.23  1960.77
                             2002.91  2005.28  2021.44  2056.45  2080.04
                             2092.77  2122.40  2134.27  2148.68  2152.81
                             2180.81  2192.03  2195.58  2205.10  2232.23
                             2249.13  2349.34  2402.42  2541.34  2551.00
                             2665.71  4359.50  4373.65  4415.42  4444.05
                             4450.18  4457.85  4500.82  4512.88  4545.45
                             4547.65  4603.91  4633.71  4650.60  5137.68
                             5170.41  5295.01

 Zero-point correction=                           0.289026 (Hartree/Particle)
 Thermal correction to Energy=                    0.309162
 Thermal correction to Enthalpy=                  0.310106
 Thermal correction to Gibbs Free Energy=         0.237299
 Sum of electronic and zero-point Energies=           -990.438863
 Sum of electronic and thermal Energies=              -990.418727
 Sum of electronic and thermal Enthalpies=            -990.417783
 Sum of electronic and thermal Free Energies=         -990.490589

                     E (Thermal)             CV                S
                      KCal/Mol        Cal/Mol-Kelvin    Cal/Mol-Kelvin
 Total                  194.002             72.963            153.234
 Electronic               0.000              0.000              0.000
 Translational            0.889              2.981             42.788
 Rotational               0.889              2.981             34.597
 Vibrational            192.224             67.001             75.849
 Vibration     1          0.593              1.985              6.522
 Vibration     2          0.593              1.984              5.882
 Vibration     3          0.594              1.982              5.463
 Vibration     4          0.595              1.979              5.011
 Vibration     5          0.597              1.974              4.473
 Vibration     6          0.597              1.972              4.386
 Vibration     7          0.600              1.961              3.808
 Vibration     8          0.605              1.946              3.370
 Vibration     9          0.608              1.937              3.177
 Vibration    10          0.613              1.919              2.877
 Vibration    11          0.617              1.907              2.721
 Vibration    12          0.626              1.878              2.426
 Vibration    13          0.627              1.875              2.394
 Vibration    14          0.629              1.867              2.329
 Vibration    15          0.647              1.809              1.953
 Vibration    16          0.670              1.741              1.644
 Vibration    17          0.681              1.708              1.526
 Vibration    18          0.695              1.666              1.394
 Vibration    19          0.706              1.635              1.310
 Vibration    20          0.734              1.556              1.125
 Vibration    21          0.748              1.517              1.047
 Vibration    22          0.773              1.450              0.930
 Vibration    23          0.819              1.337              0.764
 Vibration    24          0.837              1.293              0.708
 Vibration    25          0.851              1.259              0.669
 Vibration    26          0.868              1.222              0.627
 Vibration    27          0.882              1.189              0.593
 Vibration    28          0.896              1.160              0.563
 Vibration    29          0.918              1.112              0.518
 Vibration    30          0.937              1.073              0.484
 Vibration    31          0.968              1.012              0.434
 Vibration    32          0.974              1.000              0.425

                           ! Non-Optimized Parameters !
 Normal termination of Gaussian 16 at Sat Dec 12 16:52:14 2020.

 ----------------------------------------------------------------------
 # B3LYP/6-311++G(d,p) empiricaldispersion=gd3bj scf=xqc pop=npa geom=c
 heck
 ----------------------------------------------------------------------

 ---------------------------------------
 CID_61329031_JID_10748_Energie_neutraal
 ---------------------------------------
 Structure from the checkpoint file:  "JID_10748.chk"
 Charge =  0 Multiplicity = 1

 SCF Done:  E(RB3LYP) =  -991.026455508     A.U. after   16 cycles
 Normal termination of Gaussian 16 at Sat Dec 12 16:58:36 2020.

 ----------------------------------------------------------------------
 # B3LYP/6-311++G(d,p) empiricaldispersion=gd3bj scf=xqc pop=npa geom=c
 heck
 ----------------------------------------------------------------------

 -------------------------------------
 CID_61329031_JID_10748_Energie_kation
 -------------------------------------
 Structure from the checkpoint file:  "JID_10748.chk"
 Charge =  1 Multiplicity = 2

 SCF Done:  E(UB3LYP) =  -990.723423030     A.U. after   28 cycles
 Normal termination of Gaussian 16 at Sat Dec 12 17:13:11 2020.
 Gaussian 16:  ES64L-G16RevA.03 25-Dec-2016

 ----------------------------------------------------------------------
 # B3LYP/6-311++G(d,p) empiricaldispersion=gd3bj scf=xqc pop=npa geom=c
 heck
 ----------------------------------------------------------------------

 ------------------------------------
 CID_61329031_JID_10748_Energie_anion
 ------------------------------------
 Structure from the checkpoint file:  "JID_10748.chk"
 Charge = -1 Multiplicity = 2

                         Standard orientation:
 ---------------------------------------------------------------------
 Center     Atomic      Atomic             Coordinates (Angstroms)
 Number     Number       Type             X           Y           Z
 ---------------------------------------------------------------------
      1          6           0       -1.814507    3.009267   -0.641663
      2          6           0       -1.764422    1.543957   -0.290083
      3          6           0       -0.556767    0.938313    0.113211
      4          6           0       -0.515774   -0.427807    0.423414
      5          6           0       -1.661180   -1.203536    0.295318
      6          6           0       -2.875704   -0.620432   -0.078626
      7          6           0       -2.907973    0.748769   -0.367081
      8          6           0       -4.062957   -1.519825   -0.242489
      9          8           0       -3.932867   -2.665231   -0.664512
     10          7           0       -5.306194   -1.016904    0.059358
     11          6           0       -5.637278    0.075571    0.963207
     12          7           0        0.592547    1.753250    0.225472
     13          6           0        1.914491    1.496924   -0.059534
     14          8           0        2.778213    2.320201    0.225010
     15          6           0        2.284744    0.175530   -0.727837
     16          8           0        2.626427   -0.804577    0.252942
     17          6           0        3.861841   -0.587127    0.905266
     18          6           0        5.094110   -1.029304    0.126679
     19          8           0        6.210677   -0.994031    0.590354
     20          8           0        4.819719   -1.456774   -1.125364
     21          1           0       -1.645299    3.650900    0.234931
     22          1           0       -1.050041    3.270422   -1.382727
     23          1           0       -2.791939    3.276714   -1.051960
     24          1           0        0.412491   -0.872098    0.764551
     25          1           0       -1.631678   -2.268745    0.496827
     26          1           0       -3.834623    1.206061   -0.700597
     27          1           0       -6.030793   -1.703909   -0.110091
     28          1           0       -6.044231    0.945301    0.431412
     29          1           0       -6.383833   -0.260535    1.690601
     30          1           0       -4.748936    0.392488    1.511704
     31          1           0        0.460578    2.693061    0.583339
     32          1           0        1.460634   -0.250111   -1.301775
     33          1           0        3.128135    0.373455   -1.395750
     34          1           0        4.006550    0.465196    1.178550
     35          1           0        3.838954   -1.172965    1.828639
     36          1           0        5.680478   -1.698155   -1.517583
 ---------------------------------------------------------------------

 SCF Done:  E(UB3LYP) =  -991.032892747     A.U. after   33 cycles
 SCF Done:  E(UB3LYP) =  -991.032892747     a.u. after    1 cycles

 The electronic state is 2-A.
 Alpha  occ. eigenvalues --  -19.09081 -19.04136 -19.03407 -18.97302 -18.95498
 Alpha  occ. eigenvalues --  -14.23440 -14.22006 -10.22403 -10.14917 -10.14278
 Alpha  occ. eigenvalues --  -10.13758 -10.11953 -10.11064 -10.08278 -10.07445
 Alpha  occ. eigenvalues --  -10.06513 -10.05307 -10.04530 -10.04441 -10.04160
 Alpha  occ. eigenvalues --   -1.03171  -0.95535  -0.94192  -0.92373  -0.90960
 Alpha  occ. eigenvalues --   -0.82228  -0.80508  -0.73134  -0.67180  -0.66263
 Alpha  occ. eigenvalues --   -0.63107  -0.60537  -0.60064  -0.58090  -0.53599
 Alpha  occ. eigenvalues --   -0.52694  -0.49659  -0.46574  -0.45199  -0.42632
 Alpha  occ. eigenvalues --   -0.41799  -0.41427  -0.40770  -0.39014  -0.38483
 Alpha  occ. eigenvalues --   -0.37646  -0.37089  -0.36032  -0.35130  -0.33943
 Alpha  occ. eigenvalues --   -0.32555  -0.32387  -0.31897  -0.31150  -0.30620
 Alpha  occ. eigenvalues --   -0.29863  -0.29561  -0.29390  -0.28870  -0.28619
 Alpha  occ. eigenvalues --   -0.27221  -0.25018  -0.24764  -0.24120  -0.23839
 Alpha  occ. eigenvalues --   -0.22542  -0.22249  -0.18784  -0.17907  -0.14682
 Alpha  occ. eigenvalues --   -0.14208  -0.13726  -0.13177  -0.11012   0.03965
 Alpha virt. eigenvalues --    0.05546   0.06206   0.07412   0.07765   0.08929
 Alpha virt. eigenvalues --    0.09164   0.09456   0.09910   0.10371   0.10898
 Alpha virt. eigenvalues --    0.10927   0.11172   0.12441   0.12561   0.12907

  Beta  occ. eigenvalues --  -19.09048 -19.04088 -19.03394 -18.97074 -18.95318
  Beta  occ. eigenvalues --  -14.23544 -14.21975 -10.22401 -10.14692 -10.14272
  Beta  occ. eigenvalues --  -10.13631 -10.11962 -10.11057 -10.07960 -10.07446
  Beta  occ. eigenvalues --  -10.06525 -10.05238 -10.04521 -10.04364 -10.03949
  Beta  occ. eigenvalues --   -1.03128  -0.95414  -0.94150  -0.92012  -0.90643
  Beta  occ. eigenvalues --   -0.82054  -0.80365  -0.72895  -0.67087  -0.66117
  Beta  occ. eigenvalues --   -0.62694  -0.60461  -0.59927  -0.57892  -0.53387
  Beta  occ. eigenvalues --   -0.52349  -0.49544  -0.46374  -0.45034  -0.42524
  Beta  occ. eigenvalues --   -0.41685  -0.41345  -0.40721  -0.38949  -0.38415
  Beta  occ. eigenvalues --   -0.37453  -0.36900  -0.35869  -0.35032  -0.33832
  Beta  occ. eigenvalues --   -0.32472  -0.32239  -0.31802  -0.31010  -0.30528
  Beta  occ. eigenvalues --   -0.29749  -0.29408  -0.29104  -0.28746  -0.28090
  Beta  occ. eigenvalues --   -0.26553  -0.24899  -0.24558  -0.23925  -0.23221
  Beta  occ. eigenvalues --   -0.22396  -0.22155  -0.18427  -0.17394  -0.14285
  Beta  occ. eigenvalues --   -0.14022  -0.13199  -0.12686  -0.09970
  Beta virt. eigenvalues --    0.06137   0.06319   0.07335   0.07759   0.08713
  Beta virt. eigenvalues --    0.08956   0.09183   0.09412   0.10109   0.10735
  Beta virt. eigenvalues --    0.10818   0.11165   0.11621   0.12441   0.12580

 Mulliken charges and spin densities:
               1          2
     1  C   -0.593769   0.016294
     2  C    0.362922  -0.025350
     3  C   -0.235090   0.177763
     4  C   -0.089437  -0.036248
     5  C   -0.273931   0.117683
     6  C    0.344870   0.065688
     7  C   -0.471204   0.056417
     8  C   -0.209643   0.110134
     9  O   -0.388695   0.063833
    10  N   -0.250896   0.014030
    11  C   -0.380413  -0.055757
    12  N   -0.097799  -0.029007
    13  C    0.064659   0.064370
    14  O   -0.353387   0.076945
    15  C   -0.480270  -0.017300
    16  O    0.050312  -0.013821
    17  C   -0.100900  -0.159584
    18  C    0.086689  -0.010322
    19  O   -0.295720   0.004443
    20  O   -0.182795  -0.016073
    21  H    0.139714  -0.006020
    22  H    0.160826   0.015365
    23  H    0.126149   0.006469
    24  H    0.219625   0.011353
    25  H    0.180385   0.003560
    26  H    0.120954   0.002440
    27  H    0.260420   0.035287
    28  H    0.144307   0.005244
    29  H    0.055382   0.055722
    30  H    0.159485   0.006828
    31  H    0.275874   0.024250
    32  H    0.211968  -0.011861
    33  H    0.112500   0.070253
    34  H    0.252348  -0.017712
    35  H    0.125156   0.059006
    36  H   -0.050597   0.335677
 Sum of Mulliken charges =  -1.00000   1.00000

 Dipole moment (field-independent basis, Debye):
    X=             -3.0193    Y=              3.5451    Z=              1.4512  Tot=              4.8775
 Quadrupole moment (field-independent basis, Debye-Ang):
   XX=           -203.9570   YY=           -151.0774   ZZ=           -128.2156
   XY=            -20.3287   XZ=             -9.0709   YZ=             -6.3393

 Summary of Natural Population Analysis:

                                       Natural Population
                Natural  -----------------------------------------------
    Atom  No    Charge         Core      Valence    Rydberg      Total
 -----------------------------------------------------------------------
      C    1   -0.29491      0.99966     2.29036    0.00489     3.29491
      C    2   -0.03754      0.99949     2.03034    0.00771     3.03754
      C    3    0.12335      0.99943     1.86662    0.01060     2.87665
      C    4   -0.12125      0.99953     2.11357    0.00814     3.12125
      C    5   -0.08031      0.99960     2.06593    0.01477     3.08031
      C    6    0.01338      0.99946     1.97829    0.00887     2.98662
      C    7   -0.09802      0.99955     2.08481    0.01367     3.09802
      C    8    0.34230      0.99966     1.63313    0.02490     2.65770
      O    9   -0.31422      0.99988     3.30849    0.00586     4.31422
      N   10   -0.32448      0.99968     2.81522    0.00958     3.82448
      C   11   -0.18052      0.99966     2.17310    0.00776     3.18052
      N   12   -0.32141      0.99965     2.81156    0.01021     3.82141
      C   13    0.35376      0.99970     1.62475    0.02180     2.64624
      O   14   -0.31172      0.99988     3.30571    0.00614     4.31172
      C   15   -0.05403      0.99954     2.04327    0.01123     3.05403
      O   16   -0.28834      0.99989     3.27883    0.00962     4.28834
      C   17   -0.06544      0.99953     2.05357    0.01235     3.06544
      C   18    0.39247      0.99975     1.58170    0.02608     2.60753
      O   19   -0.30974      0.99987     3.30353    0.00634     4.30974
      O   20   -0.33881      0.99987     3.33149    0.00745     4.33881
      H   21    0.09487      0.00000     0.40405    0.00108     0.40513
      H   22    0.10280      0.00000     0.39609    0.00111     0.39720
      H   23    0.10172      0.00000     0.39783    0.00046     0.39828
      H   24    0.10966      0.00000     0.38842    0.00192     0.39034
      H   25    0.10366      0.00000     0.39489    0.00146     0.39634
      H   26    0.09232      0.00000     0.40597    0.00171     0.40768
      H   27    0.18491      0.00000     0.31185    0.00325     0.31509
      H   28    0.08412      0.00000     0.41422    0.00166     0.41588
      H   29    0.08743      0.00000     0.41105    0.00152     0.41257
      H   30    0.10712      0.00000     0.39189    0.00099     0.39288
      H   31    0.19535      0.00000     0.30274    0.00191     0.30465
      H   32    0.10312      0.00000     0.39577    0.00111     0.39688
      H   33    0.09424      0.00000     0.40425    0.00151     0.40576
      H   34    0.11340      0.00000     0.38507    0.00153     0.38660
      H   35    0.10372      0.00000     0.39524    0.00104     0.39628
      H   36    0.24027      0.00000     0.25302    0.00671     0.25973
 =======================================================================
   * Total *    0.00321     19.99327    53.74660    0.25692    73.99679

 Normal termination of Gaussian 16 at Sat Dec 12 17:30:27 2020.
