 Gaussian 16, Revision A.03,

 -----------------------------------------------------------
 # opt freq B3LYP/6-31G(d) empiricaldispersion=gd3bj scf=xqc
 -----------------------------------------------------------

 ------------------------------
 CID_67559822_JID_1109_neutraal
 ------------------------------
 Symbolic Z-matrix:
 Charge =  0 Multiplicity = 1

 SCF Done:  E(RB3LYP) =  -463.492671754     A.U. after   14 cycles
 SCF Done:  E(RB3LYP) =  -463.496033126     A.U. after   12 cycles
 SCF Done:  E(RB3LYP) =  -463.496316212     A.U. after   11 cycles
 SCF Done:  E(RB3LYP) =  -463.496401085     A.U. after   11 cycles
 SCF Done:  E(RB3LYP) =  -463.496451622     A.U. after   11 cycles
 SCF Done:  E(RB3LYP) =  -463.496451450     A.U. after   10 cycles
 SCF Done:  E(RB3LYP) =  -463.496508009     A.U. after   10 cycles
 SCF Done:  E(RB3LYP) =  -463.496621090     A.U. after   12 cycles
 SCF Done:  E(RB3LYP) =  -463.496652870     A.U. after   10 cycles
 SCF Done:  E(RB3LYP) =  -463.496665116     A.U. after   10 cycles
 SCF Done:  E(RB3LYP) =  -463.496669834     A.U. after   10 cycles
 SCF Done:  E(RB3LYP) =  -463.496670492     A.U. after    8 cycles
 SCF Done:  E(RB3LYP) =  -463.496670520     A.U. after    8 cycles
 Optimization completed.
    -- Stationary point found.
 Normal termination of Gaussian 16 at Tue Dec  8 19:14:21 2020.

 --------------------------------------------------------------------
 #N Geom=AllCheck Guess=TCheck SCRF=Check GenChk RB3LYP/6-31G(d) Freq
 --------------------------------------------------------------------

 Structure from the checkpoint file:  "JID_1109.chk"
 ------------------------------
 CID_67559822_JID_1109_neutraal
 ------------------------------
 Charge =  0 Multiplicity = 1

 SCF Done:  E(RB3LYP) =  -463.496670520     A.U. after    1 cycles

  Exact polarizability: 121.426  -1.410 104.750   7.331   1.273  71.710
 Approx polarizability: 157.305  -8.851 178.109  12.963   7.588 111.753

                      1                      2                      3
                      A                      A                      A
 Frequencies --     53.8587                80.7257                97.1145
 Red. masses --      2.6772                 4.5283                 3.0735
 Frc consts  --      0.0046                 0.0174                 0.0171
 IR Inten    --      0.0301                 1.2745                 0.2336

                      4                      5                      6
                      A                      A                      A
 Frequencies --    164.0766               205.0024               282.4408
 Red. masses --      3.3312                 1.2734                 2.9149
 Frc consts  --      0.0528                 0.0315                 0.1370
 IR Inten    --      0.3117                 0.1764                 2.4883

                      7                      8                      9
                      A                      A                      A
 Frequencies --    293.5583               391.7463               460.0187
 Red. masses --      2.3152                 2.7021                 2.9687
 Frc consts  --      0.1175                 0.2443                 0.3701
 IR Inten    --      2.4380                 0.4400                 9.4287

                     10                     11                     12
                      A                      A                      A
 Frequencies --    495.2997               537.6075               567.8212
 Red. masses --      5.0908                 3.5371                 3.4615
 Frc consts  --      0.7358                 0.6023                 0.6576
 IR Inten    --      1.1130                 1.9800                 5.5160

                     13                     14                     15
                      A                      A                      A
 Frequencies --    614.7438               673.9943               717.8985
 Red. masses --      4.8168                 2.4758                 2.0624
 Frc consts  --      1.0725                 0.6626                 0.6263
 IR Inten    --      2.6995                 7.5238                 5.0078

                     16                     17                     18
                      A                      A                      A
 Frequencies --    728.3360               761.7360               798.2974
 Red. masses --      1.5204                 2.5627                 1.3956
 Frc consts  --      0.4752                 0.8761                 0.5240
 IR Inten    --     24.2265                16.3112                 2.7536

                     19                     20                     21
                      A                      A                      A
 Frequencies --    803.2230               833.2842               929.8122
 Red. masses --      1.7519                 2.1925                 3.8183
 Frc consts  --      0.6659                 0.8970                 1.9450
 IR Inten    --     11.2971                31.9188                15.6033

                     22                     23                     24
                      A                      A                      A
 Frequencies --    949.1998               956.3885               978.1092
 Red. masses --      3.4764                 5.1528                 2.5832
 Frc consts  --      1.8454                 2.7769                 1.4561
 IR Inten    --     19.8861                17.0645                 5.3038

                     25                     26                     27
                      A                      A                      A
 Frequencies --    980.8744               996.5340              1000.7135
 Red. masses --      1.3086                 2.1763                 1.4280
 Frc consts  --      0.7418                 1.2734                 0.8426
 IR Inten    --      2.7523                13.7483                 1.3133

                     28                     29                     30
                      A                      A                      A
 Frequencies --   1019.7817              1039.5965              1088.3403
 Red. masses --      2.4082                 2.2683                 1.8689
 Frc consts  --      1.4755                 1.4444                 1.3043
 IR Inten    --     21.9232                21.1639                21.6512

                     31                     32                     33
                      A                      A                      A
 Frequencies --   1108.3611              1118.3305              1199.0224
 Red. masses --      1.5010                 1.8009                 1.1791
 Frc consts  --      1.0864                 1.3270                 0.9987
 IR Inten    --      0.4508                 4.6974                14.6359

                     34                     35                     36
                      A                      A                      A
 Frequencies --   1206.4131              1218.7556              1260.3751
 Red. masses --      1.9658                 1.0943                 1.3140
 Frc consts  --      1.6857                 0.9577                 1.2298
 IR Inten    --     21.8541                 1.1495                 9.0472

                     37                     38                     39
                      A                      A                      A
 Frequencies --   1276.8099              1317.1329              1353.1173
 Red. masses --      1.6081                 1.1808                 1.5570
 Frc consts  --      1.5446                 1.2069                 1.6796
 IR Inten    --     20.4268                 4.0262                 7.4417

                     40                     41                     42
                      A                      A                      A
 Frequencies --   1372.4097              1378.3520              1396.2587
 Red. masses --      1.3806                 1.5515                 1.7767
 Frc consts  --      1.5321                 1.7366                 2.0407
 IR Inten    --      0.4951                 4.8222                 9.5741

                     43                     44                     45
                      A                      A                      A
 Frequencies --   1421.4026              1434.2807              1463.3364
 Red. masses --      1.6381                 1.2422                 1.7151
 Frc consts  --      1.9499                 1.5057                 2.1639
 IR Inten    --      4.8480                 1.2232                 0.7372

                     46                     47                     48
                      A                      A                      A
 Frequencies --   1505.2488              1525.4294              1540.0916
 Red. masses --      1.0825                 1.0407                 1.0607
 Frc consts  --      1.4451                 1.4268                 1.4823
 IR Inten    --      2.6532                 6.3398                 3.9698

                     49                     50                     51
                      A                      A                      A
 Frequencies --   1668.9723              1735.2622              1740.9322
 Red. masses --      7.6657                 6.4511                 6.8041
 Frc consts  --     12.5806                11.4450                12.1502
 IR Inten    --      7.4708                19.0518                20.4256

                     52                     53                     54
                      A                      A                      A
 Frequencies --   3002.2029              3042.4609              3047.6860
 Red. masses --      1.0833                 1.0655                 1.0855
 Frc consts  --      5.7529                 5.8111                 5.9405
 IR Inten    --     22.6803                19.8896                51.4128

                     55                     56                     57
                      A                      A                      A
 Frequencies --   3057.8612              3096.4678              3124.4714
 Red. masses --      1.0353                 1.0971                 1.1034
 Frc consts  --      5.7037                 6.1980                 6.3463
 IR Inten    --     34.7536                11.7005                38.2815

                     58                     59                     60
                      A                      A                      A
 Frequencies --   3141.7308              3169.5390              3178.0201
 Red. masses --      1.1024                 1.0841                 1.0868
 Frc consts  --      6.4111                 6.4166                 6.4670
 IR Inten    --     28.4700                 0.4047                12.1456

                     61                     62                     63
                      A                      A                      A
 Frequencies --   3193.8139              3202.9064              3253.4004
 Red. masses --      1.0953                 1.0980                 1.0952
 Frc consts  --      6.5824                 6.6365                 6.8300
 IR Inten    --     41.8072                25.7566                 7.0131

 - Thermochemistry -
 -------------------
 Temperature   298.150 Kelvin.  Pressure   1.00000 Atm.
 Atom     1 has atomic number  6 and mass  12.00000

 Molecular mass:   148.08882 amu.
 Principal axes and moments of inertia in atomic units:
                           1         2         3
     Eigenvalues --   687.232482437.225042796.48806
           X            1.00000  -0.00265   0.00116
           Y            0.00266   0.99996  -0.00826
           Z           -0.00113   0.00826   0.99997
 This molecule is an asymmetric top.
 Rotational symmetry number  1.
 Warning -- assumption of classical behavior for rotation
           may cause significant error
 Rotational temperatures (Kelvin)      0.12603     0.03554     0.03097
 Rotational constants (GHZ):           2.62610     0.74049     0.64536
 Zero-point vibrational energy     515895.5 (Joules/Mol)
                                  123.30198 (Kcal/Mol)
 Warning -- explicit consideration of  13 degrees of freedom as
           vibrations may cause significant error
 Vibrational temperatures:     77.49   116.15   139.73   236.07   294.95
          (Kelvin)            406.37   422.36   563.64   661.86   712.63
                              773.50   816.97   884.48   969.73  1032.90
                             1047.91  1095.97  1148.57  1155.66  1198.91
                             1337.79  1365.69  1376.03  1407.28  1411.26
                             1433.79  1439.80  1467.24  1495.75  1565.88
                             1594.68  1609.03  1725.13  1735.76  1753.52
                             1813.40  1837.04  1895.06  1946.83  1974.59
                             1983.14  2008.90  2045.08  2063.61  2105.41
                             2165.72  2194.75  2215.85  2401.28  2496.66
                             2504.81  4319.50  4377.42  4384.94  4399.58
                             4455.13  4495.42  4520.25  4560.26  4572.46
                             4595.19  4608.27  4680.92

 Zero-point correction=                           0.196494 (Hartree/Particle)
 Thermal correction to Energy=                    0.206270
 Thermal correction to Enthalpy=                  0.207214
 Thermal correction to Gibbs Free Energy=         0.160855
 Sum of electronic and zero-point Energies=           -463.300176
 Sum of electronic and thermal Energies=              -463.290400
 Sum of electronic and thermal Enthalpies=            -463.289456
 Sum of electronic and thermal Free Energies=         -463.335816

                     E (Thermal)             CV                S
                      KCal/Mol        Cal/Mol-Kelvin    Cal/Mol-Kelvin
 Total                  129.436             37.903             97.572
 Electronic               0.000              0.000              0.000
 Translational            0.889              2.981             40.888
 Rotational               0.889              2.981             29.928
 Vibrational            127.659             31.941             26.756
 Vibration     1          0.596              1.976              4.670
 Vibration     2          0.600              1.962              3.873
 Vibration     3          0.603              1.951              3.511
 Vibration     4          0.623              1.887              2.502
 Vibration     5          0.640              1.833              2.088
 Vibration     6          0.681              1.706              1.519
 Vibration     7          0.688              1.686              1.453
 Vibration     8          0.759              1.488              0.993
 Vibration     9          0.818              1.339              0.766
 Vibration    10          0.851              1.260              0.670
 Vibration    11          0.893              1.167              0.570
 Vibration    12          0.924              1.101              0.508
 Vibration    13          0.974              1.001              0.425

 Optimization completed.
    -- Stationary point found.
 Normal termination of Gaussian 16 at Tue Dec  8 19:19:05 2020.

 ----------------------------------------------------------------------
 # B3LYP/6-311++G(d,p) empiricaldispersion=gd3bj scf=xqc pop=npa geom=c
 heck
 ----------------------------------------------------------------------

 --------------------------------------
 CID_67559822_JID_1109_Energie_neutraal
 --------------------------------------
 Structure from the checkpoint file:  "JID_1109.chk"
 Charge =  0 Multiplicity = 1

 SCF Done:  E(RB3LYP) =  -463.623638667     A.U. after   14 cycles
 Normal termination of Gaussian 16 at Tue Dec  8 19:21:05 2020.

 ----------------------------------------------------------------------
 # B3LYP/6-311++G(d,p) empiricaldispersion=gd3bj scf=xqc pop=npa geom=c
 heck
 ----------------------------------------------------------------------

 ------------------------------------
 CID_67559822_JID_1109_Energie_kation
 ------------------------------------
 Structure from the checkpoint file:  "JID_1109.chk"
 Charge =  1 Multiplicity = 2

 SCF Done:  E(UB3LYP) =  -463.339116808     A.U. after   22 cycles
 Normal termination of Gaussian 16 at Tue Dec  8 19:25:22 2020.
 Gaussian 16:  ES64L-G16RevA.03 25-Dec-2016

 ----------------------------------------------------------------------
 # B3LYP/6-311++G(d,p) empiricaldispersion=gd3bj scf=xqc pop=npa geom=c
 heck
 ----------------------------------------------------------------------

 -----------------------------------
 CID_67559822_JID_1109_Energie_anion
 -----------------------------------
 Structure from the checkpoint file:  "JID_1109.chk"
 Charge = -1 Multiplicity = 2

                         Standard orientation:
 ---------------------------------------------------------------------
 Center     Atomic      Atomic             Coordinates (Angstroms)
 Number     Number       Type             X           Y           Z
 ---------------------------------------------------------------------
      1          6           0        3.667922   -0.505792    0.043974
      2          6           0        2.662451    0.324448   -0.769261
      3          6           0        1.304863    0.350709   -0.146761
      4          6           0        0.581083    1.367219    0.332022
      5          6           0       -0.765937    0.851433    0.807694
      6          6           0       -1.910202    1.332708   -0.050785
      7          6           0       -2.774345    0.489905   -0.633202
      8          6           0       -2.647058   -0.959315   -0.472881
      9          6           0       -1.615832   -1.516510    0.178884
     10          6           0       -0.514423   -0.686407    0.763781
     11          8           0        0.703195   -0.877673   -0.034776
     12          1           0        3.798874   -0.082424    1.045776
     13          1           0        4.644866   -0.526509   -0.450393
     14          1           0        3.313761   -1.534650    0.154956
     15          1           0        3.015853    1.354971   -0.881572
     16          1           0        2.575407   -0.099581   -1.778851
     17          1           0        0.864814    2.410861    0.309675
     18          1           0       -0.968647    1.159368    1.844500
     19          1           0       -2.005912    2.408671   -0.179822
     20          1           0       -3.592732    0.869204   -1.239716
     21          1           0       -3.419535   -1.590312   -0.906202
     22          1           0       -1.524427   -2.595329    0.270248
     23          1           0       -0.259022   -1.043271    1.768823
 ---------------------------------------------------------------------

 SCF Done:  E(UB3LYP) =  -463.614604196     A.U. after   32 cycles

 The electronic state is 2-A.
 Alpha  occ. eigenvalues --  -19.00544 -10.09322 -10.09096 -10.05625 -10.05314
 Alpha  occ. eigenvalues --  -10.04454 -10.02952 -10.02619 -10.02469 -10.02359
 Alpha  occ. eigenvalues --  -10.01956  -0.92647  -0.70072  -0.67266  -0.64030
 Alpha  occ. eigenvalues --   -0.60415  -0.58129  -0.51238  -0.47911  -0.45631
 Alpha  occ. eigenvalues --   -0.42183  -0.38169  -0.36292  -0.35311  -0.32744
 Alpha  occ. eigenvalues --   -0.31677  -0.30254  -0.29214  -0.28230  -0.26950
 Alpha  occ. eigenvalues --   -0.25370  -0.23732  -0.23581  -0.22759  -0.21564
 Alpha  occ. eigenvalues --   -0.19411  -0.18487  -0.18039  -0.09442  -0.07999
 Alpha  occ. eigenvalues --    0.05217
 Alpha virt. eigenvalues --    0.07673   0.08681   0.09169   0.09554   0.10414
 Alpha virt. eigenvalues --    0.10882   0.11412   0.11829   0.12421   0.13554
 Alpha virt. eigenvalues --    0.13694   0.14490   0.15312   0.17161   0.17348

  Beta  occ. eigenvalues --  -19.00497 -10.09325 -10.09078 -10.05603 -10.05341
  Beta  occ. eigenvalues --  -10.04419 -10.02851 -10.02577 -10.02418 -10.02108
  Beta  occ. eigenvalues --  -10.01731  -0.92560  -0.69769  -0.67179  -0.63840
  Beta  occ. eigenvalues --   -0.60111  -0.57920  -0.51089  -0.47801  -0.45194
  Beta  occ. eigenvalues --   -0.42034  -0.38023  -0.36153  -0.35136  -0.32636
  Beta  occ. eigenvalues --   -0.31538  -0.30148  -0.29063  -0.28046  -0.26826
  Beta  occ. eigenvalues --   -0.25284  -0.23593  -0.23497  -0.22679  -0.21414
  Beta  occ. eigenvalues --   -0.19288  -0.18404  -0.17056  -0.08642  -0.07409
  Beta virt. eigenvalues --    0.07904   0.08745   0.09423   0.09757   0.10200
  Beta virt. eigenvalues --    0.10548   0.11059   0.11614   0.12021   0.12642
  Beta virt. eigenvalues --    0.13631   0.13829   0.14712   0.15473   0.17197

 Mulliken charges and spin densities:
               1          2
     1  C    0.904846  -1.446823
     2  C   -0.199390  -0.273738
     3  C    0.050431  -0.433571
     4  C   -0.591580   0.868898
     5  C    1.488232  -1.200193
     6  C   -0.273310  -0.035867
     7  C   -0.322623   0.080647
     8  C   -0.153523  -0.020604
     9  C    0.030070   0.262556
    10  C   -0.855810   0.451734
    11  O   -0.009871   0.020727
    12  H   -0.079995   0.198312
    13  H   -0.455252   0.591659
    14  H   -0.003482   0.162234
    15  H   -0.329897   0.483225
    16  H    0.006679   0.133754
    17  H   -0.488071   0.665157
    18  H   -0.012775   0.190117
    19  H    0.090480   0.019326
    20  H    0.065467   0.035128
    21  H    0.098560   0.000481
    22  H    0.110565   0.018732
    23  H   -0.069752   0.228109
 Sum of Mulliken charges =  -1.00000   1.00000

 Dipole moment (field-independent basis, Debye):
    X=             -3.1981    Y=             -0.7575    Z=              0.2722  Tot=              3.2978
 Quadrupole moment (field-independent basis, Debye-Ang):
   XX=           -122.2238   YY=            -88.9465   ZZ=            -85.8830
   XY=             -1.8945   XZ=              2.8046   YZ=             -0.2757

 Summary of Natural Population Analysis:

                                       Natural Population
                Natural  -----------------------------------------------
    Atom  No    Charge         Core      Valence    Rydberg      Total
 -----------------------------------------------------------------------
      C    1   -0.27936      0.99966     2.27535    0.00434     3.27936
      C    2   -0.20911      0.99959     2.19988    0.00964     3.20911
      C    3    0.17091      0.99940     1.81410    0.01560     2.82909
      C    4   -0.14648      0.99943     2.13656    0.01048     3.14648
      C    5   -0.14520      0.99959     2.13366    0.01196     3.14520
      C    6   -0.02764      0.99953     2.01835    0.00976     3.02764
      C    7   -0.12433      0.99953     2.11478    0.01003     3.12433
      C    8   -0.08945      0.99953     2.07937    0.01055     3.08945
      C    9   -0.06508      0.99953     2.05573    0.00983     3.06508
      C   10    0.05662      0.99953     1.92826    0.01559     2.94338
      O   11   -0.28957      0.99987     3.28027    0.00943     4.28957
      H   12    0.09631      0.00000     0.40204    0.00165     0.40369
      H   13    0.09513      0.00000     0.40319    0.00168     0.40487
      H   14    0.10049      0.00000     0.39770    0.00181     0.39951
      H   15    0.10233      0.00000     0.39613    0.00154     0.39767
      H   16    0.10149      0.00000     0.39715    0.00135     0.39851
      H   17    0.10226      0.00000     0.39668    0.00107     0.39774
      H   18    0.10759      0.00000     0.39097    0.00144     0.39241
      H   19    0.08702      0.00000     0.41189    0.00108     0.41298
      H   20    0.08953      0.00000     0.40899    0.00148     0.41047
      H   21    0.08920      0.00000     0.40989    0.00090     0.41080
      H   22    0.08878      0.00000     0.41024    0.00098     0.41122
      H   23    0.08857      0.00000     0.40996    0.00147     0.41143
 =======================================================================
   * Total *   -0.00000     10.99519    28.87114    0.13367    40.00000

 Normal termination of Gaussian 16 at Tue Dec  8 19:31:40 2020.
