 Gaussian 16, Revision A.03,

 -----------------------------------------------------------
 # opt freq B3LYP/6-31G(d) empiricaldispersion=gd3bj scf=xqc
 -----------------------------------------------------------

 --------------------------------
 CID_141350223_JID_10757_neutraal
 --------------------------------
 Symbolic Z-matrix:
 Charge =  0 Multiplicity = 1

 SCF Done:  E(RB3LYP) =  -863.227712126     A.U. after   16 cycles
 SCF Done:  E(RB3LYP) =  -863.243801413     A.U. after   15 cycles
 SCF Done:  E(RB3LYP) =  -863.257628850     A.U. after   15 cycles
 SCF Done:  E(RB3LYP) =  -863.193047857     A.U. after   14 cycles
 SCF Done:  E(RB3LYP) =  -863.286788045     A.U. after   13 cycles
 SCF Done:  E(RB3LYP) =  -863.290498460     A.U. after   14 cycles
 SCF Done:  E(RB3LYP) =  -863.289387338     A.U. after   15 cycles
 SCF Done:  E(RB3LYP) =  -863.295273791     A.U. after   13 cycles
 SCF Done:  E(RB3LYP) =  -863.296436274     A.U. after   13 cycles
 SCF Done:  E(RB3LYP) =  -863.296750639     A.U. after   13 cycles
 SCF Done:  E(RB3LYP) =  -863.297729425     A.U. after    9 cycles
 SCF Done:  E(RB3LYP) =  -863.297738456     A.U. after    9 cycles
 SCF Done:  E(RB3LYP) =  -863.297741530     A.U. after    9 cycles
 SCF Done:  E(RB3LYP) =  -863.297742665     A.U. after    8 cycles
 SCF Done:  E(RB3LYP) =  -863.297742822     A.U. after    7 cycles
 Optimization completed.
    -- Stationary point found.
 Normal termination of Gaussian 16 at Sun Dec 13 17:05:23 2020.

 --------------------------------------------------------------------
 #N Geom=AllCheck Guess=TCheck SCRF=Check GenChk RB3LYP/6-31G(d) Freq
 --------------------------------------------------------------------

 Structure from the checkpoint file:  "JID_10757.chk"
 --------------------------------
 CID_141350223_JID_10757_neutraal
 --------------------------------
 Charge =  0 Multiplicity = 1

 SCF Done:  E(RB3LYP) =  -863.297742822     A.U. after    1 cycles

  Exact polarizability: 199.184 -18.641 147.169   8.717  29.246 155.829
 Approx polarizability: 314.538 -34.639 219.284  31.527  64.364 293.599

                      1                      2                      3
                      A                      A                      A
 Frequencies --     24.8430                47.2180                53.8875
 Red. masses --      5.5313                 6.2383                 3.8870
 Frc consts  --      0.0020                 0.0082                 0.0067
 IR Inten    --      0.8119                 0.2693                 0.2327

                      4                      5                      6
                      A                      A                      A
 Frequencies --     54.4502                75.1312                82.0136
 Red. masses --      5.7336                 7.3660                 6.4188
 Frc consts  --      0.0100                 0.0245                 0.0254
 IR Inten    --      4.0933                 5.2173                 0.1002

                      7                      8                      9
                      A                      A                      A
 Frequencies --    119.3158               146.9998               173.1250
 Red. masses --      4.6175                 3.4810                 6.0195
 Frc consts  --      0.0387                 0.0443                 0.1063
 IR Inten    --      1.0969                 9.0344                 2.6987

                     10                     11                     12
                      A                      A                      A
 Frequencies --    186.5188               215.2394               231.1570
 Red. masses --      4.3626                 4.5841                 3.8874
 Frc consts  --      0.0894                 0.1251                 0.1224
 IR Inten    --      1.7062                 1.6001                 1.4065

                     13                     14                     15
                      A                      A                      A
 Frequencies --    296.2392               308.0660               322.1404
 Red. masses --      4.0418                 4.2822                 3.7393
 Frc consts  --      0.2090                 0.2394                 0.2286
 IR Inten    --      1.6567                 2.1541                 1.0638

                     16                     17                     18
                      A                      A                      A
 Frequencies --    387.4973               392.0214               416.2440
 Red. masses --      3.2303                 2.9583                 2.8148
 Frc consts  --      0.2858                 0.2679                 0.2873
 IR Inten    --      1.1233                 0.0262                 3.5786

                     19                     20                     21
                      A                      A                      A
 Frequencies --    439.9895               448.7379               464.2258
 Red. masses --      2.8072                 3.2232                 3.1537
 Frc consts  --      0.3202                 0.3824                 0.4004
 IR Inten    --      3.7844                 2.6059                 1.6799

                     22                     23                     24
                      A                      A                      A
 Frequencies --    475.2645               488.6211               519.9978
 Red. masses --      2.0671                 1.8718                 4.7628
 Frc consts  --      0.2751                 0.2633                 0.7588
 IR Inten    --     30.5043                56.9406                 5.5471

                     25                     26                     27
                      A                      A                      A
 Frequencies --    541.1857               566.3719               578.9566
 Red. masses --      5.0264                 4.3401                 4.0181
 Frc consts  --      0.8674                 0.8203                 0.7935
 IR Inten    --      8.9831                35.6887                 3.2917

                     28                     29                     30
                      A                      A                      A
 Frequencies --    636.4234               663.0866               694.1338
 Red. masses --      6.3589                 3.4404                 4.3712
 Frc consts  --      1.5175                 0.8912                 1.2409
 IR Inten    --      0.0847                 1.2369                12.2931

                     31                     32                     33
                      A                      A                      A
 Frequencies --    712.8733               721.2819               737.4830
 Red. masses --      2.1693                 1.9158                 3.8783
 Frc consts  --      0.6495                 0.5872                 1.2428
 IR Inten    --     19.6105                27.1173                14.8051

                     34                     35                     36
                      A                      A                      A
 Frequencies --    752.4341               797.3762               818.5918
 Red. masses --      2.3399                 1.5186                 2.7389
 Frc consts  --      0.7805                 0.5689                 1.0813
 IR Inten    --     29.7556                25.0262                 8.2640

                     37                     38                     39
                      A                      A                      A
 Frequencies --    833.6969               865.4932               882.3708
 Red. masses --      2.5434                 1.2523                 1.6007
 Frc consts  --      1.0416                 0.5527                 0.7343
 IR Inten    --      0.4663                 0.7307                 6.6436

                     40                     41                     42
                      A                      A                      A
 Frequencies --    896.3999               903.3086               929.4437
 Red. masses --      1.5554                 2.2476                 2.5235
 Frc consts  --      0.7364                 1.0805                 1.2844
 IR Inten    --      0.3218                16.1646                12.9622

                     43                     44                     45
                      A                      A                      A
 Frequencies --    938.3030               966.1728               970.0307
 Red. masses --      1.4989                 2.3895                 1.3181
 Frc consts  --      0.7775                 1.3142                 0.7307
 IR Inten    --      1.3249                 3.8065                 0.8040

                     46                     47                     48
                      A                      A                      A
 Frequencies --    977.3226              1002.0910              1007.3059
 Red. masses --      1.3717                 1.2664                 2.4304
 Frc consts  --      0.7719                 0.7492                 1.4530
 IR Inten    --      0.0635                 0.6075                32.5866

                     49                     50                     51
                      A                      A                      A
 Frequencies --   1022.7559              1023.1590              1025.8103
 Red. masses --      5.6225                 5.8488                 2.7407
 Frc consts  --      3.4652                 3.6075                 1.6992
 IR Inten    --      1.0727                 1.9074                30.4043

                     52                     53                     54
                      A                      A                      A
 Frequencies --   1042.9686              1061.0288              1074.5659
 Red. masses --      2.2774                 2.4986                 2.5992
 Frc consts  --      1.4596                 1.6573                 1.7683
 IR Inten    --      2.1297                24.6848                40.7479

                     55                     56                     57
                      A                      A                      A
 Frequencies --   1097.9659              1126.0523              1131.9767
 Red. masses --      2.0885                 1.6190                 1.8173
 Frc consts  --      1.4834                 1.2095                 1.3720
 IR Inten    --     35.3265                 3.4084                33.9910

                     58                     59                     60
                      A                      A                      A
 Frequencies --   1187.4872              1193.6110              1202.7535
 Red. masses --      1.7237                 1.0981                 1.1441
 Frc consts  --      1.4321                 0.9217                 0.9751
 IR Inten    --     51.6902                 0.2894                 2.4897

                     61                     62                     63
                      A                      A                      A
 Frequencies --   1207.7649              1214.3178              1222.0110
 Red. masses --      1.2288                 1.3562                 1.8079
 Frc consts  --      1.0561                 1.1783                 1.5906
 IR Inten    --      6.2329                 4.9035                 3.5917

                     64                     65                     66
                      A                      A                      A
 Frequencies --   1256.0854              1262.1545              1283.3418
 Red. masses --      1.2301                 1.3223                 1.9352
 Frc consts  --      1.1435                 1.2411                 1.8778
 IR Inten    --      2.9699                24.5198                56.2140

                     67                     68                     69
                      A                      A                      A
 Frequencies --   1309.4622              1332.3139              1348.7464
 Red. masses --      1.8311                 1.4780                 2.2126
 Frc consts  --      1.8499                 1.5457                 2.3714
 IR Inten    --     72.1599                 3.2557                13.5986

                     70                     71                     72
                      A                      A                      A
 Frequencies --   1360.3289              1367.1038              1369.1526
 Red. masses --      1.5817                 2.8049                 2.0964
 Frc consts  --      1.7245                 3.0886                 2.3155
 IR Inten    --      5.7591                 0.0244                 7.7361

                     73                     74                     75
                      A                      A                      A
 Frequencies --   1376.1439              1388.8690              1417.3865
 Red. masses --      1.5507                 1.4588                 1.2839
 Frc consts  --      1.7302                 1.6579                 1.5198
 IR Inten    --      0.7036                13.4903                 8.1052

                     76                     77                     78
                      A                      A                      A
 Frequencies --   1439.4417              1496.1647              1497.1272
 Red. masses --      1.2349                 2.0497                 1.4476
 Frc consts  --      1.5076                 2.7033                 1.9116
 IR Inten    --     87.5432                 9.4334                 7.4669

                     79                     80                     81
                      A                      A                      A
 Frequencies --   1498.8149              1517.6326              1520.0783
 Red. masses --      1.8613                 1.1893                 1.0985
 Frc consts  --      2.4635                 1.6139                 1.4955
 IR Inten    --     27.5236                10.4718                 3.9585

                     82                     83                     84
                      A                      A                      A
 Frequencies --   1542.2858              1545.9657              1644.3437
 Red. masses --      2.2488                 2.1583                 5.6212
 Frc consts  --      3.1516                 3.0392                 8.9550
 IR Inten    --     38.9553                 5.9908                 0.2949

                     85                     86                     87
                      A                      A                      A
 Frequencies --   1647.5717              1666.2288              1670.8444
 Red. masses --      5.7683                 5.5569                 6.1478
 Frc consts  --      9.2254                 9.0898                10.1121
 IR Inten    --     37.4634                 0.9027                40.7706

                     88                     89                     90
                      A                      A                      A
 Frequencies --   2369.6877              3045.7750              3061.2567
 Red. masses --     12.6063                 1.0836                 1.0604
 Frc consts  --     41.7079                 5.9224                 5.8549
 IR Inten    --      5.5120                25.2932                 5.7380

                     91                     92                     93
                      A                      A                      A
 Frequencies --   3067.3731              3088.6361              3104.5351
 Red. masses --      1.0600                 1.0578                 1.1042
 Frc consts  --      5.8758                 5.9455                 6.2702
 IR Inten    --     36.8747                36.3653                 7.5374

                     94                     95                     96
                      A                      A                      A
 Frequencies --   3116.6978              3140.3068              3181.8063
 Red. masses --      1.1031                 1.1096                 1.0870
 Frc consts  --      6.3133                 6.4469                 6.4840
 IR Inten    --      7.5903                30.5875                11.8085

                     97                     98                     99
                      A                      A                      A
 Frequencies --   3191.1936              3193.6285              3200.1963
 Red. masses --      1.0862                 1.0872                 1.0906
 Frc consts  --      6.5175                 6.5333                 6.5805
 IR Inten    --      5.1396                 3.1386                 8.2162

                    100                    101                    102
                      A                      A                      A
 Frequencies --   3204.3788              3204.7716              3214.7084
 Red. masses --      1.0912                 1.0915                 1.0964
 Frc consts  --      6.6012                 6.6049                 6.6760
 IR Inten    --      8.9090                22.5066                10.3997

                    103                    104                    105
                      A                      A                      A
 Frequencies --   3219.9806              3225.8585              3693.7162
 Red. masses --      1.0957                 1.0922                 1.0651
 Frc consts  --      6.6936                 6.6963                 8.5615
 IR Inten    --     10.8834                 3.9163                27.8180

 - Thermochemistry -
 -------------------
 Temperature   298.150 Kelvin.  Pressure   1.00000 Atm.
 Atom     1 has atomic number  6 and mass  12.00000

 Molecular mass:   267.12593 amu.
 Principal axes and moments of inertia in atomic units:
                           1         2         3
     Eigenvalues --  3739.926605545.846767399.48219
           X            0.99986  -0.00138  -0.01680
           Y            0.00184   0.99962   0.02763
           Z            0.01675  -0.02766   0.99948
 This molecule is an asymmetric top.
 Rotational symmetry number  1.
 Warning -- assumption of classical behavior for rotation
           may cause significant error
 Rotational temperatures (Kelvin)      0.02316     0.01562     0.01171
 Rotational constants (GHZ):           0.48256     0.32542     0.24390
 Zero-point vibrational energy     800764.7 (Joules/Mol)
                                  191.38736 (Kcal/Mol)
 Warning -- explicit consideration of  27 degrees of freedom as
           vibrations may cause significant error
 Vibrational temperatures:     35.74    67.94    77.53    78.34   108.10
          (Kelvin)            118.00   171.67   211.50   249.09   268.36
                              309.68   332.58   426.22   443.24   463.49
                              557.52   564.03   598.88   633.05   645.63
                              667.92   683.80   703.02   748.16   778.65
                              814.88   832.99   915.67   954.03   998.70
                             1025.67  1037.76  1061.07  1082.58  1147.25
                             1177.77  1199.50  1245.25  1269.53  1289.72
                             1299.66  1337.26  1350.01  1390.11  1395.66
                             1406.15  1441.79  1449.29  1471.52  1472.10
                             1475.91  1500.60  1526.58  1546.06  1579.73
                             1620.14  1628.66  1708.53  1717.34  1730.49
                             1737.70  1747.13  1758.20  1807.23  1815.96
                             1846.44  1884.02  1916.90  1940.55  1957.21
                             1966.96  1969.91  1979.96  1998.27  2039.30
                             2071.04  2152.65  2154.03  2156.46  2183.53
                             2187.05  2219.01  2224.30  2365.84  2370.49
                             2397.33  2403.97  3409.45  4382.19  4404.47
                             4413.27  4443.86  4466.73  4484.23  4518.20
                             4577.91  4591.42  4594.92  4604.37  4610.39
                             4610.95  4625.25  4632.83  4641.29  5314.43

 Zero-point correction=                           0.304995 (Hartree/Particle)
 Thermal correction to Energy=                    0.322579
 Thermal correction to Enthalpy=                  0.323523
 Thermal correction to Gibbs Free Energy=         0.258412
 Sum of electronic and zero-point Energies=           -862.992748
 Sum of electronic and thermal Energies=              -862.975164
 Sum of electronic and thermal Enthalpies=            -862.974219
 Sum of electronic and thermal Free Energies=         -863.039330

                     E (Thermal)             CV                S
                      KCal/Mol        Cal/Mol-Kelvin    Cal/Mol-Kelvin
 Total                  202.421             68.546            137.037
 Electronic               0.000              0.000              0.000
 Translational            0.889              2.981             42.647
 Rotational               0.889              2.981             33.395
 Vibrational            200.644             62.585             60.996
 Vibration     1          0.593              1.985              6.204
 Vibration     2          0.595              1.979              4.931
 Vibration     3          0.596              1.976              4.669
 Vibration     4          0.596              1.976              4.649
 Vibration     5          0.599              1.966              4.014
 Vibration     6          0.600              1.961              3.842
 Vibration     7          0.609              1.933              3.111
 Vibration     8          0.617              1.906              2.711
 Vibration     9          0.627              1.876              2.401
 Vibration    10          0.632              1.858              2.262
 Vibration    11          0.645              1.818              1.999
 Vibration    12          0.653              1.793              1.870
 Vibration    13          0.690              1.681              1.438
 Vibration    14          0.698              1.658              1.373
 Vibration    15          0.707              1.631              1.299
 Vibration    16          0.756              1.497              1.010
 Vibration    17          0.759              1.487              0.992
 Vibration    18          0.779              1.435              0.905
 Vibration    19          0.800              1.383              0.827
 Vibration    20          0.808              1.364              0.800
 Vibration    21          0.822              1.329              0.754
 Vibration    22          0.832              1.305              0.723
 Vibration    23          0.845              1.275              0.687
 Vibration    24          0.875              1.206              0.610
 Vibration    25          0.896              1.159              0.563
 Vibration    26          0.922              1.104              0.511
 Vibration    27          0.936              1.077              0.487

 Optimization completed.
    -- Stationary point found.
 Normal termination of Gaussian 16 at Sun Dec 13 17:27:27 2020.

 ----------------------------------------------------------------------
 # B3LYP/6-311++G(d,p) empiricaldispersion=gd3bj scf=xqc pop=npa geom=c
 heck
 ----------------------------------------------------------------------

 ----------------------------------------
 CID_141350223_JID_10757_Energie_neutraal
 ----------------------------------------
 Structure from the checkpoint file:  "JID_10757.chk"
 Charge =  0 Multiplicity = 1

 SCF Done:  E(RB3LYP) =  -863.534852576     A.U. after   16 cycles
 Normal termination of Gaussian 16 at Sun Dec 13 17:36:01 2020.

 ----------------------------------------------------------------------
 # B3LYP/6-311++G(d,p) empiricaldispersion=gd3bj scf=xqc pop=npa geom=c
 heck
 ----------------------------------------------------------------------

 --------------------------------------
 CID_141350223_JID_10757_Energie_kation
 --------------------------------------
 Structure from the checkpoint file:  "JID_10757.chk"
 Charge =  1 Multiplicity = 2

 SCF Done:  E(UB3LYP) =  -863.238802978     A.U. after   26 cycles
 Normal termination of Gaussian 16 at Sun Dec 13 17:53:56 2020.
 Gaussian 16:  ES64L-G16RevA.03 25-Dec-2016

 ----------------------------------------------------------------------
 # B3LYP/6-311++G(d,p) empiricaldispersion=gd3bj scf=xqc pop=npa geom=c
 heck
 ----------------------------------------------------------------------

 -------------------------------------
 CID_141350223_JID_10757_Energie_anion
 -------------------------------------
 Structure from the checkpoint file:  "JID_10757.chk"
 Charge = -1 Multiplicity = 2

                         Standard orientation:
 ---------------------------------------------------------------------
 Center     Atomic      Atomic             Coordinates (Angstroms)
 Number     Number       Type             X           Y           Z
 ---------------------------------------------------------------------
      1          6           0        0.526780   -2.707806    0.653140
      2          6           0       -0.311276   -2.907103   -0.444004
      3          6           0       -1.467206   -2.137894   -0.594509
      4          6           0       -1.806032   -1.167949    0.352936
      5          6           0       -0.964756   -0.985262    1.458569
      6          6           0        0.198450   -1.737802    1.602544
      7          6           0       -3.082392   -0.347115    0.174048
      8          6           0       -2.883675    1.149752    0.433154
      9          8           0       -2.010114    1.687597   -0.571649
     10          6           0       -0.677588    1.823627   -0.238834
     11          6           0       -0.274325    2.571607    0.870069
     12          6           0        1.085086    2.688091    1.154163
     13          6           0        2.035570    2.083161    0.333169
     14          6           0        1.632646    1.356390   -0.792652
     15          6           0        0.269346    1.231106   -1.070865
     16          6           0        2.648615    0.647116   -1.655484
     17          6           0        2.841986   -0.833105   -1.242251
     18          6           0        3.344173   -0.973856    0.125410
     19          7           0        3.738534   -1.072466    1.212621
     20          8           0       -3.648158   -0.506117   -1.120282
     21          1           0        1.433799   -3.293121    0.770676
     22          1           0       -0.070155   -3.665813   -1.184350
     23          1           0       -2.125359   -2.289129   -1.442722
     24          1           0       -1.200490   -0.236161    2.208512
     25          1           0        0.859910   -1.561055    2.444648
     26          1           0       -3.846554   -0.710864    0.874070
     27          1           0       -3.842832    1.659954    0.312704
     28          1           0       -2.498078    1.350772    1.436065
     29          1           0       -1.014616    3.061146    1.494905
     30          1           0        1.404628    3.262972    2.018486
     31          1           0        3.092152    2.168277    0.568512
     32          1           0       -0.075505    0.644682   -1.917257
     33          1           0        2.329178    0.652320   -2.703409
     34          1           0        3.614387    1.160632   -1.606904
     35          1           0        1.885836   -1.364626   -1.302517
     36          1           0        3.542980   -1.327755   -1.925242
     37          1           0       -3.085266    0.025436   -1.710703
 ---------------------------------------------------------------------

 SCF Done:  E(UB3LYP) =  -863.527580051     A.U. after   33 cycles
 SCF Done:  E(UB3LYP) =  -863.527580051     a.u. after    1 cycles

 The electronic state is 2-A.
 Alpha  occ. eigenvalues --  -19.05614 -19.03654 -14.20580 -10.14136 -10.13977
 Alpha  occ. eigenvalues --  -10.13249 -10.10695 -10.10550 -10.08308 -10.08240
 Alpha  occ. eigenvalues --  -10.07802 -10.07700 -10.07549 -10.07497 -10.07444
 Alpha  occ. eigenvalues --  -10.07353 -10.07150 -10.07088 -10.06930 -10.06632
 Alpha  occ. eigenvalues --   -0.97372  -0.93890  -0.80435  -0.76090  -0.75971
 Alpha  occ. eigenvalues --   -0.70723  -0.68658  -0.65557  -0.64814  -0.64729
 Alpha  occ. eigenvalues --   -0.61978  -0.56829  -0.55532  -0.51234  -0.50752
 Alpha  occ. eigenvalues --   -0.49559  -0.47743  -0.43734  -0.43400  -0.41636
 Alpha  occ. eigenvalues --   -0.40311  -0.39575  -0.38630  -0.37186  -0.36803
 Alpha  occ. eigenvalues --   -0.35959  -0.35371  -0.34465  -0.33590  -0.32778
 Alpha  occ. eigenvalues --   -0.32490  -0.32209  -0.30591  -0.28660  -0.28109
 Alpha  occ. eigenvalues --   -0.27532  -0.26824  -0.26455  -0.25893  -0.25649
 Alpha  occ. eigenvalues --   -0.24962  -0.24244  -0.23918  -0.22603  -0.22310
 Alpha  occ. eigenvalues --   -0.21387  -0.19170  -0.16018  -0.15742  -0.15274
 Alpha  occ. eigenvalues --   -0.13190   0.04268
 Alpha virt. eigenvalues --    0.05739   0.07435   0.07659   0.07688   0.08084
 Alpha virt. eigenvalues --    0.08308   0.08517   0.08824   0.09318   0.09583
 Alpha virt. eigenvalues --    0.10202   0.10608   0.11018   0.11249   0.12096

  Beta  occ. eigenvalues --  -19.05614 -19.03654 -14.20569 -10.14134 -10.13964
  Beta  occ. eigenvalues --  -10.13264 -10.10690 -10.10501 -10.08288 -10.08188
  Beta  occ. eigenvalues --  -10.07706 -10.07659 -10.07565 -10.07468 -10.07395
  Beta  occ. eigenvalues --  -10.07361 -10.07070 -10.07018 -10.06941 -10.06582
  Beta  occ. eigenvalues --   -0.97365  -0.93886  -0.80408  -0.75975  -0.75887
  Beta  occ. eigenvalues --   -0.70619  -0.68593  -0.65458  -0.64750  -0.64588
  Beta  occ. eigenvalues --   -0.61902  -0.56726  -0.55469  -0.51165  -0.50683
  Beta  occ. eigenvalues --   -0.49468  -0.47657  -0.43693  -0.43361  -0.41579
  Beta  occ. eigenvalues --   -0.40259  -0.39509  -0.38585  -0.37103  -0.36745
  Beta  occ. eigenvalues --   -0.35908  -0.35307  -0.34413  -0.33537  -0.32660
  Beta  occ. eigenvalues --   -0.32470  -0.32170  -0.30512  -0.28617  -0.28028
  Beta  occ. eigenvalues --   -0.27446  -0.26698  -0.26393  -0.25834  -0.25576
  Beta  occ. eigenvalues --   -0.24919  -0.24186  -0.23831  -0.22537  -0.22273
  Beta  occ. eigenvalues --   -0.21334  -0.19133  -0.15709  -0.15525  -0.14805
  Beta  occ. eigenvalues --   -0.12954
  Beta virt. eigenvalues --    0.06118   0.07114   0.07549   0.07846   0.08285
  Beta virt. eigenvalues --    0.08400   0.08605   0.08938   0.09067   0.09592
  Beta virt. eigenvalues --    0.09806   0.10194   0.11005   0.11275   0.11461

 Mulliken charges and spin densities:
               1          2
     1  C   -0.028354  -0.187586
     2  C   -0.029180  -0.211420
     3  C   -0.365659   0.102185
     4  C    0.533406  -0.153207
     5  C    0.078860  -0.011057
     6  C   -0.494586   0.063858
     7  C   -0.551769   0.020968
     8  C   -0.039929  -0.149710
     9  O   -0.105355   0.008972
    10  C   -0.209903  -0.252627
    11  C    0.163853  -0.042382
    12  C   -0.222261  -0.070893
    13  C   -0.940069   0.235802
    14  C   -0.134684   1.082220
    15  C    0.704003  -0.512836
    16  C    0.275880  -1.154354
    17  C    0.684602  -0.710157
    18  C    0.685469  -0.538949
    19  N   -0.418131   0.043479
    20  O   -0.179463   0.006155
    21  H    0.144428   0.023193
    22  H   -0.136960   0.316079
    23  H    0.121774   0.045227
    24  H    0.098323   0.029270
    25  H    0.183146   0.001835
    26  H   -0.049621   0.251533
    27  H    0.076513   0.136265
    28  H    0.087709  -0.012096
    29  H    0.090344   0.052026
    30  H    0.152990  -0.002597
    31  H    0.067942   0.084038
    32  H   -0.009245   0.205375
    33  H   -0.713821   0.916540
    34  H   -0.081803   0.254075
    35  H    0.133625   0.053320
    36  H   -0.813687   1.064676
    37  H    0.241613   0.012783
 Sum of Mulliken charges =  -1.00000   1.00000

 Dipole moment (field-independent basis, Debye):
    X=             -5.6380    Y=              2.6632    Z=              4.8468  Tot=              7.8976
 Quadrupole moment (field-independent basis, Debye-Ang):
   XX=           -189.7320   YY=           -153.4404   ZZ=           -160.5429
   XY=              6.6835   XZ=             10.1619   YZ=              1.6546

 Summary of Natural Population Analysis:

                                       Natural Population
                Natural  -----------------------------------------------
    Atom  No    Charge         Core      Valence    Rydberg      Total
 -----------------------------------------------------------------------
      C    1   -0.09704      0.99956     2.08777    0.00971     3.09704
      C    2   -0.10158      0.99956     2.09176    0.01026     3.10158
      C    3   -0.10445      0.99948     2.09551    0.00946     3.10445
      C    4   -0.02514      0.99944     2.01498    0.01072     3.02514
      C    5   -0.09216      0.99952     2.08372    0.00892     3.09216
      C    6   -0.09843      0.99956     2.08992    0.00895     3.09843
      C    7    0.04652      0.99953     1.93875    0.01520     2.95348
      C    8   -0.01667      0.99954     2.00473    0.01240     3.01667
      O    9   -0.29794      0.99986     3.28863    0.00946     4.29794
      C   10    0.15611      0.99935     1.83059    0.01395     2.84389
      C   11   -0.12545      0.99950     2.11694    0.00901     3.12545
      C   12   -0.08701      0.99957     2.07865    0.00880     3.08701
      C   13   -0.10953      0.99951     2.10081    0.00921     3.10953
      C   14    0.00071      0.99951     1.98894    0.01084     2.99929
      C   15   -0.10728      0.99945     2.09764    0.01020     3.10728
      C   16   -0.18824      0.99959     2.17741    0.01124     3.18824
      C   17   -0.24929      0.99952     2.23754    0.01222     3.24929
      C   18    0.17298      0.99966     1.81142    0.01594     2.82702
      N   19   -0.19643      0.99979     2.68585    0.01080     3.69643
      O   20   -0.37148      0.99990     3.36564    0.00594     4.37148
      H   21    0.10240      0.00000     0.39636    0.00123     0.39760
      H   22    0.10064      0.00000     0.39847    0.00088     0.39936
      H   23    0.10795      0.00000     0.39116    0.00089     0.39205
      H   24    0.09780      0.00000     0.40094    0.00126     0.40220
      H   25    0.10439      0.00000     0.39465    0.00096     0.39561
      H   26    0.09485      0.00000     0.40371    0.00144     0.40515
      H   27    0.09306      0.00000     0.40592    0.00102     0.40694
      H   28    0.09075      0.00000     0.40808    0.00116     0.40925
      H   29    0.09891      0.00000     0.40026    0.00082     0.40109
      H   30    0.09594      0.00000     0.40331    0.00075     0.40406
      H   31    0.10115      0.00000     0.39775    0.00110     0.39885
      H   32    0.10514      0.00000     0.39307    0.00179     0.39486
      H   33    0.11221      0.00000     0.38393    0.00385     0.38779
      H   34    0.10283      0.00000     0.39563    0.00153     0.39717
      H   35    0.12572      0.00000     0.37127    0.00300     0.37428
      H   36    0.12510      0.00000     0.36876    0.00613     0.37490
      H   37    0.23295      0.00000     0.26468    0.00237     0.26705
 =======================================================================
   * Total *    0.00002     19.99139    50.76517    0.24341    70.99998

 Normal termination of Gaussian 16 at Sun Dec 13 18:17:49 2020.
