 Gaussian 16, Revision A.03,

 -----------------------------------------------------------
 # opt freq B3LYP/6-31G(d) empiricaldispersion=gd3bj scf=xqc
 -----------------------------------------------------------

 ------------------------------
 CID_76999054_JID_8320_neutraal
 ------------------------------
 Symbolic Z-matrix:
 Charge =  0 Multiplicity = 1

 SCF Done:  E(RB3LYP) =  -861.223488448     A.U. after   14 cycles
 SCF Done:  E(RB3LYP) =  -861.229691621     A.U. after   12 cycles
 SCF Done:  E(RB3LYP) =  -861.230470685     A.U. after   12 cycles
 SCF Done:  E(RB3LYP) =  -861.231006726     A.U. after   12 cycles
 SCF Done:  E(RB3LYP) =  -861.231207130     A.U. after   12 cycles
 SCF Done:  E(RB3LYP) =  -861.231498239     A.U. after   12 cycles
 SCF Done:  E(RB3LYP) =  -861.231718165     A.U. after   12 cycles
 SCF Done:  E(RB3LYP) =  -861.232034818     A.U. after   12 cycles
 SCF Done:  E(RB3LYP) =  -861.232345781     A.U. after   11 cycles
 SCF Done:  E(RB3LYP) =  -861.232389788     A.U. after   11 cycles
 SCF Done:  E(RB3LYP) =  -861.232637867     A.U. after   11 cycles
 SCF Done:  E(RB3LYP) =  -861.232639341     A.U. after    9 cycles
 SCF Done:  E(RB3LYP) =  -861.232640270     A.U. after    8 cycles
 SCF Done:  E(RB3LYP) =  -861.232640848     A.U. after    8 cycles
 SCF Done:  E(RB3LYP) =  -861.232640951     A.U. after    7 cycles
 SCF Done:  E(RB3LYP) =  -861.232640987     A.U. after    7 cycles
 Optimization completed.
    -- Stationary point found.
 Normal termination of Gaussian 16 at Sun Dec 13 12:47:06 2020.

 --------------------------------------------------------------------
 #N Geom=AllCheck Guess=TCheck SCRF=Check GenChk RB3LYP/6-31G(d) Freq
 --------------------------------------------------------------------

 Structure from the checkpoint file:  "JID_8320.chk"
 ------------------------------
 CID_76999054_JID_8320_neutraal
 ------------------------------
 Charge =  0 Multiplicity = 1

 SCF Done:  E(RB3LYP) =  -861.232640987     A.U. after    1 cycles

  Exact polarizability: 219.291  -3.312 146.005  16.469  18.519 109.938
 Approx polarizability: 306.003   0.521 227.866  40.541  44.993 177.601

                      1                      2                      3
                      A                      A                      A
 Frequencies --     17.8369                37.4561                43.1236
 Red. masses --      3.8144                 4.1877                 4.0542
 Frc consts  --      0.0007                 0.0035                 0.0044
 IR Inten    --      0.1133                 0.2213                 0.7711

                      4                      5                      6
                      A                      A                      A
 Frequencies --     78.3012                91.5598               114.0269
 Red. masses --      3.4372                 3.0141                 4.0935
 Frc consts  --      0.0124                 0.0149                 0.0314
 IR Inten    --      1.0347                 5.4500                 0.6432

                      7                      8                      9
                      A                      A                      A
 Frequencies --    127.3840               134.0323               146.1325
 Red. masses --      1.7858                 2.1028                 2.0455
 Frc consts  --      0.0171                 0.0223                 0.0257
 IR Inten    --      4.4859                 3.8189                 0.1426

                     10                     11                     12
                      A                      A                      A
 Frequencies --    156.1617               178.7823               189.5429
 Red. masses --      1.6829                 3.4303                 2.2311
 Frc consts  --      0.0242                 0.0646                 0.0472
 IR Inten    --      1.3724                 3.3325                 2.2594

                     13                     14                     15
                      A                      A                      A
 Frequencies --    245.6225               269.8268               311.2859
 Red. masses --      4.2513                 5.1040                 4.3354
 Frc consts  --      0.1511                 0.2189                 0.2475
 IR Inten    --      4.9117                 0.7020                 4.4302

                     16                     17                     18
                      A                      A                      A
 Frequencies --    333.4743               358.8624               366.1525
 Red. masses --      3.6218                 5.3062                 2.7966
 Frc consts  --      0.2373                 0.4026                 0.2209
 IR Inten    --      3.4381                 4.9138                12.3457

                     19                     20                     21
                      A                      A                      A
 Frequencies --    381.4009               406.7446               425.0403
 Red. masses --      3.6469                 1.5268                 3.5927
 Frc consts  --      0.3126                 0.1488                 0.3824
 IR Inten    --      3.3299                82.0061                 6.2992

                     22                     23                     24
                      A                      A                      A
 Frequencies --    461.0254               489.1008               536.3223
 Red. masses --      2.6411                 4.6090                 2.9844
 Frc consts  --      0.3307                 0.6496                 0.5058
 IR Inten    --      7.9325                11.2148                15.6579

                     25                     26                     27
                      A                      A                      A
 Frequencies --    548.7184               603.9817               626.4403
 Red. masses --      3.6499                 5.6092                 5.6197
 Frc consts  --      0.6475                 1.2056                 1.2993
 IR Inten    --      0.7153                 8.5402                26.0912

                     28                     29                     30
                      A                      A                      A
 Frequencies --    673.3174               708.5788               728.9023
 Red. masses --      3.8104                 4.9473                 4.2461
 Frc consts  --      1.0178                 1.4635                 1.3292
 IR Inten    --      5.2106                11.4907                 1.9246

                     31                     32                     33
                      A                      A                      A
 Frequencies --    749.5733               766.9022               794.5613
 Red. masses --      4.2401                 4.2891                 2.0056
 Frc consts  --      1.4037                 1.4863                 0.7460
 IR Inten    --     15.2523                10.0130                 2.4003

                     34                     35                     36
                      A                      A                      A
 Frequencies --    829.1667               853.4651               864.8293
 Red. masses --      1.6284                 2.4784                 3.9221
 Frc consts  --      0.6596                 1.0636                 1.7283
 IR Inten    --      4.6654                20.3062                56.3714

                     37                     38                     39
                      A                      A                      A
 Frequencies --    903.6415               917.1305               927.4311
 Red. masses --      3.9414                 2.3131                 1.6341
 Frc consts  --      1.8962                 1.1463                 0.8281
 IR Inten    --      3.7685                 2.1830                11.3912

                     40                     41                     42
                      A                      A                      A
 Frequencies --    931.1948               941.8844               975.8491
 Red. masses --      2.2916                 1.3818                 3.8648
 Frc consts  --      1.1708                 0.7223                 2.1684
 IR Inten    --     17.4227                 2.3458                97.2994

                     43                     44                     45
                      A                      A                      A
 Frequencies --    995.7996              1009.4123              1033.7700
 Red. masses --      2.4905                 2.2475                 2.5199
 Frc consts  --      1.4550                 1.3493                 1.5866
 IR Inten    --     30.9592                19.3498               168.5857

                     46                     47                     48
                      A                      A                      A
 Frequencies --   1059.5418              1074.0233              1082.0059
 Red. masses --      4.1972                 1.5968                 1.7306
 Frc consts  --      2.7761                 1.0853                 1.1937
 IR Inten    --     79.1823                 0.3030                 3.0769

                     49                     50                     51
                      A                      A                      A
 Frequencies --   1107.1550              1123.4959              1156.3489
 Red. masses --      2.1584                 4.9109                 2.0686
 Frc consts  --      1.5588                 3.6522                 1.6297
 IR Inten    --     23.5971                70.3714                13.0060

                     52                     53                     54
                      A                      A                      A
 Frequencies --   1167.9753              1184.9547              1213.6303
 Red. masses --      2.0521                 1.2580                 1.4563
 Frc consts  --      1.6494                 1.0407                 1.2638
 IR Inten    --     98.7020                 7.7358                18.7672

                     55                     56                     57
                      A                      A                      A
 Frequencies --   1226.1313              1232.8276              1240.2246
 Red. masses --      1.3481                 1.2069                 2.0266
 Frc consts  --      1.1941                 1.0808                 1.8366
 IR Inten    --      1.8801                 2.9024                68.8154

                     58                     59                     60
                      A                      A                      A
 Frequencies --   1267.7898              1272.5410              1296.8789
 Red. masses --      1.5580                 1.5414                 1.6730
 Frc consts  --      1.4754                 1.4707                 1.6578
 IR Inten    --     23.3223                36.9619                50.4299

                     61                     62                     63
                      A                      A                      A
 Frequencies --   1301.5715              1325.8839              1337.8784
 Red. masses --      1.5471                 2.5181                 1.3535
 Frc consts  --      1.5442                 2.6081                 1.4274
 IR Inten    --     61.1985               184.5942                 7.4493

                     64                     65                     66
                      A                      A                      A
 Frequencies --   1343.3342              1374.0175              1412.0451
 Red. masses --      8.0020                 1.3312                 1.2750
 Frc consts  --      8.5078                 1.4808                 1.4978
 IR Inten    --     42.3530                 1.9384                 9.5351

                     67                     68                     69
                      A                      A                      A
 Frequencies --   1418.9764              1422.3144              1425.5009
 Red. masses --      1.5166                 1.3986                 1.3333
 Frc consts  --      1.7991                 1.6670                 1.5963
 IR Inten    --     10.2151                 4.8995                 3.2544

                     70                     71                     72
                      A                      A                      A
 Frequencies --   1457.1905              1498.9572              1514.4687
 Red. masses --      2.4949                 1.4022                 1.0585
 Frc consts  --      3.1214                 1.8562                 1.4304
 IR Inten    --     81.5853                 5.1859                 4.8649

                     73                     74                     75
                      A                      A                      A
 Frequencies --   1516.9122              1523.0565              1523.6595
 Red. masses --      1.0701                 1.0461                 1.0929
 Frc consts  --      1.4508                 1.4298                 1.4948
 IR Inten    --     12.5547                 9.8410                11.3408

                     76                     77                     78
                      A                      A                      A
 Frequencies --   1536.0344              1543.7846              1550.7189
 Red. masses --      1.1390                 1.0897                 2.3678
 Frc consts  --      1.5834                 1.5302                 3.3547
 IR Inten    --     10.5163                 1.3292               118.9586

                     79                     80                     81
                      A                      A                      A
 Frequencies --   1561.1797              1620.2300              1660.2204
 Red. masses --      1.1296                 6.2742                 6.2501
 Frc consts  --      1.6221                 9.7043                10.1500
 IR Inten    --     19.8015                 9.3334                 7.0190

                     82                     83                     84
                      A                      A                      A
 Frequencies --   1711.9636              2980.6230              3040.7292
 Red. masses --      6.7744                 1.0729                 1.0393
 Frc consts  --     11.6979                 5.6157                 5.6617
 IR Inten    --      3.1105                99.1554                96.9424

                     85                     86                     87
                      A                      A                      A
 Frequencies --   3041.2547              3059.8335              3078.3951
 Red. masses --      1.0649                 1.0417                 1.0716
 Frc consts  --      5.8029                 5.7463                 5.9831
 IR Inten    --     39.1228                 9.4568                16.1267

                     88                     89                     90
                      A                      A                      A
 Frequencies --   3100.0217              3111.1771              3115.9016
 Red. masses --      1.0983                 1.1002                 1.0921
 Frc consts  --      6.2187                 6.2746                 6.2470
 IR Inten    --     41.9386                11.6218                31.1756

                     91                     92                     93
                      A                      A                      A
 Frequencies --   3120.5777              3121.3440              3157.4285
 Red. masses --      1.0963                 1.0884                 1.1066
 Frc consts  --      6.2902                 6.2477                 6.4997
 IR Inten    --     12.2635                72.3555                23.1423

                     94                     95                     96
                      A                      A                      A
 Frequencies --   3161.7163              3193.6713              3219.0062
 Red. masses --      1.0974                 1.0965                 1.0873
 Frc consts  --      6.4635                 6.5892                 6.6379
 IR Inten    --      2.0342                 5.0608                 8.1918

                     97                     98                     99
                      A                      A                      A
 Frequencies --   3235.4110              3241.2974              3761.9944
 Red. masses --      1.0940                 1.0906                 1.0676
 Frc consts  --      6.7472                 6.7507                 8.9023
 IR Inten    --      9.2279                 1.1116                92.8623

 - Thermochemistry -
 -------------------
 Temperature   298.150 Kelvin.  Pressure   1.00000 Atm.
 Atom     1 has atomic number  6 and mass  12.00000

 Molecular mass:   251.11576 amu.
 Principal axes and moments of inertia in atomic units:
                           1         2         3
     Eigenvalues --  2466.976627200.756138447.43119
           X            0.99991  -0.01155  -0.00610
           Y            0.01158   0.99992   0.00578
           Z            0.00603  -0.00585   0.99996
 This molecule is an asymmetric top.
 Rotational symmetry number  1.
 Warning -- assumption of classical behavior for rotation
           may cause significant error
 Rotational temperatures (Kelvin)      0.03511     0.01203     0.01025
 Rotational constants (GHZ):           0.73156     0.25063     0.21364
 Zero-point vibrational energy     761480.2 (Joules/Mol)
                                  181.99815 (Kcal/Mol)
 Warning -- explicit consideration of  26 degrees of freedom as
           vibrations may cause significant error
 Vibrational temperatures:     25.66    53.89    62.05   112.66   131.73
          (Kelvin)            164.06   183.28   192.84   210.25   224.68
                              257.23   272.71   353.40   388.22   447.87
                              479.80   516.32   526.81   548.75   585.21
                              611.54   663.31   703.71   771.65   789.48
                              869.00   901.31   968.75  1019.49  1048.73
                             1078.47  1103.40  1143.20  1192.99  1227.95
                             1244.30  1300.14  1319.55  1334.37  1339.78
                             1355.16  1404.03  1432.73  1452.32  1487.36
                             1524.44  1545.28  1556.77  1592.95  1616.46
                             1663.73  1680.46  1704.89  1746.14  1764.13
                             1773.76  1784.41  1824.07  1830.90  1865.92
                             1872.67  1907.65  1924.91  1932.76  1976.90
                             2031.62  2041.59  2046.39  2050.98  2096.57
                             2156.67  2178.98  2182.50  2191.34  2192.21
                             2210.01  2221.16  2231.14  2246.19  2331.15
                             2388.69  2463.13  4288.45  4374.93  4375.69
                             4402.42  4429.12  4460.24  4476.29  4483.09
                             4489.82  4490.92  4542.84  4549.00  4594.98
                             4631.43  4655.03  4663.50  5412.67

 Zero-point correction=                           0.290033 (Hartree/Particle)
 Thermal correction to Energy=                    0.307654
 Thermal correction to Enthalpy=                  0.308598
 Thermal correction to Gibbs Free Energy=         0.242885
 Sum of electronic and zero-point Energies=           -860.942608
 Sum of electronic and thermal Energies=              -860.924987
 Sum of electronic and thermal Enthalpies=            -860.924043
 Sum of electronic and thermal Free Energies=         -860.989756

                     E (Thermal)             CV                S
                      KCal/Mol        Cal/Mol-Kelvin    Cal/Mol-Kelvin
 Total                  193.056             65.655            138.305
 Electronic               0.000              0.000              0.000
 Translational            0.889              2.981             42.463
 Rotational               0.889              2.981             33.373
 Vibrational            191.278             59.694             62.470
 Vibration     1          0.593              1.986              6.862
 Vibration     2          0.594              1.982              5.389
 Vibration     3          0.595              1.980              5.110
 Vibration     4          0.600              1.964              3.933
 Vibration     5          0.602              1.955              3.626
 Vibration     6          0.607              1.938              3.199
 Vibration     7          0.611              1.926              2.985
 Vibration     8          0.613              1.919              2.887
 Vibration     9          0.617              1.907              2.722
 Vibration    10          0.620              1.896              2.596
 Vibration    11          0.629              1.868              2.341
 Vibration    12          0.633              1.854              2.232
 Vibration    13          0.660              1.770              1.762
 Vibration    14          0.674              1.729              1.597
 Vibration    15          0.700              1.652              1.355
 Vibration    16          0.715              1.609              1.243
 Vibration    17          0.734              1.557              1.127
 Vibration    18          0.739              1.542              1.096
 Vibration    19          0.751              1.510              1.034
 Vibration    20          0.772              1.456              0.938
 Vibration    21          0.787              1.416              0.875
 Vibration    22          0.819              1.336              0.763
 Vibration    23          0.845              1.274              0.686
 Vibration    24          0.891              1.170              0.573
 Vibration    25          0.904              1.142              0.547
 Vibration    26          0.962              1.023              0.443

 Optimization completed.
    -- Stationary point found.
 Normal termination of Gaussian 16 at Sun Dec 13 13:03:02 2020.

 ----------------------------------------------------------------------
 # B3LYP/6-311++G(d,p) empiricaldispersion=gd3bj scf=xqc pop=npa geom=c
 heck
 ----------------------------------------------------------------------

 --------------------------------------
 CID_76999054_JID_8320_Energie_neutraal
 --------------------------------------
 Structure from the checkpoint file:  "JID_8320.chk"
 Charge =  0 Multiplicity = 1

 SCF Done:  E(RB3LYP) =  -861.478887231     A.U. after   15 cycles
 Normal termination of Gaussian 16 at Sun Dec 13 13:09:58 2020.

 ----------------------------------------------------------------------
 # B3LYP/6-311++G(d,p) empiricaldispersion=gd3bj scf=xqc pop=npa geom=c
 heck
 ----------------------------------------------------------------------

 ------------------------------------
 CID_76999054_JID_8320_Energie_kation
 ------------------------------------
 Structure from the checkpoint file:  "JID_8320.chk"
 Charge =  1 Multiplicity = 2

 SCF Done:  E(UB3LYP) =  -861.191117602     A.U. after   27 cycles
 Normal termination of Gaussian 16 at Sun Dec 13 13:27:43 2020.
 Gaussian 16:  ES64L-G16RevA.03 25-Dec-2016

 ----------------------------------------------------------------------
 # B3LYP/6-311++G(d,p) empiricaldispersion=gd3bj scf=xqc pop=npa geom=c
 heck
 ----------------------------------------------------------------------

 -----------------------------------
 CID_76999054_JID_8320_Energie_anion
 -----------------------------------
 Structure from the checkpoint file:  "JID_8320.chk"
 Charge = -1 Multiplicity = 2

                         Standard orientation:
 ---------------------------------------------------------------------
 Center     Atomic      Atomic             Coordinates (Angstroms)
 Number     Number       Type             X           Y           Z
 ---------------------------------------------------------------------
      1          6           0        3.882981   -1.722565   -0.511598
      2          6           0        3.249887   -0.440791   -0.037070
      3          7           0        3.879016    0.486265    0.598032
      4          8           0        5.233410    0.183875    0.810445
      5          6           0        1.811150   -0.192594   -0.298309
      6          6           0        1.187073    0.978733    0.163186
      7          6           0       -0.161326    1.212603   -0.070366
      8          6           0       -0.931052    0.265673   -0.774943
      9          6           0       -0.312208   -0.884312   -1.258540
     10          6           0        1.040538   -1.116299   -1.019237
     11          8           0       -2.263188    0.518032   -1.026296
     12          6           0       -3.253148   -0.026235   -0.128842
     13          6           0       -2.874350    0.025546    1.358180
     14          6           0       -2.199168   -1.338965    1.611770
     15          8           0       -2.506663   -2.175342    0.484692
     16          6           0       -3.475602   -1.525579   -0.326289
     17          8           0       -0.730693    2.347254    0.463217
     18          6           0       -1.193621    3.298497   -0.500103
     19          1           0        4.928189   -1.771881   -0.211610
     20          1           0        3.826248   -1.797013   -1.603757
     21          1           0        3.353186   -2.587509   -0.097175
     22          1           0        5.536281    0.968929    1.291647
     23          1           0        1.755014    1.714732    0.718982
     24          1           0       -0.906233   -1.607507   -1.804658
     25          1           0        1.487846   -2.027694   -1.398637
     26          1           0       -4.149589    0.554686   -0.356529
     27          1           0       -3.793733    0.117626    1.946013
     28          1           0       -2.238964    0.882780    1.584974
     29          1           0       -1.109611   -1.255917    1.674121
     30          1           0       -2.567289   -1.812380    2.531188
     31          1           0       -4.500172   -1.792191   -0.014151
     32          1           0       -3.333699   -1.839759   -1.364034
     33          1           0       -0.360616    3.648827   -1.123039
     34          1           0       -1.973930    2.870523   -1.135599
     35          1           0       -1.595881    4.137058    0.072544
 ---------------------------------------------------------------------

 SCF Done:  E(UB3LYP) =  -861.475787926     A.U. after   30 cycles

 The electronic state is 2-A.
 Alpha  occ. eigenvalues --  -19.04346 -19.02664 -19.02042 -19.01573 -14.21206
 Alpha  occ. eigenvalues --  -10.12107 -10.11016 -10.10853 -10.10734 -10.10083
 Alpha  occ. eigenvalues --  -10.08990 -10.07549 -10.06436 -10.05739 -10.04713
 Alpha  occ. eigenvalues --  -10.04649 -10.04541 -10.03691  -0.96115  -0.95014
 Alpha  occ. eigenvalues --   -0.93677  -0.91998  -0.75378  -0.71820  -0.67608
 Alpha  occ. eigenvalues --   -0.64083  -0.63369  -0.61591  -0.60471  -0.57136
 Alpha  occ. eigenvalues --   -0.52158  -0.49680  -0.48281  -0.47387  -0.43789
 Alpha  occ. eigenvalues --   -0.41531  -0.40670  -0.38819  -0.38047  -0.37108
 Alpha  occ. eigenvalues --   -0.36680  -0.35134  -0.34977  -0.33150  -0.32816
 Alpha  occ. eigenvalues --   -0.32393  -0.31925  -0.31076  -0.30559  -0.30091
 Alpha  occ. eigenvalues --   -0.27722  -0.27575  -0.26981  -0.26256  -0.25874
 Alpha  occ. eigenvalues --   -0.24574  -0.24143  -0.23107  -0.22182  -0.21751
 Alpha  occ. eigenvalues --   -0.18123  -0.16761  -0.15574  -0.15163  -0.14205
 Alpha  occ. eigenvalues --   -0.12132  -0.10153   0.04433
 Alpha virt. eigenvalues --    0.06317   0.07672   0.07956   0.08721   0.08957
 Alpha virt. eigenvalues --    0.09506   0.10483   0.10678   0.11154   0.11476
 Alpha virt. eigenvalues --    0.11651   0.12269   0.12455   0.13879   0.14109

  Beta  occ. eigenvalues --  -19.04284 -19.02670 -19.02043 -19.01571 -14.20781
  Beta  occ. eigenvalues --  -10.12060 -10.11000 -10.10850 -10.10720 -10.10132
  Beta  occ. eigenvalues --  -10.08755 -10.07475 -10.06422 -10.05749 -10.04655
  Beta  occ. eigenvalues --  -10.04564 -10.04496 -10.03594  -0.95824  -0.94969
  Beta  occ. eigenvalues --   -0.93674  -0.91952  -0.75007  -0.71586  -0.67531
  Beta  occ. eigenvalues --   -0.63982  -0.63265  -0.61307  -0.60354  -0.57023
  Beta  occ. eigenvalues --   -0.51912  -0.49647  -0.48214  -0.47159  -0.43681
  Beta  occ. eigenvalues --   -0.41473  -0.40578  -0.38654  -0.37915  -0.36963
  Beta  occ. eigenvalues --   -0.36601  -0.35100  -0.34898  -0.33075  -0.32739
  Beta  occ. eigenvalues --   -0.31944  -0.31873  -0.30982  -0.30474  -0.30013
  Beta  occ. eigenvalues --   -0.27674  -0.26948  -0.26793  -0.26124  -0.25772
  Beta  occ. eigenvalues --   -0.24469  -0.23975  -0.22996  -0.22141  -0.21393
  Beta  occ. eigenvalues --   -0.18079  -0.16567  -0.14842  -0.14722  -0.14146
  Beta  occ. eigenvalues --   -0.11703  -0.08873
  Beta virt. eigenvalues --    0.06991   0.07640   0.08047   0.08666   0.09083
  Beta virt. eigenvalues --    0.09314   0.09805   0.10517   0.10891   0.11293
  Beta virt. eigenvalues --    0.11581   0.11797   0.12188   0.12577   0.13924

 Mulliken charges and spin densities:
               1          2
     1  C   -0.606256  -0.045840
     2  C   -0.120639  -0.012077
     3  N   -0.453305   0.203791
     4  O   -0.010499   0.010796
     5  C    0.772110   0.024795
     6  C   -0.323356   0.127622
     7  C   -0.378484   0.079055
     8  C    0.368491  -0.048411
     9  C   -0.001657  -0.045998
    10  C   -0.816624   0.010400
    11  O   -0.082170  -0.033700
    12  C   -0.340572   0.412158
    13  C    0.669183  -0.829132
    14  C   -0.468096   0.022055
    15  O   -0.067837  -0.008925
    16  C    0.236758  -0.742335
    17  O   -0.130194   0.016378
    18  C    0.062321  -0.282225
    19  H    0.167233  -0.000648
    20  H    0.092895   0.046249
    21  H    0.137114  -0.001719
    22  H    0.264216   0.000946
    23  H    0.222582  -0.001275
    24  H    0.071709   0.050907
    25  H    0.149003   0.002718
    26  H   -0.783100   1.006005
    27  H   -0.242129   0.427509
    28  H    0.279294  -0.093369
    29  H    0.176749  -0.003231
    30  H    0.069670   0.069246
    31  H   -0.143624   0.253663
    32  H    0.099131   0.087699
    33  H    0.032328   0.078140
    34  H    0.073363   0.112040
    35  H    0.024391   0.106713
 Sum of Mulliken charges =  -1.00000   1.00000

 Dipole moment (field-independent basis, Debye):
    X=              2.7433    Y=             -0.4694    Z=              0.3212  Tot=              2.8016
 Quadrupole moment (field-independent basis, Debye-Ang):
   XX=           -180.7916   YY=           -129.8071   ZZ=           -124.3262
   XY=              2.8240   XZ=              2.1655   YZ=              2.4736

 Summary of Natural Population Analysis:

                                       Natural Population
                Natural  -----------------------------------------------
    Atom  No    Charge         Core      Valence    Rydberg      Total
 -----------------------------------------------------------------------
      C    1   -0.31691      0.99964     2.31279    0.00448     3.31691
      C    2    0.10471      0.99959     1.87960    0.01610     2.89529
      N    3   -0.03489      0.99959     2.52083    0.01447     3.53489
      O    4   -0.29541      0.99989     3.28864    0.00687     4.29541
      C    5   -0.01707      0.99948     2.00733    0.01026     3.01707
      C    6   -0.08623      0.99948     2.07617    0.01058     3.08623
      C    7    0.12142      0.99931     1.86508    0.01419     2.87858
      C    8    0.15642      0.99930     1.82957    0.01470     2.84358
      C    9   -0.11526      0.99952     2.10632    0.00942     3.11526
      C   10   -0.09713      0.99954     2.08816    0.00943     3.09713
      O   11   -0.29985      0.99986     3.28913    0.01086     4.29985
      C   12    0.06104      0.99951     1.92267    0.01677     2.93896
      C   13   -0.22896      0.99961     2.22096    0.00838     3.22896
      C   14   -0.01381      0.99960     2.00285    0.01136     3.01381
      O   15   -0.30198      0.99990     3.29395    0.00814     4.30198
      C   16   -0.02345      0.99957     2.01005    0.01383     3.02345
      O   17   -0.29478      0.99986     3.28466    0.01026     4.29478
      C   18   -0.09711      0.99959     2.08993    0.00759     3.09711
      H   19    0.11197      0.00000     0.38714    0.00089     0.38803
      H   20    0.10357      0.00000     0.39520    0.00123     0.39643
      H   21    0.10366      0.00000     0.39537    0.00097     0.39634
      H   22    0.22870      0.00000     0.26889    0.00241     0.27130
      H   23    0.11079      0.00000     0.38747    0.00174     0.38921
      H   24    0.10058      0.00000     0.39797    0.00145     0.39942
      H   25    0.09586      0.00000     0.40323    0.00092     0.40414
      H   26    0.09766      0.00000     0.39943    0.00291     0.40234
      H   27    0.10304      0.00000     0.39559    0.00137     0.39696
      H   28    0.12117      0.00000     0.37731    0.00151     0.37883
      H   29    0.09399      0.00000     0.40483    0.00118     0.40601
      H   30    0.07903      0.00000     0.41984    0.00113     0.42097
      H   31    0.07980      0.00000     0.41874    0.00146     0.42020
      H   32    0.09314      0.00000     0.40557    0.00129     0.40686
      H   33    0.07937      0.00000     0.41920    0.00143     0.42063
      H   34    0.09299      0.00000     0.40539    0.00163     0.40701
      H   35    0.08391      0.00000     0.41499    0.00110     0.41609
 =======================================================================
   * Total *   -0.00000     17.99285    48.78484    0.22230    67.00000

 Normal termination of Gaussian 16 at Sun Dec 13 13:46:58 2020.
