 Gaussian 16, Revision A.03,

 -----------------------------------------------------------
 # opt freq B3LYP/6-31G(d) empiricaldispersion=gd3bj scf=xqc
 -----------------------------------------------------------

 ----------------------------
 CID_249272_JID_6632_neutraal
 ----------------------------
 Symbolic Z-matrix:
 Charge =  0 Multiplicity = 1

 SCF Done:  E(RB3LYP) =  -694.863344067     A.U. after   15 cycles
 SCF Done:  E(RB3LYP) =  -694.867820507     A.U. after   12 cycles
 SCF Done:  E(RB3LYP) =  -694.868037416     A.U. after   12 cycles
 SCF Done:  E(RB3LYP) =  -694.868159942     A.U. after   10 cycles
 SCF Done:  E(RB3LYP) =  -694.868250775     A.U. after   10 cycles
 SCF Done:  E(RB3LYP) =  -694.868256978     A.U. after   10 cycles
 SCF Done:  E(RB3LYP) =  -694.868260642     A.U. after    9 cycles
 SCF Done:  E(RB3LYP) =  -694.868261382     A.U. after    8 cycles
 SCF Done:  E(RB3LYP) =  -694.868261526     A.U. after    7 cycles
 Optimization completed.
    -- Stationary point found.
 Normal termination of Gaussian 16 at Thu Dec 10 23:54:42 2020.

 --------------------------------------------------------------------
 #N Geom=AllCheck Guess=TCheck SCRF=Check GenChk RB3LYP/6-31G(d) Freq
 --------------------------------------------------------------------

 Structure from the checkpoint file:  "JID_6632.chk"
 ----------------------------
 CID_249272_JID_6632_neutraal
 ----------------------------
 Charge =  0 Multiplicity = 1

 SCF Done:  E(RB3LYP) =  -694.868261526     A.U. after    1 cycles

  Exact polarizability: 208.216   2.418 136.108   1.171   8.951 100.725
 Approx polarizability: 265.161  11.268 228.466  -0.697  23.239 151.503

                      1                      2                      3
                      A                      A                      A
 Frequencies --     21.3905                54.2032                57.4179
 Red. masses --      3.8590                 3.6471                 3.4202
 Frc consts  --      0.0010                 0.0063                 0.0066
 IR Inten    --      2.1772                 2.2744                 0.2832

                      4                      5                      6
                      A                      A                      A
 Frequencies --     61.5538               134.8577               161.6145
 Red. masses --      6.1924                 3.1741                 3.2223
 Frc consts  --      0.0138                 0.0340                 0.0496
 IR Inten    --      1.1678                 1.0863                 0.6442

                      7                      8                      9
                      A                      A                      A
 Frequencies --    178.8662               220.7547               232.2615
 Red. masses --      3.0723                 4.6783                 1.1648
 Frc consts  --      0.0579                 0.1343                 0.0370
 IR Inten    --      0.2578                 0.3541                 0.1154

                     10                     11                     12
                      A                      A                      A
 Frequencies --    271.0349               283.9748               304.3449
 Red. masses --      1.3322                 1.9313                 2.7979
 Frc consts  --      0.0577                 0.0918                 0.1527
 IR Inten    --      0.3622                 0.4465                 0.2505

                     13                     14                     15
                      A                      A                      A
 Frequencies --    334.2751               336.7785               370.8288
 Red. masses --      2.6849                 1.0510                 2.5367
 Frc consts  --      0.1768                 0.0702                 0.2055
 IR Inten    --      0.4885                 0.0070                 0.2947

                     16                     17                     18
                      A                      A                      A
 Frequencies --    396.3873               417.8939               443.5279
 Red. masses --      3.2339                 3.0069                 4.0752
 Frc consts  --      0.2994                 0.3094                 0.4723
 IR Inten    --      1.5730                 0.4967                 1.0208

                     19                     20                     21
                      A                      A                      A
 Frequencies --    467.2416               506.6274               531.4101
 Red. masses --      2.9312                 4.1365                 2.2800
 Frc consts  --      0.3770                 0.6255                 0.3794
 IR Inten    --      0.4628                 4.5319                 5.7835

                     22                     23                     24
                      A                      A                      A
 Frequencies --    559.6342               586.5985               622.3750
 Red. masses --      3.3571                 2.4243                 3.1329
 Frc consts  --      0.6195                 0.4915                 0.7150
 IR Inten    --      0.4453                11.5234                 1.8307

                     25                     26                     27
                      A                      A                      A
 Frequencies --    655.3333               696.6420               714.8035
 Red. masses --      6.8272                 6.3765                 4.5695
 Frc consts  --      1.7275                 1.8233                 1.3756
 IR Inten    --      1.3757                 7.0491                 3.7403

                     28                     29                     30
                      A                      A                      A
 Frequencies --    757.4811               820.4001               831.9202
 Red. masses --      4.0972                 2.8799                 2.4223
 Frc consts  --      1.3851                 1.1421                 0.9877
 IR Inten    --      2.0164                 4.1289                10.3878

                     31                     32                     33
                      A                      A                      A
 Frequencies --    852.8618               856.8468               865.5312
 Red. masses --      1.7153                 1.4752                 2.0339
 Frc consts  --      0.7351                 0.6381                 0.8977
 IR Inten    --     11.0563                 2.0054                12.6878

                     34                     35                     36
                      A                      A                      A
 Frequencies --    906.9097               941.2461               953.4933
 Red. masses --      3.2627                 1.7672                 1.7155
 Frc consts  --      1.5811                 0.9224                 0.9189
 IR Inten    --     21.8806                 1.0912                 1.7783

                     37                     38                     39
                      A                      A                      A
 Frequencies --    955.7576               963.8042               973.9659
 Red. masses --      2.4379                 1.3141                 1.3094
 Frc consts  --      1.3121                 0.7192                 0.7318
 IR Inten    --     25.2993                 0.3244                 2.0763

                     40                     41                     42
                      A                      A                      A
 Frequencies --    976.3972              1004.0814              1041.3516
 Red. masses --      1.2159                 1.9790                 2.8368
 Frc consts  --      0.6830                 1.1756                 1.8125
 IR Inten    --      0.4826                12.0920                21.0209

                     43                     44                     45
                      A                      A                      A
 Frequencies --   1056.5990              1062.1713              1064.2857
 Red. masses --      1.7711                 3.2668                 1.3922
 Frc consts  --      1.1650                 2.1715                 0.9291
 IR Inten    --     12.9157                86.1544                 0.1703

                     46                     47                     48
                      A                      A                      A
 Frequencies --   1084.5937              1145.5872              1152.7307
 Red. masses --      2.2423                 2.5607                 1.6006
 Frc consts  --      1.5541                 1.9800                 1.2531
 IR Inten    --      4.2582                13.4702                82.2201

                     49                     50                     51
                      A                      A                      A
 Frequencies --   1163.9155              1202.8112              1226.2363
 Red. masses --      1.6506                 2.1572                 1.2159
 Frc consts  --      1.3175                 1.8388                 1.0772
 IR Inten    --     98.1416               155.1187                 6.6398

                     52                     53                     54
                      A                      A                      A
 Frequencies --   1243.7521              1244.0705              1247.6332
 Red. masses --      2.7073                 1.5397                 2.3113
 Frc consts  --      2.4674                 1.4040                 2.1197
 IR Inten    --      3.3659                15.0476                 2.7851

                     55                     56                     57
                      A                      A                      A
 Frequencies --   1257.8339              1307.9104              1317.5152
 Red. masses --      1.9181                 3.0330                 1.4317
 Frc consts  --      1.7880                 3.0569                 1.4643
 IR Inten    --      5.1698                21.5406                 2.5656

                     58                     59                     60
                      A                      A                      A
 Frequencies --   1331.8831              1346.2895              1352.3009
 Red. masses --      1.6909                 2.8894                 1.5132
 Frc consts  --      1.7672                 3.0856                 1.6304
 IR Inten    --     50.3309                 3.1558                 1.1734

                     61                     62                     63
                      A                      A                      A
 Frequencies --   1369.7264              1410.1501              1427.1428
 Red. masses --      1.4463                 1.6635                 1.2124
 Frc consts  --      1.5987                 1.9490                 1.4549
 IR Inten    --     19.5304                15.1745                 3.9335

                     64                     65                     66
                      A                      A                      A
 Frequencies --   1428.6342              1459.4309              1465.9388
 Red. masses --      1.2495                 1.2231                 2.3805
 Frc consts  --      1.5026                 1.5349                 3.0141
 IR Inten    --      6.4268                 2.2787                14.4738

                     67                     68                     69
                      A                      A                      A
 Frequencies --   1494.8017              1513.0503              1516.8715
 Red. masses --      1.0839                 1.0496                 1.0455
 Frc consts  --      1.4270                 1.4158                 1.4174
 IR Inten    --      4.4299                 0.0022                 0.1026

                     70                     71                     72
                      A                      A                      A
 Frequencies --   1520.7696              1526.2570              1534.2691
 Red. masses --      1.0550                 1.1019                 1.0669
 Frc consts  --      1.4376                 1.5124                 1.4797
 IR Inten    --      0.7714                 5.3730                 6.6375

                     73                     74                     75
                      A                      A                      A
 Frequencies --   1538.8027              1550.9927              1569.9723
 Red. masses --      1.0504                 1.0680                 2.3146
 Frc consts  --      1.4655                 1.5136                 3.3613
 IR Inten    --      5.3454                 6.2978                16.9019

                     76                     77                     78
                      A                      A                      A
 Frequencies --   1632.3807              1679.2038              1890.5835
 Red. masses --      6.0939                 5.7518                12.7180
 Frc consts  --      9.5672                 9.5556                26.7831
 IR Inten    --      1.1321                 2.2833               442.7951

                     79                     80                     81
                      A                      A                      A
 Frequencies --   3041.8984              3045.7062              3046.2299
 Red. masses --      1.0856                 1.0350                 1.0349
 Frc consts  --      5.9184                 5.6566                 5.6580
 IR Inten    --     27.5952                26.1316                26.3225

                     82                     83                     84
                      A                      A                      A
 Frequencies --   3053.7588              3064.2470              3082.0709
 Red. masses --      1.0362                 1.0701                 1.0623
 Frc consts  --      5.6934                 5.9202                 5.9455
 IR Inten    --     24.9058                 9.2596                18.3320

                     85                     86                     87
                      A                      A                      A
 Frequencies --   3112.0382              3113.1146              3118.6576
 Red. masses --      1.1022                 1.1023                 1.1029
 Frc consts  --      6.2895                 6.2941                 6.3201
 IR Inten    --      4.5418                 5.1177                23.4061

                     88                     89                     90
                      A                      A                      A
 Frequencies --   3120.8985              3124.3636              3126.8645
 Red. masses --      1.1015                 1.1022                 1.1015
 Frc consts  --      6.3213                 6.3390                 6.3456
 IR Inten    --     93.9211                24.4904                42.1824

                     91                     92                     93
                      A                      A                      A
 Frequencies --   3135.4901              3146.8557              3172.6189
 Red. masses --      1.1021                 1.0976                 1.0880
 Frc consts  --      6.3840                 6.4037                 6.4521
 IR Inten    --     14.1393                 9.8421                15.4671

                     94                     95                     96
                      A                      A                      A
 Frequencies --   3200.5586              3206.4361              3227.8491
 Red. masses --      1.0919                 1.0880                 1.0919
 Frc consts  --      6.5903                 6.5908                 6.7031
 IR Inten    --     23.3885                 3.8294                 9.9484

 - Thermochemistry -
 -------------------
 Temperature   298.150 Kelvin.  Pressure   1.00000 Atm.
 Atom     1 has atomic number  6 and mass  12.00000

 Molecular mass:   218.13068 amu.
 Principal axes and moments of inertia in atomic units:
                           1         2         3
     Eigenvalues --  1161.236938273.198318658.29582
           X            0.99991  -0.01259   0.00444
           Y            0.01247   0.99959   0.02594
           Z           -0.00477  -0.02588   0.99965
 This molecule is an asymmetric top.
 Rotational symmetry number  1.
 Warning -- assumption of classical behavior for rotation
           may cause significant error
 Rotational temperatures (Kelvin)      0.07459     0.01047     0.01000
 Rotational constants (GHZ):           1.55415     0.21814     0.20844
 Zero-point vibrational energy     770403.7 (Joules/Mol)
                                  184.13089 (Kcal/Mol)
 Warning -- explicit consideration of  23 degrees of freedom as
           vibrations may cause significant error
 Vibrational temperatures:     30.78    77.99    82.61    88.56   194.03
          (Kelvin)            232.53   257.35   317.62   334.17   389.96
                              408.58   437.88   480.95   484.55   533.54
                              570.31   601.26   638.14   672.26   728.92
                              764.58   805.19   843.98   895.46   942.88
                             1002.31  1028.44  1089.85  1180.37  1196.95
                             1227.08  1232.81  1245.31  1304.84  1354.24
                             1371.86  1375.12  1386.70  1401.32  1404.82
                             1444.65  1498.27  1520.21  1528.23  1531.27
                             1560.49  1648.24  1658.52  1674.61  1730.58
                             1764.28  1789.48  1789.94  1795.07  1809.74
                             1881.79  1895.61  1916.28  1937.01  1945.66
                             1970.73  2028.89  2053.34  2055.49  2099.80
                             2109.16  2150.69  2176.94  2182.44  2188.05
                             2195.94  2207.47  2213.99  2231.53  2258.84
                             2348.63  2416.00  2720.13  4376.61  4382.09
                             4382.85  4393.68  4408.77  4434.41  4477.53
                             4479.08  4487.05  4490.28  4495.26  4498.86
                             4511.27  4527.62  4564.69  4604.89  4613.35
                             4644.15

 Zero-point correction=                           0.293431 (Hartree/Particle)
 Thermal correction to Energy=                    0.308546
 Thermal correction to Enthalpy=                  0.309491
 Thermal correction to Gibbs Free Energy=         0.250279
 Sum of electronic and zero-point Energies=           -694.574830
 Sum of electronic and thermal Energies=              -694.559715
 Sum of electronic and thermal Enthalpies=            -694.558771
 Sum of electronic and thermal Free Energies=         -694.617983

                     E (Thermal)             CV                S
                      KCal/Mol        Cal/Mol-Kelvin    Cal/Mol-Kelvin
 Total                  193.616             59.084            124.622
 Electronic               0.000              0.000              0.000
 Translational            0.889              2.981             42.043
 Rotational               0.889              2.981             32.786
 Vibrational            191.838             53.123             49.793
 Vibration     1          0.593              1.985              6.501
 Vibration     2          0.596              1.976              4.658
 Vibration     3          0.596              1.975              4.544
 Vibration     4          0.597              1.973              4.407
 Vibration     5          0.613              1.919              2.876
 Vibration     6          0.622              1.889              2.531
 Vibration     7          0.629              1.868              2.340
 Vibration     8          0.647              1.809              1.953
 Vibration     9          0.653              1.792              1.861
 Vibration    10          0.675              1.727              1.590
 Vibration    11          0.682              1.703              1.510
 Vibration    12          0.695              1.665              1.393
 Vibration    13          0.716              1.607              1.239
 Vibration    14          0.717              1.602              1.227
 Vibration    15          0.743              1.532              1.076
 Vibration    16          0.763              1.478              0.976
 Vibration    17          0.781              1.431              0.899
 Vibration    18          0.803              1.375              0.816
 Vibration    19          0.825              1.323              0.745
 Vibration    20          0.862              1.235              0.642
 Vibration    21          0.886              1.181              0.584
 Vibration    22          0.915              1.119              0.525
 Vibration    23          0.944              1.060              0.473

                           ! Non-Optimized Parameters !
 Normal termination of Gaussian 16 at Fri Dec 11 00:04:39 2020.

 ----------------------------------------------------------------------
 # B3LYP/6-311++G(d,p) empiricaldispersion=gd3bj scf=xqc pop=npa geom=c
 heck
 ----------------------------------------------------------------------

 ------------------------------------
 CID_249272_JID_6632_Energie_neutraal
 ------------------------------------
 Structure from the checkpoint file:  "JID_6632.chk"
 Charge =  0 Multiplicity = 1

 SCF Done:  E(RB3LYP) =  -695.057065445     A.U. after   15 cycles
 Normal termination of Gaussian 16 at Fri Dec 11 00:09:02 2020.

 ----------------------------------------------------------------------
 # B3LYP/6-311++G(d,p) empiricaldispersion=gd3bj scf=xqc pop=npa geom=c
 heck
 ----------------------------------------------------------------------

 ----------------------------------
 CID_249272_JID_6632_Energie_kation
 ----------------------------------
 Structure from the checkpoint file:  "JID_6632.chk"
 Charge =  1 Multiplicity = 2

 SCF Done:  E(UB3LYP) =  -694.744726020     A.U. after   24 cycles
 Normal termination of Gaussian 16 at Fri Dec 11 00:18:27 2020.
 Gaussian 16:  ES64L-G16RevA.03 25-Dec-2016

 ----------------------------------------------------------------------
 # B3LYP/6-311++G(d,p) empiricaldispersion=gd3bj scf=xqc pop=npa geom=c
 heck
 ----------------------------------------------------------------------

 ---------------------------------
 CID_249272_JID_6632_Energie_anion
 ---------------------------------
 Structure from the checkpoint file:  "JID_6632.chk"
 Charge = -1 Multiplicity = 2

                         Standard orientation:
 ---------------------------------------------------------------------
 Center     Atomic      Atomic             Coordinates (Angstroms)
 Number     Number       Type             X           Y           Z
 ---------------------------------------------------------------------
      1          6           0       -3.952540    1.610966    0.600800
      2          6           0       -3.583868    0.206479    0.095692
      3          6           0       -4.146787   -0.829044    1.093422
      4          6           0       -4.244016    0.000722   -1.285064
      5          6           0       -2.067198    0.013369   -0.033271
      6          6           0       -1.555324   -1.215421   -0.478594
      7          6           0       -0.186951   -1.425858   -0.616597
      8          6           0        0.724302   -0.414033   -0.302002
      9          6           0        0.230688    0.813414    0.141228
     10          6           0       -1.142697    1.021157    0.268623
     11          6           0        2.202032   -0.682491   -0.378419
     12          6           0        2.847484   -1.099064    0.961401
     13          6           0        4.280735   -0.594631    0.803819
     14          6           0        4.125988    0.598728   -0.132943
     15          8           0        4.898738    1.496230   -0.338779
     16          8           0        2.917486    0.516356   -0.765626
     17          1           0       -5.041425    1.699281    0.679739
     18          1           0       -3.605127    2.392579   -0.083596
     19          1           0       -3.530681    1.809529    1.592213
     20          1           0       -5.231813   -0.708775    1.195306
     21          1           0       -3.953324   -1.855328    0.765475
     22          1           0       -3.693896   -0.702041    2.082896
     23          1           0       -3.860168    0.725429   -2.011329
     24          1           0       -4.053937   -1.002262   -1.680165
     25          1           0       -5.330097    0.131677   -1.211035
     26          1           0       -2.235142   -2.023120   -0.732804
     27          1           0        0.176025   -2.386776   -0.974944
     28          1           0        0.923618    1.617625    0.367659
     29          1           0       -1.486701    1.991573    0.606844
     30          1           0        2.402822   -1.442744   -1.144503
     31          1           0        2.758740   -2.173992    1.136801
     32          1           0        2.340767   -0.577318    1.779869
     33          1           0        4.925878   -1.332159    0.309240
     34          1           0        4.773570   -0.289609    1.729006
 ---------------------------------------------------------------------

 SCF Done:  E(UB3LYP) =  -695.048131429     A.U. after   33 cycles
 SCF Done:  E(UB3LYP) =  -695.048131429     a.u. after    1 cycles

 The electronic state is 2-A.
 Alpha  occ. eigenvalues --  -19.07732 -19.02469 -10.21423 -10.15285 -10.10464
 Alpha  occ. eigenvalues --  -10.10244 -10.09530 -10.09458 -10.09318 -10.08624
 Alpha  occ. eigenvalues --  -10.08577 -10.08465 -10.08349 -10.07373 -10.07219
 Alpha  occ. eigenvalues --  -10.07086  -1.01783  -0.94282  -0.77970  -0.73853
 Alpha  occ. eigenvalues --   -0.71752  -0.67834  -0.66066  -0.61700  -0.60245
 Alpha  occ. eigenvalues --   -0.59976  -0.54524  -0.52365  -0.51701  -0.47267
 Alpha  occ. eigenvalues --   -0.46366  -0.43456  -0.43116  -0.39026  -0.37799
 Alpha  occ. eigenvalues --   -0.37303  -0.36423  -0.35614  -0.35158  -0.33947
 Alpha  occ. eigenvalues --   -0.33808  -0.32975  -0.32379  -0.31848  -0.31029
 Alpha  occ. eigenvalues --   -0.29372  -0.28790  -0.28158  -0.27717  -0.26765
 Alpha  occ. eigenvalues --   -0.26407  -0.26228  -0.24708  -0.23919  -0.23349
 Alpha  occ. eigenvalues --   -0.21666  -0.19097  -0.16782  -0.15408   0.03785
 Alpha virt. eigenvalues --    0.05329   0.06648   0.07050   0.07273   0.07517
 Alpha virt. eigenvalues --    0.07730   0.08012   0.08471   0.08993   0.09588
 Alpha virt. eigenvalues --    0.09753   0.10149   0.10507   0.11570   0.11871

  Beta  occ. eigenvalues --  -19.07722 -19.02466 -10.21419 -10.15267 -10.10461
  Beta  occ. eigenvalues --  -10.10217 -10.09502 -10.09460 -10.09318 -10.08606
  Beta  occ. eigenvalues --  -10.08570 -10.08458 -10.08336 -10.07351 -10.07198
  Beta  occ. eigenvalues --  -10.07060  -1.01765  -0.94270  -0.77954  -0.73835
  Beta  occ. eigenvalues --   -0.71713  -0.67807  -0.66040  -0.61666  -0.60204
  Beta  occ. eigenvalues --   -0.59930  -0.54462  -0.52332  -0.51671  -0.47225
  Beta  occ. eigenvalues --   -0.46326  -0.43400  -0.43082  -0.39002  -0.37772
  Beta  occ. eigenvalues --   -0.37272  -0.36392  -0.35582  -0.35118  -0.33920
  Beta  occ. eigenvalues --   -0.33777  -0.32946  -0.32338  -0.31804  -0.31003
  Beta  occ. eigenvalues --   -0.29342  -0.28764  -0.28133  -0.27691  -0.26734
  Beta  occ. eigenvalues --   -0.26382  -0.26191  -0.24683  -0.23897  -0.23326
  Beta  occ. eigenvalues --   -0.21624  -0.19083  -0.16760  -0.15398
  Beta virt. eigenvalues --    0.05782   0.06521   0.06945   0.07280   0.07496
  Beta virt. eigenvalues --    0.07950   0.08111   0.08219   0.08873   0.09476
  Beta virt. eigenvalues --    0.09865   0.10000   0.10385   0.10833   0.11876

 Mulliken charges and spin densities:
               1          2
     1  C   -0.180229  -0.309915
     2  C   -0.719030   1.245142
     3  C    0.245355  -0.915456
     4  C    0.307469  -0.978794
     5  C    0.699472  -0.142607
     6  C   -0.537535   0.113687
     7  C    1.149935  -1.717879
     8  C    1.039583  -0.458515
     9  C   -0.706294   0.456813
    10  C   -1.245317   0.720946
    11  C    0.025115  -0.070240
    12  C    0.891556  -1.298598
    13  C    0.250965  -0.639784
    14  C    0.463223  -0.335578
    15  O   -0.349463   0.025847
    16  O   -0.009854  -0.034668
    17  H   -0.229697   0.399605
    18  H   -0.013063   0.143914
    19  H   -0.003189   0.135488
    20  H   -0.112264   0.263538
    21  H   -0.262074   0.409290
    22  H    0.012628   0.130970
    23  H    0.067074   0.073375
    24  H   -0.172016   0.322972
    25  H   -0.096406   0.245854
    26  H    0.131707   0.017361
    27  H   -0.811893   1.003070
    28  H    0.020262   0.171166
    29  H    0.065109   0.099947
    30  H   -0.215365   0.479621
    31  H   -0.451916   0.639000
    32  H    0.004055   0.157785
    33  H   -0.264436   0.459894
    34  H    0.006537   0.186748
 Sum of Mulliken charges =  -1.00000   1.00000

 Dipole moment (field-independent basis, Debye):
    X=             -1.1134    Y=              3.2974    Z=              1.0716  Tot=              3.6415
 Quadrupole moment (field-independent basis, Debye-Ang):
   XX=           -207.9928   YY=           -147.6861   ZZ=           -127.7026
   XY=              0.0171   XZ=              5.0183   YZ=              1.6635

 Summary of Natural Population Analysis:

                                       Natural Population
                Natural  -----------------------------------------------
    Atom  No    Charge         Core      Valence    Rydberg      Total
 -----------------------------------------------------------------------
      C    1   -0.28730      0.99964     2.28010    0.00756     3.28730
      C    2   -0.05361      0.99956     2.04270    0.01135     3.05361
      C    3   -0.27989      0.99963     2.27328    0.00698     3.27989
      C    4   -0.27978      0.99963     2.27315    0.00700     3.27978
      C    5   -0.00777      0.99948     1.99567    0.01261     3.00777
      C    6   -0.09460      0.99951     2.08583    0.00925     3.09460
      C    7   -0.09082      0.99951     2.08124    0.01006     3.09082
      C    8   -0.03467      0.99948     2.02337    0.01183     3.03467
      C    9   -0.09193      0.99951     2.08411    0.00831     3.09193
      C   10   -0.10016      0.99951     2.09299    0.00765     3.10016
      C   11    0.06210      0.99951     1.92301    0.01538     2.93790
      C   12   -0.19625      0.99962     2.18823    0.00840     3.19625
      C   13   -0.24577      0.99960     2.23837    0.00780     3.24577
      C   14    0.40936      0.99970     1.56446    0.02648     2.59064
      O   15   -0.29459      0.99986     3.28857    0.00616     4.29459
      O   16   -0.27681      0.99986     3.26958    0.00737     4.27681
      H   17    0.10255      0.00000     0.39658    0.00087     0.39745
      H   18    0.10055      0.00000     0.39855    0.00091     0.39945
      H   19    0.10092      0.00000     0.39815    0.00093     0.39908
      H   20    0.09907      0.00000     0.39991    0.00102     0.40093
      H   21    0.10170      0.00000     0.39717    0.00113     0.39830
      H   22    0.10118      0.00000     0.39793    0.00089     0.39882
      H   23    0.10075      0.00000     0.39845    0.00080     0.39925
      H   24    0.10134      0.00000     0.39764    0.00102     0.39866
      H   25    0.09900      0.00000     0.40008    0.00092     0.40100
      H   26    0.10243      0.00000     0.39579    0.00178     0.39757
      H   27    0.10445      0.00000     0.39375    0.00180     0.39555
      H   28    0.10568      0.00000     0.39306    0.00126     0.39432
      H   29    0.10222      0.00000     0.39655    0.00123     0.39778
      H   30    0.09413      0.00000     0.40328    0.00258     0.40587
      H   31    0.11340      0.00000     0.38343    0.00317     0.38660
      H   32    0.10141      0.00000     0.39708    0.00151     0.39859
      H   33    0.11776      0.00000     0.38028    0.00196     0.38224
      H   34    0.11392      0.00000     0.38521    0.00086     0.38608
 =======================================================================
   * Total *    0.00000     15.99360    42.81755    0.18885    59.00000

 Normal termination of Gaussian 16 at Fri Dec 11 00:31:30 2020.
