 Gaussian 16, Revision A.03,

 -----------------------------------------------------------
 # opt freq B3LYP/6-31G(d) empiricaldispersion=gd3bj scf=xqc
 -----------------------------------------------------------

 -------------------------------
 CID_113422411_JID_8720_neutraal
 -------------------------------
 Symbolic Z-matrix:
 Charge =  0 Multiplicity = 1

 SCF Done:  E(RB3LYP) =  -1257.01429571     A.U. after   14 cycles
 SCF Done:  E(RB3LYP) =  -1257.01941339     A.U. after   13 cycles
 SCF Done:  E(RB3LYP) =  -1257.02271015     A.U. after   13 cycles
 SCF Done:  E(RB3LYP) =  -1257.02471634     A.U. after   12 cycles
 SCF Done:  E(RB3LYP) =  -1257.02517237     A.U. after   12 cycles
 SCF Done:  E(RB3LYP) =  -1257.02623567     A.U. after   12 cycles
 SCF Done:  E(RB3LYP) =  -1257.02665683     A.U. after   12 cycles
 SCF Done:  E(RB3LYP) =  -1257.02642989     A.U. after   12 cycles
 SCF Done:  E(RB3LYP) =  -1257.02716271     A.U. after   12 cycles
 SCF Done:  E(RB3LYP) =  -1257.02732799     A.U. after   11 cycles
 SCF Done:  E(RB3LYP) =  -1257.02742713     A.U. after    9 cycles
 SCF Done:  E(RB3LYP) =  -1257.02743043     A.U. after    9 cycles
 SCF Done:  E(RB3LYP) =  -1257.02743236     A.U. after    9 cycles
 SCF Done:  E(RB3LYP) =  -1257.02743272     A.U. after    8 cycles
 SCF Done:  E(RB3LYP) =  -1257.02743283     A.U. after    7 cycles
 Optimization completed.
    -- Stationary point found.
 Normal termination of Gaussian 16 at Fri Dec 11 22:21:04 2020.

 --------------------------------------------------------------------
 #N Geom=AllCheck Guess=TCheck SCRF=Check GenChk RB3LYP/6-31G(d) Freq
 --------------------------------------------------------------------

 Structure from the checkpoint file:  "JID_8720.chk"
 -------------------------------
 CID_113422411_JID_8720_neutraal
 -------------------------------
 Charge =  0 Multiplicity = 1

 SCF Done:  E(RB3LYP) =  -1257.02743283     A.U. after    1 cycles

  Exact polarizability: 181.350   8.482 158.417   5.861   9.402 123.863
 Approx polarizability: 256.491  16.061 230.291   7.717  22.327 192.359

                      1                      2                      3
                      A                      A                      A
 Frequencies --     23.7038                38.9202                41.8935
 Red. masses --      6.9056                 3.4260                 4.2925
 Frc consts  --      0.0023                 0.0031                 0.0044
 IR Inten    --      0.5306                 0.4959                 0.5595

                      4                      5                      6
                      A                      A                      A
 Frequencies --     45.7955                62.8786                80.8559
 Red. masses --      5.3147                 3.7867                 3.8964
 Frc consts  --      0.0066                 0.0088                 0.0150
 IR Inten    --      2.8228                 0.8210                 4.4333

                      7                      8                      9
                      A                      A                      A
 Frequencies --     87.1721               132.8896               162.7225
 Red. masses --      3.1715                 4.7685                 2.1082
 Frc consts  --      0.0142                 0.0496                 0.0329
 IR Inten    --      3.6773                 1.3748                 0.3091

                     10                     11                     12
                      A                      A                      A
 Frequencies --    170.6581               179.6781               184.1303
 Red. masses --      2.3152                 5.5432                 1.7271
 Frc consts  --      0.0397                 0.1054                 0.0345
 IR Inten    --      3.4095                 1.6747                 1.8323

                     13                     14                     15
                      A                      A                      A
 Frequencies --    215.7957               219.4066               224.8175
 Red. masses --      1.1323                 1.6970                 2.0413
 Frc consts  --      0.0311                 0.0481                 0.0608
 IR Inten    --      0.5975                 5.8919                 2.4959

                     16                     17                     18
                      A                      A                      A
 Frequencies --    239.9949               248.6594               256.0460
 Red. masses --      2.4960                 2.0622                 1.3588
 Frc consts  --      0.0847                 0.0751                 0.0525
 IR Inten    --      2.8196                20.0108                 3.6113

                     19                     20                     21
                      A                      A                      A
 Frequencies --    269.9500               286.3591               307.0528
 Red. masses --      3.5113                 4.0964                 2.8054
 Frc consts  --      0.1508                 0.1979                 0.1558
 IR Inten    --      7.1407                 3.5993                 1.7136

                     22                     23                     24
                      A                      A                      A
 Frequencies --    321.1797               334.6499               351.8197
 Red. masses --      1.5192                 3.1576                 3.1342
 Frc consts  --      0.0923                 0.2083                 0.2286
 IR Inten    --     81.7253                18.1882                 2.0652

                     25                     26                     27
                      A                      A                      A
 Frequencies --    383.0122               406.0838               419.8782
 Red. masses --      3.1303                 4.1686                 3.0916
 Frc consts  --      0.2706                 0.4050                 0.3211
 IR Inten    --      4.6943                10.9942                11.7664

                     28                     29                     30
                      A                      A                      A
 Frequencies --    433.7032               442.5776               486.3500
 Red. masses --      2.4667                 4.2319                 2.2468
 Frc consts  --      0.2734                 0.4884                 0.3131
 IR Inten    --     30.8483                32.0473                 4.0917

                     31                     32                     33
                      A                      A                      A
 Frequencies --    501.8856               520.2135               576.7438
 Red. masses --      3.6080                 1.8181                 4.0524
 Frc consts  --      0.5355                 0.2899                 0.7942
 IR Inten    --     34.4586                30.9360                 8.4764

                     34                     35                     36
                      A                      A                      A
 Frequencies --    597.8152               607.6280               629.6658
 Red. masses --      4.6933                 3.2746                 4.0957
 Frc consts  --      0.9882                 0.7123                 0.9568
 IR Inten    --      8.4753                 2.4645                17.3683

                     37                     38                     39
                      A                      A                      A
 Frequencies --    669.2040               730.8946               744.4381
 Red. masses --      3.1037                 4.1785                 1.7179
 Frc consts  --      0.8189                 1.3152                 0.5609
 IR Inten    --     36.5229                 6.6196               227.6000

                     40                     41                     42
                      A                      A                      A
 Frequencies --    767.9446               798.8600               806.6691
 Red. masses --      3.1157                 2.3476                 2.6729
 Frc consts  --      1.0826                 0.8827                 1.0248
 IR Inten    --      2.6582                 8.9664                41.7673

                     43                     44                     45
                      A                      A                      A
 Frequencies --    890.4535               919.6355               941.4579
 Red. masses --      2.7894                 2.5947                 1.2387
 Frc consts  --      1.3031                 1.2929                 0.6469
 IR Inten    --     10.8853                18.4618                 0.6324

                     46                     47                     48
                      A                      A                      A
 Frequencies --    955.3802               962.6676               979.2183
 Red. masses --      2.8801                 1.3944                 3.9406
 Frc consts  --      1.5488                 0.7614                 2.2262
 IR Inten    --     21.5180                 0.6723                99.9434

                     49                     50                     51
                      A                      A                      A
 Frequencies --    995.7542              1002.6674              1014.6839
 Red. masses --      1.3939                 1.3797                 4.0794
 Frc consts  --      0.8143                 0.8173                 2.4746
 IR Inten    --     21.4709                30.9248                 5.1539

                     52                     53                     54
                      A                      A                      A
 Frequencies --   1031.6031              1065.4692              1097.3410
 Red. masses --      1.7403                 1.9291                 3.6341
 Frc consts  --      1.0912                 1.2903                 2.5783
 IR Inten    --      0.6921                10.1022                68.1468

                     55                     56                     57
                      A                      A                      A
 Frequencies --   1105.3181              1121.3752              1148.8384
 Red. masses --      1.6728                 2.5031                 2.6251
 Frc consts  --      1.2041                 1.8545                 2.0414
 IR Inten    --     14.2629                51.8735                18.3284

                     58                     59                     60
                      A                      A                      A
 Frequencies --   1161.4688              1162.1896              1201.3715
 Red. masses --      1.7559                 2.3209                 1.5940
 Frc consts  --      1.3956                 1.8470                 1.3555
 IR Inten    --     19.6788                 6.4418                 9.2169

                     61                     62                     63
                      A                      A                      A
 Frequencies --   1219.2783              1256.7222              1279.6153
 Red. masses --      1.6477                 1.7371                 1.5006
 Frc consts  --      1.4432                 1.6164                 1.4477
 IR Inten    --     66.6003                29.3893                35.6512

                     64                     65                     66
                      A                      A                      A
 Frequencies --   1307.2979              1311.4872              1325.8304
 Red. masses --      7.7022                 1.3905                 1.3399
 Frc consts  --      7.7556                 1.4091                 1.3877
 IR Inten    --    163.3636                42.6738                16.6642

                     67                     68                     69
                      A                      A                      A
 Frequencies --   1351.7944              1367.3840              1372.1661
 Red. masses --      1.4193                 1.2129                 1.4428
 Frc consts  --      1.5281                 1.3361                 1.6006
 IR Inten    --     31.7467                31.2919                27.6019

                     70                     71                     72
                      A                      A                      A
 Frequencies --   1372.4783              1401.6485              1419.5653
 Red. masses --      1.4185                 1.6449                 1.2893
 Frc consts  --      1.5744                 1.9040                 1.5307
 IR Inten    --     28.9598                74.6575                12.9933

                     73                     74                     75
                      A                      A                      A
 Frequencies --   1427.7667              1437.3749              1450.7664
 Red. masses --      1.2168                 1.2227                 2.0208
 Frc consts  --      1.4615                 1.4883                 2.5059
 IR Inten    --     13.0830                10.0692                 0.7602

                     76                     77                     78
                      A                      A                      A
 Frequencies --   1457.8847              1472.9711              1493.8694
 Red. masses --      1.2240                 1.0540                 1.0613
 Frc consts  --      1.5328                 1.3473                 1.3955
 IR Inten    --     10.4549                 4.5208                 6.0293

                     79                     80                     81
                      A                      A                      A
 Frequencies --   1501.4118              1507.8327              1520.0322
 Red. masses --      1.4151                 1.0534                 1.1298
 Frc consts  --      1.8795                 1.4111                 1.5381
 IR Inten    --     60.9617                10.7730                 7.4888

                     82                     83                     84
                      A                      A                      A
 Frequencies --   1524.5050              1525.1191              1529.7564
 Red. masses --      1.0542                 1.0489                 1.0919
 Frc consts  --      1.4435                 1.4375                 1.5054
 IR Inten    --      3.4580                 8.0545                 9.1291

                     85                     86                     87
                      A                      A                      A
 Frequencies --   1531.4575              1534.2675              1544.7992
 Red. masses --      1.0731                 1.0480                 1.2922
 Frc consts  --      1.4828                 1.4535                 1.8169
 IR Inten    --     12.9815                 8.4142                46.2803

                     88                     89                     90
                      A                      A                      A
 Frequencies --   1675.2359              1701.5879              1746.3846
 Red. masses --      1.5575                 2.8740                 6.6107
 Frc consts  --      2.5753                 4.9028                11.8790
 IR Inten    --    233.8820                95.2606               118.0577

                     91                     92                     93
                      A                      A                      A
 Frequencies --   3062.1052              3069.8532              3071.1088
 Red. masses --      1.0359                 1.0367                 1.0417
 Frc consts  --      5.7228                 5.7562                 5.7886
 IR Inten    --     14.3146                13.8444                17.2536

                     94                     95                     96
                      A                      A                      A
 Frequencies --   3086.2984              3093.7182              3098.5174
 Red. masses --      1.0838                 1.0292                 1.0634
 Frc consts  --      6.0822                 5.8039                 6.0155
 IR Inten    --      2.5751                 2.9317                 1.3634

                     97                     98                     99
                      A                      A                      A
 Frequencies --   3109.1984              3130.7926              3136.7670
 Red. masses --      1.0610                 1.1015                 1.1022
 Frc consts  --      6.0433                 6.3613                 6.3894
 IR Inten    --     18.5745                18.0670                16.4701

                    100                    101                    102
                      A                      A                      A
 Frequencies --   3137.8895              3143.0833              3149.1816
 Red. masses --      1.0998                 1.0974                 1.1046
 Frc consts  --      6.3803                 6.3872                 6.4545
 IR Inten    --     10.9248                40.3043                10.0745

                    103                    104                    105
                      A                      A                      A
 Frequencies --   3163.4410              3165.8049              3167.0426
 Red. masses --      1.1004                 1.1039                 1.1035
 Frc consts  --      6.4883                 6.5186                 6.5210
 IR Inten    --      8.0719                 2.4259                14.4876

                    106                    107                    108
                      A                      A                      A
 Frequencies --   3183.0356              3192.4229              3215.8927
 Red. masses --      1.0865                 1.1062                 1.1077
 Frc consts  --      6.4859                 6.6425                 6.7499
 IR Inten    --      8.4200                 1.1754                 3.6752

                    109                    110                    111
                      A                      A                      A
 Frequencies --   3502.8009              3624.6088              3776.9926
 Red. masses --      1.0503                 1.0965                 1.0677
 Frc consts  --      7.5925                 8.4876                 8.9743
 IR Inten    --     99.3156                60.9804                56.8077

 - Thermochemistry -
 -------------------
 Temperature   298.150 Kelvin.  Pressure   1.00000 Atm.
 Atom     1 has atomic number  6 and mass  12.00000

 Molecular mass:   279.12528 amu.
 Principal axes and moments of inertia in atomic units:
                           1         2         3
     Eigenvalues --  3277.135677370.775308739.59358
           X            0.99992  -0.00273   0.01217
           Y            0.00248   0.99978   0.02064
           Z           -0.01222  -0.02061   0.99971
 This molecule is an asymmetric top.
 Rotational symmetry number  1.
 Warning -- assumption of classical behavior for rotation
           may cause significant error
 Rotational temperatures (Kelvin)      0.02643     0.01175     0.00991
 Rotational constants (GHZ):           0.55071     0.24485     0.20650
 Zero-point vibrational energy     864997.8 (Joules/Mol)
                                  206.73943 (Kcal/Mol)
 Warning -- explicit consideration of  35 degrees of freedom as
           vibrations may cause significant error
 Vibrational temperatures:     34.10    56.00    60.28    65.89    90.47
          (Kelvin)            116.33   125.42   191.20   234.12   245.54
                              258.52   264.92   310.48   315.68   323.46
                              345.30   357.77   368.39   388.40   412.01
                              441.78   462.11   481.49   506.19   551.07
                              584.26   604.11   624.00   636.77   699.75
                              722.10   748.47   829.81   860.12   874.24
                              905.95   962.84  1051.59  1071.08  1104.90
                             1149.38  1160.62  1281.16  1323.15  1354.55
                             1374.58  1385.06  1408.88  1432.67  1442.61
                             1459.90  1484.25  1532.97  1578.83  1590.31
                             1613.41  1652.92  1671.09  1672.13  1728.51
                             1754.27  1808.14  1841.08  1880.91  1886.94
                             1907.57  1944.93  1967.36  1974.24  1974.69
                             2016.66  2042.44  2054.24  2068.06  2087.33
                             2097.57  2119.28  2149.34  2160.20  2169.43
                             2186.99  2193.42  2194.31  2200.98  2203.43
                             2207.47  2222.62  2410.29  2448.21  2512.66
                             4405.69  4416.83  4418.64  4440.50  4451.17
                             4458.08  4473.44  4504.51  4513.11  4514.72
                             4522.20  4530.97  4551.49  4554.89  4556.67
                             4579.68  4593.18  4626.95  5039.75  5215.00
                             5434.25

 Zero-point correction=                           0.329460 (Hartree/Particle)
 Thermal correction to Energy=                    0.350793
 Thermal correction to Enthalpy=                  0.351737
 Thermal correction to Gibbs Free Energy=         0.278685
 Sum of electronic and zero-point Energies=          -1256.697973
 Sum of electronic and thermal Energies=             -1256.676640
 Sum of electronic and thermal Enthalpies=           -1256.675696
 Sum of electronic and thermal Free Energies=        -1256.748748

                     E (Thermal)             CV                S
                      KCal/Mol        Cal/Mol-Kelvin    Cal/Mol-Kelvin
 Total                  220.126             78.285            153.752
 Electronic               0.000              0.000              0.000
 Translational            0.889              2.981             42.778
 Rotational               0.889              2.981             33.712
 Vibrational            218.348             72.323             77.262
 Vibration     1          0.593              1.985              6.297
 Vibration     2          0.594              1.981              5.313
 Vibration     3          0.595              1.980              5.167
 Vibration     4          0.595              1.979              4.991
 Vibration     5          0.597              1.972              4.365
 Vibration     6          0.600              1.962              3.870
 Vibration     7          0.601              1.958              3.723
 Vibration     8          0.613              1.920              2.904
 Vibration     9          0.623              1.888              2.518
 Vibration    10          0.626              1.879              2.428
 Vibration    11          0.629              1.867              2.332
 Vibration    12          0.631              1.861              2.286
 Vibration    13          0.645              1.817              1.994
 Vibration    14          0.647              1.812              1.964
 Vibration    15          0.649              1.803              1.920
 Vibration    16          0.657              1.779              1.803
 Vibration    17          0.662              1.765              1.740
 Vibration    18          0.666              1.753              1.689
 Vibration    19          0.674              1.729              1.597
 Vibration    20          0.684              1.699              1.495
 Vibration    21          0.697              1.660              1.378
 Vibration    22          0.707              1.633              1.304
 Vibration    23          0.716              1.606              1.238
 Vibration    24          0.728              1.572              1.158
 Vibration    25          0.752              1.506              1.027
 Vibration    26          0.771              1.457              0.941
 Vibration    27          0.783              1.427              0.892
 Vibration    28          0.794              1.397              0.847
 Vibration    29          0.802              1.377              0.819
 Vibration    30          0.842              1.280              0.693
 Vibration    31          0.857              1.246              0.653
 Vibration    32          0.875              1.205              0.609
 Vibration    33          0.933              1.082              0.491
 Vibration    34          0.956              1.036              0.453
 Vibration    35          0.966              1.016              0.437

                           ! Non-Optimized Parameters !
 Normal termination of Gaussian 16 at Fri Dec 11 22:40:51 2020.

 ----------------------------------------------------------------------
 # B3LYP/6-311++G(d,p) empiricaldispersion=gd3bj scf=xqc pop=npa geom=c
 heck
 ----------------------------------------------------------------------

 ---------------------------------------
 CID_113422411_JID_8720_Energie_neutraal
 ---------------------------------------
 Structure from the checkpoint file:  "JID_8720.chk"
 Charge =  0 Multiplicity = 1

 SCF Done:  E(RB3LYP) =  -1257.32128129     A.U. after   15 cycles
 Normal termination of Gaussian 16 at Fri Dec 11 22:50:09 2020.

 ----------------------------------------------------------------------
 # B3LYP/6-311++G(d,p) empiricaldispersion=gd3bj scf=xqc pop=npa geom=c
 heck
 ----------------------------------------------------------------------

 -------------------------------------
 CID_113422411_JID_8720_Energie_kation
 -------------------------------------
 Structure from the checkpoint file:  "JID_8720.chk"
 Charge =  1 Multiplicity = 2

 SCF Done:  E(UB3LYP) =  -1257.02630318     A.U. after   27 cycles
 Normal termination of Gaussian 16 at Fri Dec 11 23:13:52 2020.
 Gaussian 16:  ES64L-G16RevA.03 25-Dec-2016

 ----------------------------------------------------------------------
 # B3LYP/6-311++G(d,p) empiricaldispersion=gd3bj scf=xqc pop=npa geom=c
 heck
 ----------------------------------------------------------------------

 ------------------------------------
 CID_113422411_JID_8720_Energie_anion
 ------------------------------------
 Structure from the checkpoint file:  "JID_8720.chk"
 Charge = -1 Multiplicity = 2

                         Standard orientation:
 ---------------------------------------------------------------------
 Center     Atomic      Atomic             Coordinates (Angstroms)
 Number     Number       Type             X           Y           Z
 ---------------------------------------------------------------------
      1          6           0       -0.858785    3.362050   -0.790782
      2          6           0       -0.041878    2.480202    0.162713
      3          6           0       -0.655756    2.350799    1.563318
      4          7           0        0.355749    1.189033   -0.457015
      5          6           0        1.792780    0.896146   -0.568103
      6          6           0        2.282352   -0.043235    0.565695
      7          6           0        3.257706   -1.051641    0.019181
      8          7           0        4.540216   -0.940762    0.013683
      9          8           0        4.943149    0.269063    0.665506
     10          7           0        2.674898   -2.181490   -0.535879
     11          6           0       -0.451031    0.172798   -0.847665
     12          8           0        0.002445   -0.866405   -1.354409
     13          6           0       -1.956917    0.250269   -0.643940
     14          6           0       -2.735493   -0.014930   -1.930391
     15         16           0       -2.403487   -0.946589    0.690891
     16          8           0       -1.392968   -0.799978    1.753806
     17          8           0       -3.829021   -0.721534    0.982844
     18          6           0       -2.214737   -2.587825   -0.031180
     19          1           0       -1.867493    2.977874   -0.969205
     20          1           0       -0.353544    3.453645   -1.757404
     21          1           0       -0.964502    4.363635   -0.360694
     22          1           0        0.915164    2.989610    0.299800
     23          1           0       -1.687363    1.993043    1.555529
     24          1           0       -0.077248    1.657486    2.177627
     25          1           0       -0.651806    3.336194    2.042124
     26          1           0        1.960982    0.430079   -1.540224
     27          1           0        2.341122    1.838834   -0.552676
     28          1           0        2.751125    0.531824    1.364729
     29          1           0        1.424054   -0.577991    0.981574
     30          1           0        5.905712    0.164681    0.667381
     31          1           0        1.770195   -1.995242   -0.962516
     32          1           0        3.301699   -2.716414   -1.126217
     33          1           0       -2.287142    1.181847   -0.189745
     34          1           0       -2.358109   -0.908848   -2.431146
     35          1           0       -3.800874   -0.128125   -1.713165
     36          1           0       -2.610535    0.833133   -2.611906
     37          1           0       -2.977140   -2.734011   -0.797095
     38          1           0       -1.210502   -2.663399   -0.446523
     39          1           0       -2.362330   -3.286871    0.794913
 ---------------------------------------------------------------------

 SCF Done:  E(UB3LYP) =  -1257.31442556     A.U. after   33 cycles
 SCF Done:  E(UB3LYP) =  -1257.31442556     a.u. after    1 cycles

 The electronic state is 2-A.
 Alpha  occ. eigenvalues --  -88.95214 -19.06749 -19.02282 -19.02215 -19.00420
 Alpha  occ. eigenvalues --  -14.25968 -14.24995 -14.22914 -10.18856 -10.15001
 Alpha  occ. eigenvalues --  -10.13178 -10.13054 -10.12120 -10.11266 -10.08798
 Alpha  occ. eigenvalues --  -10.08773 -10.07448 -10.07164  -8.01745  -5.97993
 Alpha  occ. eigenvalues --   -5.97879  -5.97857  -1.01475  -0.97969  -0.95745
 Alpha  occ. eigenvalues --   -0.91130  -0.85393  -0.84606  -0.73326  -0.73033
 Alpha  occ. eigenvalues --   -0.70431  -0.67855  -0.66743  -0.60556  -0.59965
 Alpha  occ. eigenvalues --   -0.57175  -0.54172  -0.50748  -0.48514  -0.45741
 Alpha  occ. eigenvalues --   -0.44541  -0.42411  -0.41853  -0.40634  -0.40040
 Alpha  occ. eigenvalues --   -0.38817  -0.38096  -0.37721  -0.36572  -0.35652
 Alpha  occ. eigenvalues --   -0.35076  -0.34956  -0.33790  -0.33573  -0.33047
 Alpha  occ. eigenvalues --   -0.32698  -0.32068  -0.31439  -0.30378  -0.29726
 Alpha  occ. eigenvalues --   -0.29610  -0.28120  -0.27664  -0.26913  -0.26590
 Alpha  occ. eigenvalues --   -0.25282  -0.24052  -0.23347  -0.23014  -0.21354
 Alpha  occ. eigenvalues --   -0.19877  -0.19346  -0.18057  -0.16634  -0.13266
 Alpha  occ. eigenvalues --    0.03844
 Alpha virt. eigenvalues --    0.05681   0.06386   0.06955   0.07444   0.07669
 Alpha virt. eigenvalues --    0.08385   0.08799   0.09518   0.10133   0.10382
 Alpha virt. eigenvalues --    0.10597   0.11087   0.11239   0.11998   0.12469

  Beta  occ. eigenvalues --  -88.95199 -19.06742 -19.02266 -19.02213 -19.00352
  Beta  occ. eigenvalues --  -14.25940 -14.24991 -14.22905 -10.18776 -10.14999
  Beta  occ. eigenvalues --  -10.13163 -10.13036 -10.12110 -10.11215 -10.08789
  Beta  occ. eigenvalues --  -10.08724 -10.07398 -10.07142  -8.01726  -5.97980
  Beta  occ. eigenvalues --   -5.97856  -5.97842  -1.01442  -0.97958  -0.95619
  Beta  occ. eigenvalues --   -0.91103  -0.85323  -0.84586  -0.73305  -0.72949
  Beta  occ. eigenvalues --   -0.70386  -0.67773  -0.66697  -0.60484  -0.59865
  Beta  occ. eigenvalues --   -0.57105  -0.54103  -0.50665  -0.48493  -0.45656
  Beta  occ. eigenvalues --   -0.44510  -0.42351  -0.41797  -0.40601  -0.39994
  Beta  occ. eigenvalues --   -0.38779  -0.38055  -0.37690  -0.36466  -0.35603
  Beta  occ. eigenvalues --   -0.35043  -0.34892  -0.33744  -0.33508  -0.32990
  Beta  occ. eigenvalues --   -0.32665  -0.32030  -0.31356  -0.30337  -0.29680
  Beta  occ. eigenvalues --   -0.29555  -0.27980  -0.27624  -0.26834  -0.26516
  Beta  occ. eigenvalues --   -0.25228  -0.24011  -0.23333  -0.22998  -0.21329
  Beta  occ. eigenvalues --   -0.19826  -0.19324  -0.17993  -0.16418  -0.13254
  Beta virt. eigenvalues --    0.06029   0.06423   0.06908   0.07567   0.07829
  Beta virt. eigenvalues --    0.08136   0.08881   0.09289   0.09876   0.10428
  Beta virt. eigenvalues --    0.10520   0.10802   0.11399   0.11481   0.12264

 Mulliken charges and spin densities:
               1          2
     1  C    1.709322  -2.249449
     2  C   -1.435570   1.519927
     3  C    0.058383  -0.663400
     4  N    0.462264  -0.089732
     5  C   -0.024957  -0.258225
     6  C    0.037064  -0.390785
     7  C   -0.233659   0.034309
     8  N   -0.276424   0.021755
     9  O   -0.150805  -0.002280
    10  N   -0.318500   0.014664
    11  C   -0.977849   0.185985
    12  O   -0.252172   0.006407
    13  C   -0.838205   0.900243
    14  C    1.278230  -1.899941
    15  S    0.005678   0.167923
    16  O   -0.090986   0.010807
    17  O   -0.054067   0.007972
    18  C    0.124205  -0.723591
    19  H   -0.236534   0.369950
    20  H   -0.346277   0.510616
    21  H   -0.337528   0.502616
    22  H   -0.434121   0.611342
    23  H    0.118058   0.107381
    24  H    0.184091  -0.020588
    25  H   -0.248780   0.412958
    26  H    0.000521   0.197150
    27  H    0.073900   0.127497
    28  H    0.105784   0.119725
    29  H    0.295922  -0.049231
    30  H    0.201355   0.064729
    31  H    0.400535  -0.088724
    32  H    0.159881   0.092433
    33  H    0.398903  -0.122172
    34  H   -0.012998   0.207998
    35  H   -0.016859   0.222055
    36  H   -0.192166   0.361437
    37  H   -0.195954   0.400403
    38  H   -0.004482   0.217044
    39  H    0.064795   0.162792
 Sum of Mulliken charges =  -1.00000   1.00000

 Dipole moment (field-independent basis, Debye):
    X=              2.9658    Y=             -3.6388    Z=              0.2689  Tot=              4.7021
 Quadrupole moment (field-independent basis, Debye-Ang):
   XX=           -182.9043   YY=           -179.0436   ZZ=           -157.5361
   XY=             -0.8347   XZ=             -1.6642   YZ=              4.3346

 Summary of Natural Population Analysis:

                                       Natural Population
                Natural  -----------------------------------------------
    Atom  No    Charge         Core      Valence    Rydberg      Total
 -----------------------------------------------------------------------
      C    1   -0.28571      0.99963     2.28003    0.00604     3.28571
      C    2   -0.00723      0.99958     1.99503    0.01262     3.00723
      C    3   -0.28790      0.99963     2.28226    0.00601     3.28790
      N    4   -0.24524      0.99962     2.73149    0.01413     3.74524
      C    5   -0.07889      0.99959     2.06743    0.01187     3.07889
      C    6   -0.23368      0.99957     2.22506    0.00905     3.23368
      C    7    0.20914      0.99963     1.77344    0.01779     2.79086
      N    8   -0.14051      0.99958     2.62673    0.01420     3.64051
      O    9   -0.29739      0.99990     3.29125    0.00625     4.29739
      N   10   -0.40328      0.99970     2.89496    0.00862     3.90328
      C   11    0.35822      0.99959     1.61788    0.02432     2.64178
      O   12   -0.35122      0.99987     3.34528    0.00607     4.35122
      C   13   -0.23377      0.99952     2.21868    0.01557     3.23377
      C   14   -0.29282      0.99964     2.28607    0.00711     3.29282
      S   15    1.02614      4.99926     1.88153    0.09307     6.97386
      O   16   -0.47003      0.99991     3.46448    0.00564     4.47003
      O   17   -0.46889      0.99991     3.46338    0.00560     4.46889
      C   18   -0.39404      0.99960     2.38662    0.00782     3.39404
      H   19    0.09573      0.00000     0.40294    0.00133     0.40427
      H   20    0.10536      0.00000     0.39290    0.00174     0.39464
      H   21    0.10624      0.00000     0.39196    0.00180     0.39376
      H   22    0.10171      0.00000     0.39631    0.00198     0.39829
      H   23    0.09819      0.00000     0.40047    0.00135     0.40181
      H   24    0.10929      0.00000     0.38971    0.00100     0.39071
      H   25    0.10269      0.00000     0.39638    0.00092     0.39731
      H   26    0.10546      0.00000     0.39270    0.00183     0.39454
      H   27    0.10222      0.00000     0.39624    0.00154     0.39778
      H   28    0.11701      0.00000     0.38157    0.00142     0.38299
      H   29    0.11962      0.00000     0.37894    0.00145     0.38038
      H   30    0.23049      0.00000     0.26612    0.00340     0.26951
      H   31    0.20502      0.00000     0.29279    0.00219     0.29498
      H   32    0.18461      0.00000     0.31329    0.00211     0.31539
      H   33    0.12061      0.00000     0.37687    0.00252     0.37939
      H   34    0.10995      0.00000     0.38878    0.00128     0.39005
      H   35    0.11101      0.00000     0.38771    0.00128     0.38899
      H   36    0.10982      0.00000     0.38897    0.00121     0.39018
      H   37    0.11579      0.00000     0.38301    0.00120     0.38421
      H   38    0.12857      0.00000     0.37000    0.00143     0.37143
      H   39    0.11771      0.00000     0.38105    0.00123     0.38229
 =======================================================================
   * Total *   -0.00000     21.99375    52.70027    0.30598    75.00000

 Normal termination of Gaussian 16 at Fri Dec 11 23:42:59 2020.
