 Gaussian 16, Revision A.03,

 -----------------------------------------------------------
 # opt freq B3LYP/6-31G(d) empiricaldispersion=gd3bj scf=xqc
 -----------------------------------------------------------

 -----------------------------
 CID_55291576_JID_485_neutraal
 -----------------------------
 Symbolic Z-matrix:
 Charge =  0 Multiplicity = 1

 SCF Done:  E(RB3LYP) =  -481.024076025     A.U. after   14 cycles
 SCF Done:  E(RB3LYP) =  -481.027601892     A.U. after   12 cycles
 SCF Done:  E(RB3LYP) =  -481.028222713     A.U. after   13 cycles
 SCF Done:  E(RB3LYP) =  -481.028778593     A.U. after   12 cycles
 SCF Done:  E(RB3LYP) =  -481.029417710     A.U. after   12 cycles
 SCF Done:  E(RB3LYP) =  -481.029755398     A.U. after   12 cycles
 SCF Done:  E(RB3LYP) =  -481.030276694     A.U. after   13 cycles
 SCF Done:  E(RB3LYP) =  -481.030581721     A.U. after   12 cycles
 SCF Done:  E(RB3LYP) =  -481.031081446     A.U. after   13 cycles
 SCF Done:  E(RB3LYP) =  -481.031247069     A.U. after   14 cycles
 SCF Done:  E(RB3LYP) =  -481.031364207     A.U. after    8 cycles
 SCF Done:  E(RB3LYP) =  -481.031392388     A.U. after   11 cycles
 SCF Done:  E(RB3LYP) =  -481.031393206     A.U. after    8 cycles
 SCF Done:  E(RB3LYP) =  -481.031393452     A.U. after    8 cycles
 SCF Done:  E(RB3LYP) =  -481.031393529     A.U. after    8 cycles
 SCF Done:  E(RB3LYP) =  -481.031393514     A.U. after    6 cycles
 Optimization completed.
    -- Stationary point found.
 Normal termination of Gaussian 16 at Tue Dec  8 11:18:12 2020.

 --------------------------------------------------------------------
 #N Geom=AllCheck Guess=TCheck SCRF=Check GenChk RB3LYP/6-31G(d) Freq
 --------------------------------------------------------------------

 Structure from the checkpoint file:  "JID_485.chk"
 -----------------------------
 CID_55291576_JID_485_neutraal
 -----------------------------
 Charge =  0 Multiplicity = 1

 SCF Done:  E(RB3LYP) =  -481.031393514     A.U. after    1 cycles

  Exact polarizability:  97.051  -2.274  81.539  -0.769   1.014  77.952
 Approx polarizability: 122.838  -1.394 108.508  -2.670   5.013 125.070

                      1                      2                      3
                      A                      A                      A
 Frequencies --     34.4720                70.3189                82.1148
 Red. masses --      7.7683                 3.3941                 3.6352
 Frc consts  --      0.0054                 0.0099                 0.0144
 IR Inten    --      1.5303                 0.2665                 0.3964

                      4                      5                      6
                      A                      A                      A
 Frequencies --    120.0587               180.4596               203.8843
 Red. masses --      2.5901                 2.3951                 2.5317
 Frc consts  --      0.0220                 0.0460                 0.0620
 IR Inten    --      1.8634                 1.6363                 1.2438

                      7                      8                      9
                      A                      A                      A
 Frequencies --    240.1920               275.3414               279.1791
 Red. masses --      1.4346                 1.2996                 1.1403
 Frc consts  --      0.0488                 0.0581                 0.0524
 IR Inten    --      1.5008                16.3939                19.0867

                     10                     11                     12
                      A                      A                      A
 Frequencies --    302.2854               347.3546               371.5348
 Red. masses --      2.1147                 2.5287                 2.5929
 Frc consts  --      0.1138                 0.1798                 0.2109
 IR Inten    --      0.7589                 1.1707                11.6540

                     13                     14                     15
                      A                      A                      A
 Frequencies --    405.7846               459.2126               471.7241
 Red. masses --      2.8325                 2.5203                 2.3232
 Frc consts  --      0.2748                 0.3131                 0.3046
 IR Inten    --      3.8387                 6.3685                 7.0780

                     16                     17                     18
                      A                      A                      A
 Frequencies --    538.9945               557.6428               680.5754
 Red. masses --      1.9197                 3.3271                 1.6017
 Frc consts  --      0.3286                 0.6096                 0.4371
 IR Inten    --     12.7866                34.8712                64.6949

                     19                     20                     21
                      A                      A                      A
 Frequencies --    732.7786               776.3827               828.7406
 Red. masses --      2.2371                 2.3145                 1.5366
 Frc consts  --      0.7078                 0.8220                 0.6218
 IR Inten    --     59.1722                 5.3811                 2.2509

                     22                     23                     24
                      A                      A                      A
 Frequencies --    868.2403               898.3969               901.6437
 Red. masses --      2.5379                 1.8897                 2.0872
 Frc consts  --      1.1272                 0.8986                 0.9997
 IR Inten    --      7.7949               126.6386                 0.5002

                     25                     26                     27
                      A                      A                      A
 Frequencies --    948.5370               984.6887              1010.3120
 Red. masses --      1.3747                 1.5304                 1.7635
 Frc consts  --      0.7287                 0.8743                 1.0606
 IR Inten    --     23.0464                 6.8955                 2.7504

                     28                     29                     30
                      A                      A                      A
 Frequencies --   1036.8005              1078.4153              1095.5459
 Red. masses --      2.1448                 1.5203                 2.7252
 Frc consts  --      1.3584                 1.0417                 1.9271
 IR Inten    --      5.1647                 2.5566                 7.1454

                     31                     32                     33
                      A                      A                      A
 Frequencies --   1126.7685              1145.9035              1167.9743
 Red. masses --      1.7982                 1.5536                 2.4364
 Frc consts  --      1.3451                 1.2020                 1.9582
 IR Inten    --      4.7468               110.4299               214.7635

                     34                     35                     36
                      A                      A                      A
 Frequencies --   1198.0873              1237.5912              1265.2534
 Red. masses --      2.0631                 1.8066                 1.2830
 Frc consts  --      1.7448                 1.6303                 1.2102
 IR Inten    --     21.8669                27.9445                 2.5904

                     37                     38                     39
                      A                      A                      A
 Frequencies --   1302.5986              1330.8150              1340.3677
 Red. masses --      1.3461                 1.4416                 1.4482
 Frc consts  --      1.3457                 1.5043                 1.5330
 IR Inten    --      4.4407                 2.8529                10.5979

                     40                     41                     42
                      A                      A                      A
 Frequencies --   1365.8357              1394.8135              1414.3663
 Red. masses --      1.2535                 1.4217                 1.5038
 Frc consts  --      1.3778                 1.6297                 1.7725
 IR Inten    --      3.9330                 9.9884                 4.7248

                     43                     44                     45
                      A                      A                      A
 Frequencies --   1424.4120              1431.9800              1442.5678
 Red. masses --      1.5069                 1.3127                 1.3100
 Frc consts  --      1.8014                 1.5860                 1.6061
 IR Inten    --     35.7102                16.5014                 5.2221

                     46                     47                     48
                      A                      A                      A
 Frequencies --   1445.9049              1502.3198              1520.5018
 Red. masses --      1.2432                 1.1266                 1.0602
 Frc consts  --      1.5313                 1.4981                 1.4441
 IR Inten    --      3.9713                12.9914                 4.6290

                     49                     50                     51
                      A                      A                      A
 Frequencies --   1526.7123              1534.1070              1537.2130
 Red. masses --      1.0596                 1.0503                 1.0507
 Frc consts  --      1.4552                 1.4564                 1.4629
 IR Inten    --      4.1602                 4.3732                 4.1191

                     52                     53                     54
                      A                      A                      A
 Frequencies --   1543.5857              1692.1460              1830.0443
 Red. masses --      1.0618                 1.0898                 9.1053
 Frc consts  --      1.4906                 1.8385                17.9666
 IR Inten    --      2.3239                23.5977               211.5041

                     55                     56                     57
                      A                      A                      A
 Frequencies --   2986.8371              3032.0179              3044.7285
 Red. masses --      1.0823                 1.0404                 1.0383
 Frc consts  --      5.6890                 5.6352                 5.6712
 IR Inten    --     30.5288                24.2250                24.4269

                     58                     59                     60
                      A                      A                      A
 Frequencies --   3057.1746              3067.4422              3086.9311
 Red. masses --      1.0601                 1.0656                 1.0911
 Frc consts  --      5.8378                 5.9077                 6.1260
 IR Inten    --     24.1501                14.5365                 8.0780

                     61                     62                     63
                      A                      A                      A
 Frequencies --   3091.0749              3105.7812              3110.8615
 Red. masses --      1.1004                 1.0946                 1.1010
 Frc consts  --      6.1945                 6.2208                 6.2774
 IR Inten    --      9.0983                26.4986                49.8739

                     64                     65                     66
                      A                      A                      A
 Frequencies --   3120.4330              3124.1695              3132.6047
 Red. masses --      1.1012                 1.1000                 1.0966
 Frc consts  --      6.3174                 6.3256                 6.3402
 IR Inten    --     33.4800                47.7246                11.8241

                     67                     68                     69
                      A                      A                      A
 Frequencies --   3445.4257              3537.5055              3677.0119
 Red. masses --      1.0509                 1.0904                 1.0638
 Frc consts  --      7.3505                 8.0397                 8.4739
 IR Inten    --      2.9825                 0.4721                42.1583

 - Thermochemistry -
 -------------------
 Temperature   298.150 Kelvin.  Pressure   1.00000 Atm.
 Atom     1 has atomic number  6 and mass  12.00000

 Molecular mass:   145.11028 amu.
 Principal axes and moments of inertia in atomic units:
                           1         2         3
     Eigenvalues --  1096.481181915.147392459.43197
           X            0.99939  -0.03316  -0.01081
           Y            0.03304   0.99939  -0.01146
           Z            0.01118   0.01109   0.99988
 This molecule is an asymmetric top.
 Rotational symmetry number  1.
 Warning -- assumption of classical behavior for rotation
           may cause significant error
 Rotational temperatures (Kelvin)      0.07899     0.04523     0.03522
 Rotational constants (GHZ):           1.64594     0.94235     0.73380
 Zero-point vibrational energy     586908.8 (Joules/Mol)
                                  140.27456 (Kcal/Mol)
 Warning -- explicit consideration of  17 degrees of freedom as
           vibrations may cause significant error
 Vibrational temperatures:     49.60   101.17   118.14   172.74   259.64
          (Kelvin)            293.34   345.58   396.15   401.68   434.92
                              499.77   534.56   583.83   660.70   678.71
                              775.49   802.32   979.20  1054.31  1117.04
                             1192.37  1249.20  1292.59  1297.26  1364.73
                             1416.75  1453.61  1491.72  1551.60  1576.25
                             1621.17  1648.70  1680.45  1723.78  1780.62
                             1820.42  1874.15  1914.75  1928.49  1965.13
                             2006.83  2034.96  2049.41  2060.30  2075.53
                             2080.33  2161.50  2187.66  2196.60  2207.24
                             2211.71  2220.88  2434.62  2633.03  4297.39
                             4362.40  4380.69  4398.59  4413.37  4441.41
                             4447.37  4468.53  4475.84  4489.61  4494.98
                             4507.12  4957.20  5089.68  5290.40

 Zero-point correction=                           0.223542 (Hartree/Particle)
 Thermal correction to Energy=                    0.235319
 Thermal correction to Enthalpy=                  0.236264
 Thermal correction to Gibbs Free Energy=         0.185661
 Sum of electronic and zero-point Energies=           -480.807852
 Sum of electronic and thermal Energies=              -480.796074
 Sum of electronic and thermal Enthalpies=            -480.795130
 Sum of electronic and thermal Free Energies=         -480.845732

                     E (Thermal)             CV                S
                      KCal/Mol        Cal/Mol-Kelvin    Cal/Mol-Kelvin
 Total                  147.665             43.352            106.501
 Electronic               0.000              0.000              0.000
 Translational            0.889              2.981             40.828
 Rotational               0.889              2.981             30.025
 Vibrational            145.888             37.390             35.648
 Vibration     1          0.594              1.983              5.554
 Vibration     2          0.598              1.968              4.144
 Vibration     3          0.600              1.961              3.840
 Vibration     4          0.609              1.933              3.099
 Vibration     5          0.629              1.866              2.324
 Vibration     6          0.640              1.834              2.098
 Vibration     7          0.657              1.779              1.801
 Vibration     8          0.677              1.719              1.562
 Vibration     9          0.680              1.712              1.539
 Vibration    10          0.694              1.669              1.404
 Vibration    11          0.725              1.581              1.178
 Vibration    12          0.743              1.531              1.073
 Vibration    13          0.771              1.458              0.942
 Vibration    14          0.817              1.341              0.768
 Vibration    15          0.829              1.313              0.733
 Vibration    16          0.894              1.164              0.567
 Vibration    17          0.913              1.123              0.529

 Optimization completed.
    -- Stationary point found.
 Normal termination of Gaussian 16 at Tue Dec  8 11:23:14 2020.

 ----------------------------------------------------------------------
 # B3LYP/6-311++G(d,p) empiricaldispersion=gd3bj scf=xqc pop=npa geom=c
 heck
 ----------------------------------------------------------------------

 -------------------------------------
 CID_55291576_JID_485_Energie_neutraal
 -------------------------------------
 Structure from the checkpoint file:  "JID_485.chk"
 Charge =  0 Multiplicity = 1

 SCF Done:  E(RB3LYP) =  -481.189179167     A.U. after   13 cycles
 Normal termination of Gaussian 16 at Tue Dec  8 11:25:47 2020.

 ----------------------------------------------------------------------
 # B3LYP/6-311++G(d,p) empiricaldispersion=gd3bj scf=xqc pop=npa geom=c
 heck
 ----------------------------------------------------------------------

 -----------------------------------
 CID_55291576_JID_485_Energie_kation
 -----------------------------------
 Structure from the checkpoint file:  "JID_485.chk"
 Charge =  1 Multiplicity = 2

 SCF Done:  E(UB3LYP) =  -480.856025616     A.U. after   26 cycles
 Normal termination of Gaussian 16 at Tue Dec  8 11:33:01 2020.
 Gaussian 16:  ES64L-G16RevA.03 25-Dec-2016

 ----------------------------------------------------------------------
 # B3LYP/6-311++G(d,p) empiricaldispersion=gd3bj scf=xqc pop=npa geom=c
 heck
 ----------------------------------------------------------------------

 ----------------------------------
 CID_55291576_JID_485_Energie_anion
 ----------------------------------
 Structure from the checkpoint file:  "JID_485.chk"
 Charge = -1 Multiplicity = 2

                         Standard orientation:
 ---------------------------------------------------------------------
 Center     Atomic      Atomic             Coordinates (Angstroms)
 Number     Number       Type             X           Y           Z
 ---------------------------------------------------------------------
      1          6           0       -0.979392    2.491443    0.278242
      2          6           0        0.131902    1.639597   -0.344848
      3          6           0        0.531760    0.417993    0.503191
      4          6           0       -0.683904   -0.429803    0.935537
      5          6           0       -1.602208   -0.818610   -0.195771
      6          8           0       -1.277060   -1.108337   -1.329509
      7          8           0       -2.904112   -0.835753    0.194444
      8          6           0        1.602793   -0.469498   -0.175386
      9          6           0        2.813681    0.329063   -0.677694
     10          7           0        1.981666   -1.537683    0.769103
     11          1           0       -1.929334    1.949434    0.336559
     12          1           0       -1.154028    3.395286   -0.315571
     13          1           0       -0.714359    2.807268    1.295222
     14          1           0       -0.180120    1.298366   -1.339467
     15          1           0        1.013844    2.271771   -0.493869
     16          1           0        0.977741    0.797205    1.437671
     17          1           0       -0.297583   -1.359716    1.370948
     18          1           0       -1.271993    0.076433    1.704113
     19          1           0       -3.410095   -1.129213   -0.587051
     20          1           0        1.125091   -0.962328   -1.028129
     21          1           0        3.266935    0.908329    0.138856
     22          1           0        3.577975   -0.353480   -1.067586
     23          1           0        2.553920    1.025472   -1.481302
     24          1           0        2.556168   -2.227386    0.287253
     25          1           0        2.575765   -1.142044    1.499529
 ---------------------------------------------------------------------

 SCF Done:  E(UB3LYP) =  -481.173213757     A.U. after   32 cycles

 The electronic state is 2-A.
 Alpha  occ. eigenvalues --  -19.06542 -19.00999 -14.18388 -10.20131 -10.08729
 Alpha  occ. eigenvalues --  -10.07190 -10.06986 -10.05930 -10.05537 -10.05067
 Alpha  occ. eigenvalues --   -1.00528  -0.91479  -0.78315  -0.70505  -0.64117
 Alpha  occ. eigenvalues --   -0.62487  -0.56967  -0.51005  -0.49309  -0.45414
 Alpha  occ. eigenvalues --   -0.39293  -0.39200  -0.37789  -0.36184  -0.34492
 Alpha  occ. eigenvalues --   -0.33358  -0.32719  -0.31008  -0.30131  -0.29562
 Alpha  occ. eigenvalues --   -0.27657  -0.27024  -0.26394  -0.24285  -0.22852
 Alpha  occ. eigenvalues --   -0.22330  -0.21913  -0.21257  -0.17346  -0.13914
 Alpha  occ. eigenvalues --    0.04682
 Alpha virt. eigenvalues --    0.06367   0.07363   0.08307   0.09167   0.09857
 Alpha virt. eigenvalues --    0.10261   0.10686   0.11542   0.11891   0.13070
 Alpha virt. eigenvalues --    0.13146   0.13446   0.14343   0.14845   0.15361

  Beta  occ. eigenvalues --  -19.06500 -19.00983 -14.18348 -10.20124 -10.08721
  Beta  occ. eigenvalues --  -10.07176 -10.06969 -10.05918 -10.05509 -10.05031
  Beta  occ. eigenvalues --   -1.00471  -0.91429  -0.78255  -0.70462  -0.64070
  Beta  occ. eigenvalues --   -0.62425  -0.56895  -0.50932  -0.49225  -0.45349
  Beta  occ. eigenvalues --   -0.39255  -0.39152  -0.37755  -0.36137  -0.34455
  Beta  occ. eigenvalues --   -0.33295  -0.32676  -0.30969  -0.30089  -0.29527
  Beta  occ. eigenvalues --   -0.27619  -0.26978  -0.26347  -0.24233  -0.22810
  Beta  occ. eigenvalues --   -0.22291  -0.21863  -0.21229  -0.17296  -0.13875
  Beta virt. eigenvalues --    0.07056   0.07715   0.08285   0.08850   0.09922
  Beta virt. eigenvalues --    0.10072   0.10827   0.10996   0.11943   0.12155
  Beta virt. eigenvalues --    0.13509   0.13591   0.13745   0.14484   0.15187

 Mulliken charges and spin densities:
               1          2
     1  C    0.947737  -1.612670
     2  C   -1.274364   0.867906
     3  C    0.914382  -0.113872
     4  C    0.964378  -1.438986
     5  C   -0.414662   0.264870
     6  O   -0.271887   0.003077
     7  O   -0.160460   0.049888
     8  C   -0.864770   0.191262
     9  C    1.193769  -1.746181
    10  N   -0.405023   0.101603
    11  H   -0.039470   0.201434
    12  H   -0.298426   0.432995
    13  H   -0.216630   0.351490
    14  H    0.150607   0.014223
    15  H   -0.044004   0.178704
    16  H   -0.000283   0.210442
    17  H    0.001276   0.228363
    18  H    0.106985   0.124144
    19  H   -0.421254   0.700845
    20  H    0.218174   0.011740
    21  H   -0.349498   0.502286
    22  H   -0.403082   0.539671
    23  H   -0.133127   0.280596
    24  H   -0.110344   0.344408
    25  H   -0.090023   0.311761
 Sum of Mulliken charges =  -1.00000   1.00000

 Dipole moment (field-independent basis, Debye):
    X=             -1.1510    Y=              0.2214    Z=             -0.5069  Tot=              1.2770
 Quadrupole moment (field-independent basis, Debye-Ang):
   XX=           -128.2036   YY=           -105.0359   ZZ=            -92.7792
   XY=              0.8687   XZ=             -3.5082   YZ=             -1.0932

 Summary of Natural Population Analysis:

                                       Natural Population
                Natural  -----------------------------------------------
    Atom  No    Charge         Core      Valence    Rydberg      Total
 -----------------------------------------------------------------------
      C    1   -0.28661      0.99967     2.28191    0.00503     3.28661
      C    2   -0.19479      0.99962     2.18655    0.00862     3.19479
      C    3   -0.10371      0.99958     2.09097    0.01316     3.10371
      C    4   -0.24859      0.99955     2.23939    0.00965     3.24859
      C    5    0.41061      0.99971     1.56370    0.02599     2.58939
      O    6   -0.31336      0.99987     3.30756    0.00594     4.31336
      O    7   -0.34588      0.99988     3.33938    0.00662     4.34588
      C    8   -0.01934      0.99958     2.00763    0.01213     3.01934
      C    9   -0.29272      0.99965     2.28698    0.00609     3.29272
      N   10   -0.42528      0.99977     2.91462    0.01089     3.92528
      H   11    0.09785      0.00000     0.40085    0.00130     0.40215
      H   12    0.09898      0.00000     0.40015    0.00088     0.40102
      H   13    0.09576      0.00000     0.40311    0.00113     0.40424
      H   14    0.09999      0.00000     0.39875    0.00126     0.40001
      H   15    0.09958      0.00000     0.39920    0.00122     0.40042
      H   16    0.09585      0.00000     0.40243    0.00172     0.40415
      H   17    0.13447      0.00000     0.36380    0.00173     0.36553
      H   18    0.11060      0.00000     0.38810    0.00130     0.38940
      H   19    0.24060      0.00000     0.24965    0.00975     0.25940
      H   20    0.10070      0.00000     0.39714    0.00216     0.39930
      H   21    0.09679      0.00000     0.40151    0.00170     0.40321
      H   22    0.09959      0.00000     0.39901    0.00141     0.40041
      H   23    0.09950      0.00000     0.39941    0.00109     0.40050
      H   24    0.17694      0.00000     0.32098    0.00208     0.32306
      H   25    0.17246      0.00000     0.32473    0.00282     0.32754
 =======================================================================
   * Total *   -0.00000      9.99686    29.86750    0.13563    40.00000

 Normal termination of Gaussian 16 at Tue Dec  8 11:42:52 2020.
