 Gaussian 16, Revision A.03,

 -----------------------------------------------------------
 # opt freq B3LYP/6-31G(d) empiricaldispersion=gd3bj scf=xqc
 -----------------------------------------------------------

 --------------------------------
 CID_145877338_JID_10774_neutraal
 --------------------------------
 Symbolic Z-matrix:
 Charge =  0 Multiplicity = 1

 SCF Done:  E(RB3LYP) =  -891.531603879     A.U. after   15 cycles
 SCF Done:  E(RB3LYP) =  -891.539532460     A.U. after   12 cycles
 SCF Done:  E(RB3LYP) =  -891.540219384     A.U. after   12 cycles
 SCF Done:  E(RB3LYP) =  -891.540462326     A.U. after   11 cycles
 SCF Done:  E(RB3LYP) =  -891.540554949     A.U. after   11 cycles
 SCF Done:  E(RB3LYP) =  -891.540589314     A.U. after   10 cycles
 SCF Done:  E(RB3LYP) =  -891.540622934     A.U. after   10 cycles
 SCF Done:  E(RB3LYP) =  -891.540664885     A.U. after   10 cycles
 SCF Done:  E(RB3LYP) =  -891.540678152     A.U. after   10 cycles
 SCF Done:  E(RB3LYP) =  -891.540736010     A.U. after   11 cycles
 SCF Done:  E(RB3LYP) =  -891.543603908     A.U. after   10 cycles
 SCF Done:  E(RB3LYP) =  -891.543610182     A.U. after   11 cycles
 SCF Done:  E(RB3LYP) =  -891.543617451     A.U. after   10 cycles
 SCF Done:  E(RB3LYP) =  -891.543617853     A.U. after    8 cycles
 SCF Done:  E(RB3LYP) =  -891.543618294     A.U. after    9 cycles
 SCF Done:  E(RB3LYP) =  -891.543618323     A.U. after    7 cycles
 Optimization completed.
    -- Stationary point found.
 Normal termination of Gaussian 16 at Mon Dec 14 18:19:12 2020.

 --------------------------------------------------------------------
 #N Geom=AllCheck Guess=TCheck SCRF=Check GenChk RB3LYP/6-31G(d) Freq
 --------------------------------------------------------------------

 Structure from the checkpoint file:  "JID_10774.chk"
 --------------------------------
 CID_145877338_JID_10774_neutraal
 --------------------------------
 Charge =  0 Multiplicity = 1

 SCF Done:  E(RB3LYP) =  -891.543618323     A.U. after    1 cycles

  Exact polarizability: 224.436   1.496 203.829  20.607 -15.744 109.324
 Approx polarizability: 332.664   5.652 343.721  45.618 -37.043 168.424

                      1                      2                      3
                      A                      A                      A
 Frequencies --     18.2397                37.8766                57.9647
 Red. masses --      4.1085                 5.0353                 3.2101
 Frc consts  --      0.0008                 0.0043                 0.0064
 IR Inten    --      0.0683                 0.4627                 0.3869

                      4                      5                      6
                      A                      A                      A
 Frequencies --     78.3806                80.4280                92.2335
 Red. masses --      2.9058                 1.5267                 3.0845
 Frc consts  --      0.0105                 0.0058                 0.0155
 IR Inten    --      2.1875                 0.1751                 0.4429

                      7                      8                      9
                      A                      A                      A
 Frequencies --    108.6548               142.5301               148.9141
 Red. masses --      3.5851                 3.3614                 2.5999
 Frc consts  --      0.0249                 0.0402                 0.0340
 IR Inten    --      1.2721                 2.9732                 2.5257

                     10                     11                     12
                      A                      A                      A
 Frequencies --    215.8674               234.9037               277.8976
 Red. masses --      5.7880                 4.2998                 5.2311
 Frc consts  --      0.1589                 0.1398                 0.2380
 IR Inten    --      4.3229                 2.3184                 0.2748

                     13                     14                     15
                      A                      A                      A
 Frequencies --    289.8376               313.7345               327.5105
 Red. masses --      3.6130                 5.7269                 4.4092
 Frc consts  --      0.1788                 0.3321                 0.2787
 IR Inten    --      1.2791                 0.7187                 0.4918

                     16                     17                     18
                      A                      A                      A
 Frequencies --    331.7323               361.6187               428.0094
 Red. masses --      2.2211                 5.9821                 4.2516
 Frc consts  --      0.1440                 0.4609                 0.4589
 IR Inten    --      4.2179                 0.3314                 1.2720

                     19                     20                     21
                      A                      A                      A
 Frequencies --    506.8718               536.2790               544.6911
 Red. masses --      2.9589                 4.9531                 6.6726
 Frc consts  --      0.4479                 0.8393                 1.1664
 IR Inten    --      0.6303                 3.6319                 0.1488

                     22                     23                     24
                      A                      A                      A
 Frequencies --    577.3438               583.3322               614.1021
 Red. masses --      1.8785                 5.2616                 3.2791
 Frc consts  --      0.3689                 1.0549                 0.7286
 IR Inten    --     64.9203                 8.8628                 1.4487

                     25                     26                     27
                      A                      A                      A
 Frequencies --    616.6519               659.8595               678.8793
 Red. masses --      2.8530                 7.6259                 3.5951
 Frc consts  --      0.6392                 1.9563                 0.9762
 IR Inten    --     15.1457                 4.7701                10.1196

                     28                     29                     30
                      A                      A                      A
 Frequencies --    700.4013               739.9914               748.7831
 Red. masses --      2.3376                 6.6977                 3.8495
 Frc consts  --      0.6756                 2.1609                 1.2716
 IR Inten    --     11.3378                 4.2054                 9.0074

                     31                     32                     33
                      A                      A                      A
 Frequencies --    769.2482               785.9737               789.9330
 Red. masses --      1.9073                 1.2547                 7.6166
 Frc consts  --      0.6650                 0.4567                 2.8002
 IR Inten    --      4.5869                 0.5135                 0.1319

                     34                     35                     36
                      A                      A                      A
 Frequencies --    809.4260               847.0023               880.0803
 Red. masses --      4.7153                 1.4226                 4.1288
 Frc consts  --      1.8202                 0.6013                 1.8842
 IR Inten    --     21.2183                12.6296                 5.8574

                     37                     38                     39
                      A                      A                      A
 Frequencies --    884.8362               903.5895               914.6290
 Red. masses --      2.4114                 2.2475                 8.0931
 Frc consts  --      1.1124                 1.0812                 3.9889
 IR Inten    --      1.4584                 1.2729                10.1817

                     40                     41                     42
                      A                      A                      A
 Frequencies --    943.6254               947.5549               964.0739
 Red. masses --      2.4481                 6.4306                 1.3469
 Frc consts  --      1.2843                 3.4018                 0.7376
 IR Inten    --      1.1883                 2.1097                 0.2482

                     43                     44                     45
                      A                      A                      A
 Frequencies --    971.5897               976.9333               977.9959
 Red. masses --      2.8431                 2.4787                 1.2478
 Frc consts  --      1.5813                 1.3938                 0.7032
 IR Inten    --      0.0879                 3.5810                 0.7466

                     46                     47                     48
                      A                      A                      A
 Frequencies --   1030.3705              1036.7698              1066.9469
 Red. masses --      4.0300                 3.5435                 4.9263
 Frc consts  --      2.5208                 2.2441                 3.3041
 IR Inten    --      0.4498                 1.5900                 4.9227

                     49                     50                     51
                      A                      A                      A
 Frequencies --   1075.3970              1075.7935              1104.3628
 Red. masses --      1.9816                 1.5222                 1.9480
 Frc consts  --      1.3502                 1.0379                 1.3998
 IR Inten    --      2.7909                 2.2337                 1.8716

                     52                     53                     54
                      A                      A                      A
 Frequencies --   1113.3375              1148.5239              1201.3214
 Red. masses --      2.0101                 2.6649                 1.2830
 Frc consts  --      1.4680                 2.0711                 1.0909
 IR Inten    --      3.0687                 0.6875                 4.8629

                     55                     56                     57
                      A                      A                      A
 Frequencies --   1214.4716              1223.6857              1248.3564
 Red. masses --      1.6603                 4.0557                 1.3040
 Frc consts  --      1.4428                 3.5781                 1.1973
 IR Inten    --     14.3923                27.2318                15.1708

                     58                     59                     60
                      A                      A                      A
 Frequencies --   1252.8169              1272.9815              1279.8587
 Red. masses --      1.3802                 1.3324                 1.1992
 Frc consts  --      1.2763                 1.2721                 1.1573
 IR Inten    --      0.8261                 0.8175                 2.7182

                     61                     62                     63
                      A                      A                      A
 Frequencies --   1292.0747              1294.1361              1320.1577
 Red. masses --      1.7847                 2.8369                 2.0392
 Frc consts  --      1.7555                 2.7993                 2.0939
 IR Inten    --     31.8317                63.1744                11.8266

                     64                     65                     66
                      A                      A                      A
 Frequencies --   1330.7800              1343.8236              1360.5519
 Red. masses --      2.1991                 1.5734                 2.8020
 Frc consts  --      2.2946                 1.6741                 3.0560
 IR Inten    --      5.5009                 3.9804                43.9197

                     67                     68                     69
                      A                      A                      A
 Frequencies --   1381.7643              1388.8189              1413.9569
 Red. masses --      2.0874                 3.0559                 3.5617
 Frc consts  --      2.3481                 3.4728                 4.1955
 IR Inten    --     51.1194               183.9393                34.9124

                     70                     71                     72
                      A                      A                      A
 Frequencies --   1428.0724              1436.3828              1443.9508
 Red. masses --      2.9525                 1.6267                 2.4316
 Frc consts  --      3.5477                 1.9774                 2.9871
 IR Inten    --    157.3443                 0.5704                 2.6392

                     73                     74                     75
                      A                      A                      A
 Frequencies --   1497.3968              1509.9955              1511.6383
 Red. masses --      1.1645                 1.0436                 1.1931
 Frc consts  --      1.5384                 1.4019                 1.6064
 IR Inten    --     10.5027                 9.4578                 3.5804

                     76                     77                     78
                      A                      A                      A
 Frequencies --   1515.4429              1517.9781              1522.5813
 Red. masses --      1.0901                 1.0896                 2.5973
 Frc consts  --      1.4751                 1.4792                 3.5475
 IR Inten    --      1.4537                 0.0575                 9.5534

                     79                     80                     81
                      A                      A                      A
 Frequencies --   1546.4680              1562.6003              1579.5244
 Red. masses --      1.1415                 6.5576                 7.4035
 Frc consts  --      1.6084                 9.4339                10.8827
 IR Inten    --      1.5128                17.5563               172.8623

                     82                     83                     84
                      A                      A                      A
 Frequencies --   1610.5577              1650.6080              1680.2992
 Red. masses --      7.1526                 8.5961                 7.8821
 Frc consts  --     10.9312                13.7987                13.1119
 IR Inten    --     48.8443                30.7328                 9.1028

                     85                     86                     87
                      A                      A                      A
 Frequencies --   3053.2306              3054.3745              3066.0457
 Red. masses --      1.0398                 1.0753                 1.0707
 Frc consts  --      5.7113                 5.9102                 5.9304
 IR Inten    --     16.1565                 7.8946                37.4659

                     88                     89                     90
                      A                      A                      A
 Frequencies --   3071.9315              3073.4714              3079.5375
 Red. masses --      1.0585                 1.0575                 1.0625
 Frc consts  --      5.8851                 5.8853                 5.9365
 IR Inten    --     36.0730                52.4949                14.3647

                     91                     92                     93
                      A                      A                      A
 Frequencies --   3105.1108              3110.3807              3114.5672
 Red. masses --      1.1011                 1.1031                 1.1078
 Frc consts  --      6.2552                 6.2875                 6.3315
 IR Inten    --     11.4781                 8.7299                12.4760

                     94                     95                     96
                      A                      A                      A
 Frequencies --   3125.1716              3137.4734              3174.5646
 Red. masses --      1.1084                 1.1068                 1.0986
 Frc consts  --      6.3783                 6.4193                 6.5233
 IR Inten    --     15.0495                76.3837                 2.8186

                     97                     98                     99
                      A                      A                      A
 Frequencies --   3187.1184              3230.6461              3611.3761
 Red. masses --      1.0898                 1.0930                 1.0810
 Frc consts  --      6.5221                 6.7213                 8.3067
 IR Inten    --     28.7771                 2.9750                89.9971

 - Thermochemistry -
 -------------------
 Temperature   298.150 Kelvin.  Pressure   1.00000 Atm.
 Atom     1 has atomic number  6 and mass  12.00000

 Molecular mass:   269.12766 amu.
 Principal axes and moments of inertia in atomic units:
                           1         2         3
     Eigenvalues --  3196.085718503.05810**********
           X            0.99994  -0.00740  -0.00743
           Y            0.00732   0.99991  -0.01079
           Z            0.00751   0.01074   0.99991
 This molecule is an asymmetric top.
 Rotational symmetry number  1.
 Warning -- assumption of classical behavior for rotation
           may cause significant error
 Rotational temperatures (Kelvin)      0.02710     0.01019     0.00822
 Rotational constants (GHZ):           0.56467     0.21225     0.17129
 Zero-point vibrational energy     742280.2 (Joules/Mol)
                                  177.40924 (Kcal/Mol)
 Warning -- explicit consideration of  25 degrees of freedom as
           vibrations may cause significant error
 Vibrational temperatures:     26.24    54.50    83.40   112.77   115.72
          (Kelvin)            132.70   156.33   205.07   214.25   310.59
                              337.97   399.83   417.01   451.39   471.21
                              477.29   520.29   615.81   729.28   771.59
                              783.69   830.67   839.28   883.56   887.22
                              949.39   976.76  1007.72  1064.68  1077.33
                             1106.78  1130.84  1136.54  1164.58  1218.65
                             1266.24  1273.08  1300.06  1315.95  1357.67
                             1363.32  1387.09  1397.90  1405.59  1407.12
                             1482.47  1491.68  1535.10  1547.26  1547.83
                             1588.93  1601.84  1652.47  1728.43  1747.35
                             1760.61  1796.11  1802.52  1831.54  1841.43
                             1859.01  1861.97  1899.41  1914.70  1933.46
                             1957.53  1988.05  1998.20  2034.37  2054.68
                             2066.63  2077.52  2154.42  2172.55  2174.91
                             2180.38  2184.03  2190.65  2225.02  2248.23
                             2272.58  2317.23  2374.86  2417.58  4392.92
                             4394.56  4411.36  4419.82  4422.04  4430.77
                             4467.56  4475.14  4481.17  4496.42  4514.12
                             4567.49  4585.55  4648.18  5195.96

 Zero-point correction=                           0.282720 (Hartree/Particle)
 Thermal correction to Energy=                    0.299330
 Thermal correction to Enthalpy=                  0.300274
 Thermal correction to Gibbs Free Energy=         0.236237
 Sum of electronic and zero-point Energies=           -891.260899
 Sum of electronic and thermal Energies=              -891.244288
 Sum of electronic and thermal Enthalpies=            -891.243344
 Sum of electronic and thermal Free Energies=         -891.307382

                     E (Thermal)             CV                S
                      KCal/Mol        Cal/Mol-Kelvin    Cal/Mol-Kelvin
 Total                  187.832             63.804            134.779
 Electronic               0.000              0.000              0.000
 Translational            0.889              2.981             42.669
 Rotational               0.889              2.981             34.015
 Vibrational            186.055             57.843             58.095
 Vibration     1          0.593              1.986              6.817
 Vibration     2          0.594              1.982              5.367
 Vibration     3          0.596              1.974              4.525
 Vibration     4          0.600              1.964              3.931
 Vibration     5          0.600              1.962              3.880
 Vibration     6          0.602              1.955              3.612
 Vibration     7          0.606              1.942              3.293
 Vibration     8          0.616              1.911              2.770
 Vibration     9          0.618              1.904              2.686
 Vibration    10          0.645              1.817              1.993
 Vibration    11          0.655              1.787              1.841
 Vibration    12          0.679              1.714              1.547
 Vibration    13          0.686              1.693              1.475
 Vibration    14          0.702              1.647              1.343
 Vibration    15          0.711              1.621              1.272
 Vibration    16          0.714              1.612              1.252
 Vibration    17          0.736              1.551              1.115
 Vibration    18          0.790              1.409              0.865
 Vibration    19          0.862              1.235              0.641
 Vibration    20          0.891              1.170              0.573
 Vibration    21          0.900              1.151              0.555
 Vibration    22          0.934              1.080              0.490
 Vibration    23          0.940              1.067              0.479
 Vibration    24          0.974              1.002              0.426
 Vibration    25          0.976              0.997              0.422

 Optimization completed.
    -- Stationary point found.
 Normal termination of Gaussian 16 at Mon Dec 14 18:35:56 2020.

 ----------------------------------------------------------------------
 # B3LYP/6-311++G(d,p) empiricaldispersion=gd3bj scf=xqc pop=npa geom=c
 heck
 ----------------------------------------------------------------------

 ----------------------------------------
 CID_145877338_JID_10774_Energie_neutraal
 ----------------------------------------
 Structure from the checkpoint file:  "JID_10774.chk"
 Charge =  0 Multiplicity = 1

 SCF Done:  E(RB3LYP) =  -891.771562750     A.U. after   15 cycles
 Normal termination of Gaussian 16 at Mon Dec 14 18:43:45 2020.

 ----------------------------------------------------------------------
 # B3LYP/6-311++G(d,p) empiricaldispersion=gd3bj scf=xqc pop=npa geom=c
 heck
 ----------------------------------------------------------------------

 --------------------------------------
 CID_145877338_JID_10774_Energie_kation
 --------------------------------------
 Structure from the checkpoint file:  "JID_10774.chk"
 Charge =  1 Multiplicity = 2

 SCF Done:  E(UB3LYP) =  -891.454753373     A.U. after   26 cycles
 Normal termination of Gaussian 16 at Mon Dec 14 19:00:50 2020.
 Gaussian 16:  ES64L-G16RevA.03 25-Dec-2016

 ----------------------------------------------------------------------
 # B3LYP/6-311++G(d,p) empiricaldispersion=gd3bj scf=xqc pop=npa geom=c
 heck
 ----------------------------------------------------------------------

 -------------------------------------
 CID_145877338_JID_10774_Energie_anion
 -------------------------------------
 Structure from the checkpoint file:  "JID_10774.chk"
 Charge = -1 Multiplicity = 2

                         Standard orientation:
 ---------------------------------------------------------------------
 Center     Atomic      Atomic             Coordinates (Angstroms)
 Number     Number       Type             X           Y           Z
 ---------------------------------------------------------------------
      1          6           0        2.778057    3.501490   -0.554877
      2          6           0        2.782283    2.041705   -0.254542
      3          7           0        3.817947    1.352321    0.167076
      4          6           0        3.358240    0.051113    0.308901
      5          7           0        4.062535   -1.005376    0.716714
      6          6           0        3.387525   -2.162566    0.772079
      7          6           0        2.034370   -2.325535    0.440664
      8          6           0        1.287076   -1.219670    0.011052
      9          6           0        1.984765   -0.012947   -0.049753
     10          7           0        1.641720    1.264220   -0.403379
     11          6           0       -0.115304   -1.257959   -0.352349
     12          7           0       -0.841203   -0.244291   -0.762664
     13          6           0       -2.082595   -0.815534   -0.958893
     14          7           0       -2.129905   -2.099860   -0.691557
     15          8           0       -0.810629   -2.402836   -0.284547
     16          6           0       -3.285732   -0.047583   -1.398850
     17          6           0       -3.950421    0.762151   -0.273685
     18          6           0       -4.362801    0.049578    1.041995
     19          6           0       -3.954652    1.332537    1.813461
     20          6           0       -3.124715    1.767405    0.576220
     21          1           0        3.774056    3.903497   -0.364579
     22          1           0        2.054355    4.034405    0.073516
     23          1           0        2.513409    3.691083   -1.602105
     24          1           0        3.957662   -3.027029    1.103774
     25          1           0        1.567642   -3.301096    0.516398
     26          1           0        0.716493    1.533429   -0.714923
     27          1           0       -2.982573    0.627679   -2.207738
     28          1           0       -4.011253   -0.757093   -1.810451
     29          1           0       -4.818950    1.273313   -0.705726
     30          1           0       -5.397672   -0.296171    1.124988
     31          1           0       -3.697158   -0.789925    1.267638
     32          1           0       -3.419633    1.203698    2.758762
     33          1           0       -4.809894    1.994479    1.983635
     34          1           0       -2.079344    1.457600    0.662544
     35          1           0       -3.156346    2.820595    0.278768
 ---------------------------------------------------------------------

 SCF Done:  E(UB3LYP) =  -891.805651345     A.U. after   24 cycles

 The electronic state is 2-A.
 Alpha  occ. eigenvalues --  -19.06279 -14.23461 -14.22130 -14.17365 -14.16468
 Alpha  occ. eigenvalues --  -14.14724 -10.11848 -10.11163 -10.10872 -10.08951
 Alpha  occ. eigenvalues --  -10.08196 -10.08195 -10.07731 -10.07600 -10.07391
 Alpha  occ. eigenvalues --  -10.07379 -10.07041 -10.05772 -10.04820 -10.03014
 Alpha  occ. eigenvalues --   -1.01747  -0.88990  -0.80062  -0.79062  -0.76149
 Alpha  occ. eigenvalues --   -0.75106  -0.73421  -0.66592  -0.65359  -0.64391
 Alpha  occ. eigenvalues --   -0.58680  -0.56973  -0.54615  -0.53098  -0.49408
 Alpha  occ. eigenvalues --   -0.48629  -0.47313  -0.46744  -0.44022  -0.40780
 Alpha  occ. eigenvalues --   -0.39674  -0.38775  -0.37909  -0.36188  -0.35074
 Alpha  occ. eigenvalues --   -0.34512  -0.34124  -0.32602  -0.31929  -0.30838
 Alpha  occ. eigenvalues --   -0.30318  -0.29858  -0.29717  -0.28212  -0.27627
 Alpha  occ. eigenvalues --   -0.27051  -0.25127  -0.24421  -0.23120  -0.23001
 Alpha  occ. eigenvalues --   -0.21968  -0.21674  -0.20742  -0.20625  -0.18950
 Alpha  occ. eigenvalues --   -0.17100  -0.15732  -0.15654  -0.11483  -0.11306
 Alpha  occ. eigenvalues --   -0.10229   0.02311
 Alpha virt. eigenvalues --    0.06060   0.07369   0.07819   0.08812   0.09697
 Alpha virt. eigenvalues --    0.10286   0.10356   0.10746   0.11536   0.11809
 Alpha virt. eigenvalues --    0.12433   0.12486   0.12849   0.12973   0.13784

  Beta  occ. eigenvalues --  -19.05964 -14.23505 -14.21862 -14.17215 -14.16485
  Beta  occ. eigenvalues --  -14.14239 -10.11557 -10.10990 -10.10922 -10.08954
  Beta  occ. eigenvalues --  -10.08195 -10.08193 -10.07746 -10.07600 -10.07376
  Beta  occ. eigenvalues --  -10.07374 -10.06951 -10.05861 -10.04663 -10.02799
  Beta  occ. eigenvalues --   -1.01252  -0.88851  -0.79723  -0.78515  -0.76069
  Beta  occ. eigenvalues --   -0.74938  -0.73061  -0.66218  -0.65172  -0.64186
  Beta  occ. eigenvalues --   -0.58443  -0.56965  -0.54587  -0.52454  -0.49270
  Beta  occ. eigenvalues --   -0.48493  -0.47189  -0.46565  -0.43911  -0.40573
  Beta  occ. eigenvalues --   -0.39611  -0.38631  -0.37775  -0.35888  -0.34547
  Beta  occ. eigenvalues --   -0.34253  -0.33541  -0.32482  -0.31737  -0.30678
  Beta  occ. eigenvalues --   -0.30259  -0.29735  -0.29388  -0.28103  -0.27351
  Beta  occ. eigenvalues --   -0.26914  -0.25094  -0.24298  -0.23038  -0.22089
  Beta  occ. eigenvalues --   -0.21795  -0.21657  -0.20282  -0.19357  -0.17981
  Beta  occ. eigenvalues --   -0.16880  -0.15531  -0.14776  -0.10805  -0.09925
  Beta  occ. eigenvalues --   -0.09241
  Beta virt. eigenvalues --    0.06033   0.07349   0.07805   0.08185   0.08822
  Beta virt. eigenvalues --    0.09674   0.10269   0.10467   0.10746   0.11523
  Beta virt. eigenvalues --    0.12023   0.12453   0.12611   0.12927   0.13618

 Mulliken charges and spin densities:
               1          2
     1  C   -0.400744  -0.009349
     2  C    0.194827   0.079068
     3  N   -0.179381  -0.013992
     4  C   -0.385312   0.008425
     5  N   -0.154963   0.237412
     6  C   -0.341706  -0.068032
     7  C   -0.529700   0.219938
     8  C    0.352040   0.072714
     9  C    0.026464   0.061280
    10  N   -0.196828  -0.019527
    11  C   -0.920993   0.160266
    12  N   -0.002372   0.072132
    13  C    0.771562  -0.023642
    14  N   -0.370886   0.128047
    15  O    0.139716   0.071482
    16  C   -0.627230   0.001924
    17  C    0.531154   0.002562
    18  C   -0.506223  -0.000495
    19  C   -0.313977  -0.001455
    20  C   -0.433541  -0.005902
    21  H    0.161464   0.000181
    22  H    0.134852   0.008845
    23  H    0.136373   0.008593
    24  H    0.144354   0.002019
    25  H    0.154983  -0.011564
    26  H    0.334294   0.000572
    27  H    0.150875  -0.003247
    28  H    0.150058   0.005293
    29  H    0.173702   0.008297
    30  H    0.134097   0.000076
    31  H    0.176509   0.002010
    32  H    0.143210   0.000707
    33  H    0.097341   0.000943
    34  H    0.134874   0.002320
    35  H    0.121106   0.002099
 Sum of Mulliken charges =  -1.00000   1.00000

 Dipole moment (field-independent basis, Debye):
    X=             -8.5817    Y=              5.2390    Z=             -1.1898  Tot=             10.1247
 Quadrupole moment (field-independent basis, Debye-Ang):
   XX=           -186.3510   YY=           -136.7823   ZZ=           -126.4076
   XY=             -5.5610   XZ=             -6.8696   YZ=             -3.7039

 Summary of Natural Population Analysis:

                                       Natural Population
                Natural  -----------------------------------------------
    Atom  No    Charge         Core      Valence    Rydberg      Total
 -----------------------------------------------------------------------
      C    1   -0.30754      0.99964     2.30406    0.00384     3.30754
      C    2    0.22573      0.99966     1.75827    0.01634     2.77427
      N    3   -0.26986      0.99967     2.75754    0.01265     3.76986
      C    4    0.15784      0.99948     1.82390    0.01877     2.84216
      N    5   -0.16462      0.99967     2.64990    0.01506     3.66462
      C    6   -0.01786      0.99963     2.00185    0.01637     3.01786
      C    7   -0.07492      0.99949     2.06360    0.01183     3.07492
      C    8    0.00054      0.99946     1.99370    0.00630     2.99946
      C    9    0.06848      0.99950     1.91762    0.01440     2.93152
      N   10   -0.29054      0.99963     2.78402    0.00689     3.79054
      C   11    0.31471      0.99962     1.66480    0.02087     2.68529
      N   12   -0.29020      0.99966     2.77857    0.01197     3.79020
      C   13    0.15523      0.99965     1.82572    0.01940     2.84477
      N   14   -0.07276      0.99965     2.56123    0.01187     3.57276
      O   15   -0.14675      0.99985     3.13573    0.01117     4.14675
      C   16   -0.20789      0.99957     2.20006    0.00827     3.20789
      C   17   -0.09852      0.99961     2.09066    0.00824     3.09852
      C   18   -0.19187      0.99963     2.18517    0.00706     3.19187
      C   19   -0.19056      0.99966     2.18450    0.00640     3.19056
      C   20   -0.19322      0.99963     2.18656    0.00702     3.19322
      H   21    0.11152      0.00000     0.38761    0.00087     0.38848
      H   22    0.10136      0.00000     0.39759    0.00105     0.39864
      H   23    0.10127      0.00000     0.39768    0.00104     0.39873
      H   24    0.07956      0.00000     0.41881    0.00163     0.42044
      H   25    0.10098      0.00000     0.39827    0.00075     0.39902
      H   26    0.21406      0.00000     0.28422    0.00172     0.28594
      H   27    0.10482      0.00000     0.39407    0.00111     0.39518
      H   28    0.10680      0.00000     0.39216    0.00105     0.39320
      H   29    0.08917      0.00000     0.40909    0.00174     0.41083
      H   30    0.09130      0.00000     0.40771    0.00100     0.40870
      H   31    0.10741      0.00000     0.39133    0.00126     0.39259
      H   32    0.09488      0.00000     0.40412    0.00100     0.40512
      H   33    0.08874      0.00000     0.41001    0.00126     0.41126
      H   34    0.11211      0.00000     0.38654    0.00134     0.38789
      H   35    0.09070      0.00000     0.40834    0.00096     0.40930
 =======================================================================
   * Total *    0.00010     19.99238    50.75502    0.25250    70.99990

 Normal termination of Gaussian 16 at Mon Dec 14 19:16:41 2020.
