 Gaussian 16, Revision A.03,

 -----------------------------------------------------------
 # opt freq B3LYP/6-31G(d) empiricaldispersion=gd3bj scf=xqc
 -----------------------------------------------------------

 -------------------------------
 CID_112525078_JID_7955_neutraal
 -------------------------------
 Symbolic Z-matrix:
 Charge =  0 Multiplicity = 1

 SCF Done:  E(RB3LYP) =  -742.730630066     A.U. after   15 cycles
 SCF Done:  E(RB3LYP) =  -742.729224142     A.U. after   14 cycles
 SCF Done:  E(RB3LYP) =  -742.737720165     A.U. after   12 cycles
 SCF Done:  E(RB3LYP) =  -742.738240757     A.U. after   11 cycles
 SCF Done:  E(RB3LYP) =  -742.737325590     A.U. after   12 cycles
 SCF Done:  E(RB3LYP) =  -742.738296995     A.U. after   11 cycles
 SCF Done:  E(RB3LYP) =  -742.738311547     A.U. after   10 cycles
 SCF Done:  E(RB3LYP) =  -742.738312908     A.U. after    9 cycles
 SCF Done:  E(RB3LYP) =  -742.738313975     A.U. after    8 cycles
 SCF Done:  E(RB3LYP) =  -742.738314050     A.U. after    7 cycles
 Optimization completed.
    -- Stationary point found.
 Normal termination of Gaussian 16 at Fri Dec 11 13:22:48 2020.

 --------------------------------------------------------------------
 #N Geom=AllCheck Guess=TCheck SCRF=Check GenChk RB3LYP/6-31G(d) Freq
 --------------------------------------------------------------------

 Structure from the checkpoint file:  "JID_7955.chk"
 -------------------------------
 CID_112525078_JID_7955_neutraal
 -------------------------------
 Charge =  0 Multiplicity = 1

 SCF Done:  E(RB3LYP) =  -742.738314050     A.U. after    1 cycles

  Exact polarizability: 175.139  21.886 148.359   0.303  -0.157 115.644
 Approx polarizability: 249.658  43.796 246.617   0.671  -0.329 199.975

                      1                      2                      3
                      A                      A                      A
 Frequencies --     20.1303                45.8686                82.6844
 Red. masses --      4.1184                 5.5428                 8.5456
 Frc consts  --      0.0010                 0.0069                 0.0344
 IR Inten    --      0.5172                 0.4474                 0.7343

                      4                      5                      6
                      A                      A                      A
 Frequencies --     89.6646               134.8933               152.2567
 Red. masses --      4.2659                 4.3073                 5.8568
 Frc consts  --      0.0202                 0.0462                 0.0800
 IR Inten    --      1.4231                 0.2616                 0.2513

                      7                      8                      9
                      A                      A                      A
 Frequencies --    203.3484               244.4566               275.9404
 Red. masses --      5.1682                 2.6170                 2.7844
 Frc consts  --      0.1259                 0.0921                 0.1249
 IR Inten    --      1.5862                 0.1119                11.6880

                     10                     11                     12
                      A                      A                      A
 Frequencies --    330.5069               334.6584               392.0117
 Red. masses --      7.6530                 9.2359                 3.5848
 Frc consts  --      0.4925                 0.6094                 0.3246
 IR Inten    --      0.6498                 2.3294                 0.2136

                     13                     14                     15
                      A                      A                      A
 Frequencies --    424.2668               437.3885               460.5521
 Red. masses --      3.6053                 3.0649                 1.5282
 Frc consts  --      0.3824                 0.3455                 0.1910
 IR Inten    --      0.1420                 7.6164                52.8114

                     16                     17                     18
                      A                      A                      A
 Frequencies --    476.4739               510.5048               595.3075
 Red. masses --      5.3835                 3.0261                 5.1660
 Frc consts  --      0.7201                 0.4647                 1.0787
 IR Inten    --     13.6730                 0.1330                 4.8157

                     19                     20                     21
                      A                      A                      A
 Frequencies --    598.4732               623.3031               646.1229
 Red. masses --      6.2210                 1.4104                 2.5814
 Frc consts  --      1.3128                 0.3228                 0.6349
 IR Inten    --      0.0747                26.7123                12.4373

                     22                     23                     24
                      A                      A                      A
 Frequencies --    648.4694               697.4342               717.1035
 Red. masses --      3.3681                 3.0340                 3.2018
 Frc consts  --      0.8345                 0.8695                 0.9701
 IR Inten    --     10.0483                33.4533                 6.3427

                     25                     26                     27
                      A                      A                      A
 Frequencies --    752.2972               761.9990               773.5404
 Red. masses --      3.8640                 1.3649                 2.8912
 Frc consts  --      1.2885                 0.4670                 1.0193
 IR Inten    --     37.0966                34.3852                 3.3816

                     28                     29                     30
                      A                      A                      A
 Frequencies --    774.6587               824.8154               839.5998
 Red. masses --      1.2902                 4.7761                 1.3542
 Frc consts  --      0.4562                 1.9144                 0.5625
 IR Inten    --      3.4465                14.1098                31.1547

                     31                     32                     33
                      A                      A                      A
 Frequencies --    863.4707               863.6998               881.4565
 Red. masses --      4.1685                 4.7311                 1.2765
 Frc consts  --      1.8311                 2.0794                 0.5844
 IR Inten    --     15.5028                 0.5195                 0.1130

                     34                     35                     36
                      A                      A                      A
 Frequencies --    939.9817               952.3588               960.7170
 Red. masses --      1.3517                 6.1586                 1.5588
 Frc consts  --      0.7037                 3.2910                 0.8477
 IR Inten    --      0.0202                27.9180                 0.5301

                     37                     38                     39
                      A                      A                      A
 Frequencies --    980.4981               986.2067              1037.7923
 Red. masses --      2.7811                 1.2576                 2.0467
 Frc consts  --      1.5753                 0.7206                 1.2987
 IR Inten    --      4.8142                 0.0013                18.2361

                     40                     41                     42
                      A                      A                      A
 Frequencies --   1049.0351              1058.9104              1059.6797
 Red. masses --      2.2813                 2.2315                 5.2482
 Frc consts  --      1.4791                 1.4742                 3.4722
 IR Inten    --     27.1745                 2.4319                 0.1066

                     43                     44                     45
                      A                      A                      A
 Frequencies --   1112.2713              1131.3714              1178.9310
 Red. masses --      2.9259                 2.1682                 1.1673
 Frc consts  --      2.1327                 1.6351                 0.9559
 IR Inten    --      7.7402                 0.9448                 0.8274

                     46                     47                     48
                      A                      A                      A
 Frequencies --   1179.1343              1192.5625              1198.9481
 Red. masses --      1.7465                 1.1137                 2.3760
 Frc consts  --      1.4307                 0.9332                 2.0123
 IR Inten    --     12.8663                 0.2246                 0.3447

                     49                     50                     51
                      A                      A                      A
 Frequencies --   1214.9779              1243.8230              1248.6811
 Red. masses --      1.3521                 1.8527                 1.8023
 Frc consts  --      1.1760                 1.6888                 1.6557
 IR Inten    --     19.6880                 0.3060                 8.0568

                     52                     53                     54
                      A                      A                      A
 Frequencies --   1267.0505              1294.8041              1343.4146
 Red. masses --      1.3433                 2.0475                 1.4684
 Frc consts  --      1.2706                 2.0225                 1.5614
 IR Inten    --      3.0905                12.1355                 0.4420

                     55                     56                     57
                      A                      A                      A
 Frequencies --   1344.4182              1359.6782              1361.7378
 Red. masses --      2.8600                 2.1110                 1.1699
 Frc consts  --      3.0457                 2.2994                 1.2782
 IR Inten    --     44.4728                 6.5337                 0.0407

                     58                     59                     60
                      A                      A                      A
 Frequencies --   1374.6281              1385.3744              1387.2653
 Red. masses --      2.7781                 2.3519                 3.0193
 Frc consts  --      3.0929                 2.6595                 3.4236
 IR Inten    --    109.3779                 5.1155               109.8305

                     61                     62                     63
                      A                      A                      A
 Frequencies --   1439.9895              1489.4815              1507.3210
 Red. masses --      5.0298                 1.7209                 2.3303
 Frc consts  --      6.1450                 2.2495                 3.1194
 IR Inten    --     68.8325                 6.1207                 2.8331

                     64                     65                     66
                      A                      A                      A
 Frequencies --   1524.1702              1524.9568              1537.8289
 Red. masses --      1.6303                 1.1164                 1.4296
 Frc consts  --      2.2314                 1.5297                 1.9920
 IR Inten    --      6.6757                 8.2890                15.1958

                     67                     68                     69
                      A                      A                      A
 Frequencies --   1558.4137              1644.0986              1644.9158
 Red. masses --      2.3196                 6.0331                 5.1416
 Frc consts  --      3.3191                 9.6083                 8.1966
 IR Inten    --     25.4259                 3.6613                42.8140

                     70                     71                     72
                      A                      A                      A
 Frequencies --   1666.7853              1774.1109              3055.2734
 Red. masses --      6.2958                 6.8932                 1.0646
 Frc consts  --     10.3053                12.7830                 5.8549
 IR Inten    --      0.0921               440.5630                24.4535

                     73                     74                     75
                      A                      A                      A
 Frequencies --   3056.4329              3092.2765              3096.7065
 Red. masses --      1.0656                 1.0961                 1.0988
 Frc consts  --      5.8650                 6.1752                 6.2080
 IR Inten    --     12.4675                 8.7355                11.1718

                     76                     77                     78
                      A                      A                      A
 Frequencies --   3121.8542              3180.6019              3186.1593
 Red. masses --      1.0884                 1.0856                 1.0889
 Frc consts  --      6.2500                 6.4707                 6.5129
 IR Inten    --     21.1062                 4.1895                 1.9042

                     79                     80                     81
                      A                      A                      A
 Frequencies --   3197.0092              3209.7475              3252.4291
 Red. masses --      1.0929                 1.0972                 1.0962
 Frc consts  --      6.5815                 6.6601                 6.8320
 IR Inten    --     30.4200                29.0235                 4.6117

                     82                     83                     84
                      A                      A                      A
 Frequencies --   3315.1402              3578.9388              3672.4144
 Red. masses --      1.0981                 1.0750                 1.0817
 Frc consts  --      7.1106                 8.1126                 8.5951
 IR Inten    --     32.4982                26.6834                82.0808

 - Thermochemistry -
 -------------------
 Temperature   298.150 Kelvin.  Pressure   1.00000 Atm.
 Atom     1 has atomic number  6 and mass  12.00000

 Molecular mass:   227.10586 amu.
 Principal axes and moments of inertia in atomic units:
                           1         2         3
     Eigenvalues --  2580.467834977.604286571.08571
           X            0.99995   0.00966   0.00008
           Y           -0.00966   0.99995  -0.00014
           Z           -0.00008   0.00014   1.00000
 This molecule is an asymmetric top.
 Rotational symmetry number  1.
 Warning -- assumption of classical behavior for rotation
           may cause significant error
 Rotational temperatures (Kelvin)      0.03357     0.01740     0.01318
 Rotational constants (GHZ):           0.69939     0.36257     0.27465
 Zero-point vibrational energy     643882.0 (Joules/Mol)
                                  153.89149 (Kcal/Mol)
 Warning -- explicit consideration of  19 degrees of freedom as
           vibrations may cause significant error
 Vibrational temperatures:     28.96    65.99   118.96   129.01   194.08
          (Kelvin)            219.06   292.57   351.72   397.02   475.53
                              481.50   564.02   610.43   629.30   662.63
                              685.54   734.50   856.51   861.07   896.79
                              929.63   933.00  1003.45  1031.75  1082.39
                             1096.35  1112.95  1114.56  1186.73  1208.00
                             1242.34  1242.67  1268.22  1352.42  1370.23
                             1382.26  1410.72  1418.93  1493.15  1509.33
                             1523.54  1524.64  1600.31  1627.79  1696.22
                             1696.51  1715.83  1725.02  1748.08  1789.58
                             1796.57  1823.00  1862.93  1932.87  1934.32
                             1956.27  1959.24  1977.78  1993.24  1995.97
                             2071.82  2143.03  2168.70  2192.94  2194.07
                             2212.59  2242.21  2365.49  2366.67  2398.13
                             2552.55  4395.86  4397.53  4449.10  4455.47
                             4491.65  4576.18  4584.17  4599.78  4618.11
                             4679.52  4769.75  5149.29  5283.79

 Zero-point correction=                           0.245242 (Hartree/Particle)
 Thermal correction to Energy=                    0.258763
 Thermal correction to Enthalpy=                  0.259707
 Thermal correction to Gibbs Free Energy=         0.203481
 Sum of electronic and zero-point Energies=           -742.493072
 Sum of electronic and thermal Energies=              -742.479551
 Sum of electronic and thermal Enthalpies=            -742.478607
 Sum of electronic and thermal Free Energies=         -742.534833

                     E (Thermal)             CV                S
                      KCal/Mol        Cal/Mol-Kelvin    Cal/Mol-Kelvin
 Total                  162.376             53.724            118.337
 Electronic               0.000              0.000              0.000
 Translational            0.889              2.981             42.163
 Rotational               0.889              2.981             32.801
 Vibrational            160.599             47.762             43.373
 Vibration     1          0.593              1.986              6.621
 Vibration     2          0.595              1.979              4.988
 Vibration     3          0.600              1.961              3.826
 Vibration     4          0.602              1.956              3.667
 Vibration     5          0.613              1.918              2.875
 Vibration     6          0.619              1.900              2.644
 Vibration     7          0.639              1.835              2.103
 Vibration     8          0.660              1.772              1.770
 Vibration     9          0.678              1.718              1.559
 Vibration    10          0.713              1.615              1.258
 Vibration    11          0.716              1.606              1.238
 Vibration    12          0.759              1.487              0.992
 Vibration    13          0.786              1.417              0.878
 Vibration    14          0.798              1.389              0.835
 Vibration    15          0.818              1.338              0.764
 Vibration    16          0.833              1.302              0.720
 Vibration    17          0.866              1.227              0.632
 Vibration    18          0.953              1.042              0.458
 Vibration    19          0.956              1.035              0.452

                           ! Non-Optimized Parameters !
 Normal termination of Gaussian 16 at Fri Dec 11 13:34:47 2020.

 ----------------------------------------------------------------------
 # B3LYP/6-311++G(d,p) empiricaldispersion=gd3bj scf=xqc pop=npa geom=c
 heck
 ----------------------------------------------------------------------

 ---------------------------------------
 CID_112525078_JID_7955_Energie_neutraal
 ---------------------------------------
 Structure from the checkpoint file:  "JID_7955.chk"
 Charge =  0 Multiplicity = 1

 SCF Done:  E(RB3LYP) =  -742.940913336     A.U. after   16 cycles
 Normal termination of Gaussian 16 at Fri Dec 11 13:40:31 2020.

 ----------------------------------------------------------------------
 # B3LYP/6-311++G(d,p) empiricaldispersion=gd3bj scf=xqc pop=npa geom=c
 heck
 ----------------------------------------------------------------------

 -------------------------------------
 CID_112525078_JID_7955_Energie_kation
 -------------------------------------
 Structure from the checkpoint file:  "JID_7955.chk"
 Charge =  1 Multiplicity = 2

 SCF Done:  E(UB3LYP) =  -742.643980266     A.U. after   30 cycles
 Normal termination of Gaussian 16 at Fri Dec 11 13:55:35 2020.
 Gaussian 16:  ES64L-G16RevA.03 25-Dec-2016

 ----------------------------------------------------------------------
 # B3LYP/6-311++G(d,p) empiricaldispersion=gd3bj scf=xqc pop=npa geom=c
 heck
 ----------------------------------------------------------------------

 ------------------------------------
 CID_112525078_JID_7955_Energie_anion
 ------------------------------------
 Structure from the checkpoint file:  "JID_7955.chk"
 Charge = -1 Multiplicity = 2

                         Standard orientation:
 ---------------------------------------------------------------------
 Center     Atomic      Atomic             Coordinates (Angstroms)
 Number     Number       Type             X           Y           Z
 ---------------------------------------------------------------------
      1          6           0       -0.582121    1.096112   -1.245512
      2          6           0        0.002507    1.815421    0.007068
      3          6           0       -0.575037    1.079840    1.253295
      4          6           0       -1.775486    0.344493    0.703329
      5          6           0       -2.782385   -0.314916    1.407187
      6          6           0       -3.797539   -0.961771    0.698955
      7          6           0       -3.801326   -0.952999   -0.699590
      8          6           0       -2.790023   -0.297187   -1.405087
      9          6           0       -1.779362    0.353421   -0.698391
     10          6           0        1.507691    2.004156    0.002176
     11          8           0        2.003370    3.125020    0.001414
     12          7           0        2.361866    0.914004   -0.002970
     13          6           0        2.233720   -0.481801   -0.003711
     14          6           0        1.143759   -1.341939   -0.013354
     15          7           0        1.671674   -2.600400   -0.009454
     16          7           0        3.014165   -2.627977    0.001259
     17          6           0        3.364113   -1.344485    0.004716
     18          1           0       -0.847771    1.819653   -2.022957
     19          1           0        0.138968    0.404043   -1.698348
     20          1           0       -0.382406    2.836725    0.014651
     21          1           0        0.148100    0.381550    1.692907
     22          1           0       -0.836299    1.793220    2.041560
     23          1           0       -2.781507   -0.321837    2.494216
     24          1           0       -4.590999   -1.472022    1.237720
     25          1           0       -4.597694   -1.456467   -1.240436
     26          1           0       -2.795076   -0.290332   -2.492108
     27          1           0        3.322101    1.238570   -0.005807
     28          1           0        0.078296   -1.188464   -0.021034
     29          1           0        1.162884   -3.470946   -0.013231
     30          1           0        4.409452   -1.063318    0.013228
 ---------------------------------------------------------------------

 SCF Done:  E(UB3LYP) =  -742.931854574     A.U. after   33 cycles
 SCF Done:  E(UB3LYP) =  -742.931854575     a.u. after    1 cycles

 The electronic state is 2-A.
 Alpha  occ. eigenvalues --  -19.00702 -14.29325 -14.26809 -14.24474 -10.19362
 Alpha  occ. eigenvalues --  -10.12928 -10.11615 -10.10372 -10.10138 -10.08950
 Alpha  occ. eigenvalues --  -10.08941 -10.08098 -10.08045 -10.07308 -10.07259
 Alpha  occ. eigenvalues --  -10.07184 -10.07180  -0.96271  -0.95828  -0.84914
 Alpha  occ. eigenvalues --   -0.78066  -0.72985  -0.72283  -0.69026  -0.66334
 Alpha  occ. eigenvalues --   -0.63912  -0.60617  -0.56793  -0.53842  -0.52158
 Alpha  occ. eigenvalues --   -0.49858  -0.48157  -0.47990  -0.46146  -0.41255
 Alpha  occ. eigenvalues --   -0.40336  -0.39131  -0.38665  -0.36658  -0.35544
 Alpha  occ. eigenvalues --   -0.35495  -0.34770  -0.33621  -0.32505  -0.31767
 Alpha  occ. eigenvalues --   -0.31701  -0.31386  -0.29002  -0.28008  -0.26863
 Alpha  occ. eigenvalues --   -0.24864  -0.24308  -0.23954  -0.23503  -0.21200
 Alpha  occ. eigenvalues --   -0.17604  -0.17240  -0.15522  -0.14616  -0.13003
 Alpha  occ. eigenvalues --    0.04261
 Alpha virt. eigenvalues --    0.06497   0.06865   0.07332   0.07359   0.07991
 Alpha virt. eigenvalues --    0.08122   0.08790   0.09506   0.09569   0.09945
 Alpha virt. eigenvalues --    0.10436   0.11276   0.11457   0.11914   0.13049

  Beta  occ. eigenvalues --  -19.00702 -14.29267 -14.26803 -14.24469 -10.19360
  Beta  occ. eigenvalues --  -10.12928 -10.11612 -10.10363 -10.10137 -10.08946
  Beta  occ. eigenvalues --  -10.08938 -10.08090 -10.08037 -10.07278 -10.07227
  Beta  occ. eigenvalues --  -10.07107 -10.07106  -0.96249  -0.95807  -0.84903
  Beta  occ. eigenvalues --   -0.77997  -0.72919  -0.72211  -0.68996  -0.66231
  Beta  occ. eigenvalues --   -0.63849  -0.60544  -0.56744  -0.53770  -0.52110
  Beta  occ. eigenvalues --   -0.49733  -0.48106  -0.47942  -0.46123  -0.41186
  Beta  occ. eigenvalues --   -0.40293  -0.39088  -0.38625  -0.36621  -0.35499
  Beta  occ. eigenvalues --   -0.35427  -0.34742  -0.33578  -0.32475  -0.31745
  Beta  occ. eigenvalues --   -0.31660  -0.31339  -0.28953  -0.27902  -0.26845
  Beta  occ. eigenvalues --   -0.24821  -0.24159  -0.23898  -0.23493  -0.21175
  Beta  occ. eigenvalues --   -0.17598  -0.17221  -0.15105  -0.14431  -0.12990
  Beta virt. eigenvalues --    0.06571   0.07017   0.07388   0.07607   0.08235
  Beta virt. eigenvalues --    0.08440   0.08789   0.08860   0.09672   0.09971
  Beta virt. eigenvalues --    0.10027   0.10487   0.11515   0.11528   0.12270

 Mulliken charges and spin densities:
               1          2
     1  C    0.132437  -0.672779
     2  C    0.080047  -0.233913
     3  C    0.115034  -0.653412
     4  C    0.514803  -0.390762
     5  C   -1.292586   1.430417
     6  C    0.945950  -1.224586
     7  C    0.942416  -1.225110
     8  C   -1.279755   1.421992
     9  C    0.517022  -0.386989
    10  C   -0.054674  -0.076977
    11  O   -0.328353   0.001480
    12  N   -0.243910   0.076681
    13  C    0.238702  -0.664137
    14  C   -0.204554   0.083463
    15  N    0.100537  -0.045057
    16  N   -0.297448   0.091615
    17  C    0.338914  -0.633603
    18  H    0.219314  -0.033012
    19  H   -0.135858   0.332202
    20  H    0.261015   0.003512
    21  H   -0.131084   0.327346
    22  H    0.216836  -0.031355
    23  H   -0.357876   0.516927
    24  H   -0.459394   0.622796
    25  H   -0.460715   0.624215
    26  H   -0.364876   0.524406
    27  H    0.268752   0.038393
    28  H    0.322936   0.089495
    29  H   -0.463078   0.790327
    30  H   -0.140553   0.296425
 Sum of Mulliken charges =  -1.00000   1.00000

 Dipole moment (field-independent basis, Debye):
    X=              2.6409    Y=              5.9894    Z=              0.0446  Tot=              6.5459
 Quadrupole moment (field-independent basis, Debye-Ang):
   XX=           -170.0077   YY=           -161.3274   ZZ=           -128.1410
   XY=             -7.6850   XZ=             -0.1013   YZ=             -0.0247

 Summary of Natural Population Analysis:

                                       Natural Population
                Natural  -----------------------------------------------
    Atom  No    Charge         Core      Valence    Rydberg      Total
 -----------------------------------------------------------------------
      C    1   -0.19408      0.99959     2.18638    0.00810     3.19408
      C    2   -0.14494      0.99957     2.13523    0.01015     3.14494
      C    3   -0.19419      0.99959     2.18651    0.00809     3.19419
      C    4   -0.02267      0.99946     2.01255    0.01066     3.02267
      C    5   -0.08627      0.99950     2.07625    0.01052     3.08627
      C    6   -0.09452      0.99956     2.08482    0.01014     3.09452
      C    7   -0.09453      0.99956     2.08482    0.01014     3.09453
      C    8   -0.08624      0.99950     2.07622    0.01052     3.08624
      C    9   -0.02295      0.99946     2.01283    0.01066     3.02295
      C   10    0.34954      0.99963     1.62834    0.02249     2.65046
      O   11   -0.32248      0.99988     3.31722    0.00538     4.32248
      N   12   -0.30379      0.99963     2.79553    0.00863     3.80379
      C   13    0.02057      0.99946     1.96799    0.01198     2.97943
      C   14   -0.03471      0.99953     2.02297    0.01221     3.03471
      N   15   -0.15680      0.99971     2.64290    0.01419     3.65680
      N   16   -0.14654      0.99974     2.63239    0.01442     3.64654
      C   17   -0.02609      0.99959     2.01311    0.01338     3.02609
      H   18    0.10490      0.00000     0.39419    0.00091     0.39510
      H   19    0.10852      0.00000     0.38996    0.00152     0.39148
      H   20    0.11206      0.00000     0.38689    0.00106     0.38794
      H   21    0.10866      0.00000     0.38982    0.00152     0.39134
      H   22    0.10482      0.00000     0.39427    0.00091     0.39518
      H   23    0.10028      0.00000     0.39871    0.00101     0.39972
      H   24    0.10053      0.00000     0.39809    0.00138     0.39947
      H   25    0.10054      0.00000     0.39808    0.00138     0.39946
      H   26    0.10032      0.00000     0.39867    0.00101     0.39968
      H   27    0.19638      0.00000     0.30059    0.00302     0.30362
      H   28    0.11904      0.00000     0.37812    0.00284     0.38096
      H   29    0.20807      0.00000     0.27980    0.01213     0.29193
      H   30    0.09657      0.00000     0.40233    0.00109     0.40343
 =======================================================================
   * Total *    0.00000     16.99296    42.78561    0.22143    60.00000

 Normal termination of Gaussian 16 at Fri Dec 11 14:12:31 2020.
