 Gaussian 16, Revision A.03,

 -----------------------------------------------------------
 # opt freq B3LYP/6-31G(d) empiricaldispersion=gd3bj scf=xqc
 -----------------------------------------------------------

 ------------------------------
 CID_81578248_JID_7967_neutraal
 ------------------------------
 Symbolic Z-matrix:
 Charge =  0 Multiplicity = 1

 SCF Done:  E(RB3LYP) =  -763.633660479     A.U. after   15 cycles
 SCF Done:  E(RB3LYP) =  -763.640474501     A.U. after   12 cycles
 SCF Done:  E(RB3LYP) =  -763.640871034     A.U. after   13 cycles
 SCF Done:  E(RB3LYP) =  -763.641454841     A.U. after   12 cycles
 SCF Done:  E(RB3LYP) =  -763.641625439     A.U. after   12 cycles
 SCF Done:  E(RB3LYP) =  -763.641667932     A.U. after   12 cycles
 SCF Done:  E(RB3LYP) =  -763.641745096     A.U. after   12 cycles
 SCF Done:  E(RB3LYP) =  -763.641776284     A.U. after   11 cycles
 SCF Done:  E(RB3LYP) =  -763.641794260     A.U. after   11 cycles
 SCF Done:  E(RB3LYP) =  -763.641801402     A.U. after   10 cycles
 SCF Done:  E(RB3LYP) =  -763.641817562     A.U. after    9 cycles
 SCF Done:  E(RB3LYP) =  -763.641817807     A.U. after    8 cycles
 SCF Done:  E(RB3LYP) =  -763.641817911     A.U. after    8 cycles
 SCF Done:  E(RB3LYP) =  -763.641817941     A.U. after    7 cycles
 SCF Done:  E(RB3LYP) =  -763.641817945     A.U. after    6 cycles
 Optimization completed.
    -- Stationary point found.
 Normal termination of Gaussian 16 at Fri Dec 11 13:35:26 2020.

 --------------------------------------------------------------------
 #N Geom=AllCheck Guess=TCheck SCRF=Check GenChk RB3LYP/6-31G(d) Freq
 --------------------------------------------------------------------

 Structure from the checkpoint file:  "JID_7967.chk"
 ------------------------------
 CID_81578248_JID_7967_neutraal
 ------------------------------
 Charge =  0 Multiplicity = 1

 SCF Done:  E(RB3LYP) =  -763.641817945     A.U. after    1 cycles

  Exact polarizability: 208.365  -6.985 124.264  -1.470 -14.584 138.907
 Approx polarizability: 296.366  -8.861 171.436  -6.851 -35.046 233.691

                      1                      2                      3
                      A                      A                      A
 Frequencies --     18.6279                29.1170                42.6825
 Red. masses --      5.2503                 4.1200                 3.5954
 Frc consts  --      0.0011                 0.0021                 0.0039
 IR Inten    --      0.6291                 0.6227                 0.4444

                      4                      5                      6
                      A                      A                      A
 Frequencies --     58.7685                72.7948               109.1635
 Red. masses --      7.1146                 3.1765                 3.8039
 Frc consts  --      0.0145                 0.0099                 0.0267
 IR Inten    --      1.0839                 0.5168                 0.2898

                      7                      8                      9
                      A                      A                      A
 Frequencies --    126.5699               151.5436               165.3578
 Red. masses --      2.9390                 2.0021                 1.1726
 Frc consts  --      0.0277                 0.0271                 0.0189
 IR Inten    --      2.4976                 2.0940                 2.1207

                     10                     11                     12
                      A                      A                      A
 Frequencies --    178.8290               206.3803               234.4489
 Red. masses --      2.2529                 3.0954                 1.5672
 Frc consts  --      0.0424                 0.0777                 0.0508
 IR Inten    --      1.3200                 4.6234                14.9824

                     13                     14                     15
                      A                      A                      A
 Frequencies --    245.1139               266.5773               269.9220
 Red. masses --      2.2391                 1.2526                 1.3330
 Frc consts  --      0.0793                 0.0524                 0.0572
 IR Inten    --     25.8213               165.8445                39.3634

                     16                     17                     18
                      A                      A                      A
 Frequencies --    305.1931               309.6270               313.7762
 Red. masses --      2.2647                 3.4888                 2.7388
 Frc consts  --      0.1243                 0.1971                 0.1589
 IR Inten    --      2.8195                 7.9325                 3.1814

                     19                     20                     21
                      A                      A                      A
 Frequencies --    372.4792               378.8877               413.2596
 Red. masses --      2.7470                 2.8992                 2.1614
 Frc consts  --      0.2246                 0.2452                 0.2175
 IR Inten    --     18.7817                 2.4601                 5.4306

                     22                     23                     24
                      A                      A                      A
 Frequencies --    418.9873               455.2409               504.7199
 Red. masses --      2.6248                 4.0422                 3.7450
 Frc consts  --      0.2715                 0.4936                 0.5621
 IR Inten    --     16.7654                 7.0282                 3.9021

                     25                     26                     27
                      A                      A                      A
 Frequencies --    524.6270               547.8541               561.4702
 Red. masses --      2.2156                 3.6917                 3.3864
 Frc consts  --      0.3593                 0.6528                 0.6290
 IR Inten    --     16.0326                27.3671                14.1785

                     28                     29                     30
                      A                      A                      A
 Frequencies --    575.5997               602.7860               628.3062
 Red. masses --      2.4110                 3.4782                 2.4826
 Frc consts  --      0.4706                 0.7446                 0.5774
 IR Inten    --      3.1818                 3.8522                29.4659

                     31                     32                     33
                      A                      A                      A
 Frequencies --    681.7188               694.3414               737.6849
 Red. masses --      1.5886                 1.5194                 3.7532
 Frc consts  --      0.4350                 0.4316                 1.2033
 IR Inten    --    201.8946               118.3462                 2.0129

                     34                     35                     36
                      A                      A                      A
 Frequencies --    750.5933               769.5515               794.7208
 Red. masses --      1.8564                 2.4601                 3.3288
 Frc consts  --      0.6162                 0.8584                 1.2387
 IR Inten    --      6.1910                11.4485                 5.9282

                     37                     38                     39
                      A                      A                      A
 Frequencies --    813.6002               830.1097               863.8807
 Red. masses --      2.5821                 1.5645                 2.2043
 Frc consts  --      1.0071                 0.6352                 0.9693
 IR Inten    --      1.9659                33.1585                23.3084

                     40                     41                     42
                      A                      A                      A
 Frequencies --    890.6157               927.9773               939.8023
 Red. masses --      2.8331                 2.2092                 1.2949
 Frc consts  --      1.3240                 1.1209                 0.6739
 IR Inten    --      2.0674                 6.0746                 1.6907

                     43                     44                     45
                      A                      A                      A
 Frequencies --    963.1550               975.6843               991.9428
 Red. masses --      2.2062                 1.9616                 1.7783
 Frc consts  --      1.2058                 1.1002                 1.0309
 IR Inten    --      0.5566                10.7885                 3.4173

                     46                     47                     48
                      A                      A                      A
 Frequencies --   1011.4038              1065.9189              1073.6328
 Red. masses --      1.7750                 1.5128                 2.2778
 Frc consts  --      1.0698                 1.0127                 1.5469
 IR Inten    --     27.2119                 1.2859                37.5234

                     49                     50                     51
                      A                      A                      A
 Frequencies --   1079.5426              1099.3074              1104.5158
 Red. masses --      1.7284                 1.6016                 1.8758
 Frc consts  --      1.1868                 1.1403                 1.3483
 IR Inten    --      1.7705                 7.7025                 6.3409

                     52                     53                     54
                      A                      A                      A
 Frequencies --   1135.7761              1156.5643              1185.2362
 Red. masses --      1.9543                 2.1141                 1.2733
 Frc consts  --      1.4853                 1.6662                 1.0539
 IR Inten    --      2.6154                 3.2346                25.5087

                     55                     56                     57
                      A                      A                      A
 Frequencies --   1193.7452              1237.8605              1271.3186
 Red. masses --      2.4795                 2.1701                 1.5547
 Frc consts  --      2.0818                 1.9591                 1.4805
 IR Inten    --     42.5093                13.0708                53.5233

                     58                     59                     60
                      A                      A                      A
 Frequencies --   1276.2786              1288.8561              1327.5212
 Red. masses --      1.5713                 1.3397                 2.4661
 Frc consts  --      1.5080                 1.3112                 2.5606
 IR Inten    --     72.0382                13.0996                45.9284

                     61                     62                     63
                      A                      A                      A
 Frequencies --   1342.0274              1345.5800              1359.7247
 Red. masses --      2.5220                 1.3394                 1.5386
 Frc consts  --      2.6761                 1.4288                 1.6760
 IR Inten    --     19.0215                 7.0127                47.9076

                     64                     65                     66
                      A                      A                      A
 Frequencies --   1371.4413              1394.7260              1399.7694
 Red. masses --      3.3732                 1.3342                 1.6844
 Frc consts  --      3.7380                 1.5291                 1.9445
 IR Inten    --     75.1632                 5.1889                17.8861

                     67                     68                     69
                      A                      A                      A
 Frequencies --   1425.4495              1428.4383              1437.2764
 Red. masses --      1.3424                 1.3363                 1.9759
 Frc consts  --      1.6071                 1.6065                 2.4049
 IR Inten    --      6.1356                 9.2552                 7.6949

                     70                     71                     72
                      A                      A                      A
 Frequencies --   1445.5590              1464.5829              1502.8345
 Red. masses --      1.2639                 3.1263                 1.1302
 Frc consts  --      1.5561                 3.9510                 1.5039
 IR Inten    --      4.8318                 0.4058                72.7098

                     73                     74                     75
                      A                      A                      A
 Frequencies --   1513.3479              1514.9941              1521.8646
 Red. masses --      1.1944                 1.5477                 1.0884
 Frc consts  --      1.6117                 2.0930                 1.4852
 IR Inten    --     47.3117               154.7064                 8.0736

                     76                     77                     78
                      A                      A                      A
 Frequencies --   1523.7318              1527.0907              1533.2466
 Red. masses --      1.0575                 1.3366                 1.1475
 Frc consts  --      1.4466                 1.8365                 1.5894
 IR Inten    --      5.1508               151.7950                43.4197

                     79                     80                     81
                      A                      A                      A
 Frequencies --   1537.7654              1544.1618              1613.5891
 Red. masses --      1.0882                 1.0607                 1.3290
 Frc consts  --      1.5161                 1.4901                 2.0388
 IR Inten    --      9.3571                 0.5450               141.8418

                     82                     83                     84
                      A                      A                      A
 Frequencies --   1633.3543              1664.7770              1695.9837
 Red. masses --      5.9065                 4.1865                 1.2460
 Frc consts  --      9.2842                 6.8362                 2.1115
 IR Inten    --     35.4092                39.6818                47.0165

                     85                     86                     87
                      A                      A                      A
 Frequencies --   1814.8223              3022.2264              3033.0021
 Red. masses --      9.4541                 1.0470                 1.0670
 Frc consts  --     18.3459                 5.6345                 5.7829
 IR Inten    --    326.2776                34.0908                17.8231

                     88                     89                     90
                      A                      A                      A
 Frequencies --   3044.1552              3044.9875              3061.6921
 Red. masses --      1.0637                 1.0405                 1.0710
 Frc consts  --      5.8077                 5.6839                 5.9149
 IR Inten    --     26.2889                28.2230                53.9522

                     91                     92                     93
                      A                      A                      A
 Frequencies --   3073.0068              3076.8369              3081.0519
 Red. masses --      1.0784                 1.0933                 1.0921
 Frc consts  --      5.9998                 6.0982                 6.1080
 IR Inten    --      8.1165                18.2629                37.1487

                     94                     95                     96
                      A                      A                      A
 Frequencies --   3086.0588              3109.7685              3127.1922
 Red. masses --      1.0888                 1.1003                 1.1004
 Frc consts  --      6.1093                 6.2694                 6.3404
 IR Inten    --     34.1680                40.4909                36.0035

                     97                     98                     99
                      A                      A                      A
 Frequencies --   3137.4929              3142.2397              3161.1997
 Red. masses --      1.0949                 1.0934                 1.0973
 Frc consts  --      6.3500                 6.3606                 6.4609
 IR Inten    --     10.4418                26.2505                 5.5309

                    100                    101                    102
                      A                      A                      A
 Frequencies --   3175.2610              3215.4875              3534.8469
 Red. masses --      1.0893                 1.0925                 1.0481
 Frc consts  --      6.4707                 6.6550                 7.7164
 IR Inten    --     21.8040                13.5855                 6.0843

                    103                    104                    105
                      A                      A                      A
 Frequencies --   3587.5401              3631.6040              3720.5786
 Red. masses --      1.0438                 1.0971                 1.1056
 Frc consts  --      7.9154                 8.5250                 9.0169
 IR Inten    --     23.3410                 6.5165                63.0496

 - Thermochemistry -
 -------------------
 Temperature   298.150 Kelvin.  Pressure   1.00000 Atm.
 Atom     1 has atomic number  6 and mass  12.00000

 Molecular mass:   236.16371 amu.
 Principal axes and moments of inertia in atomic units:
                           1         2         3
     Eigenvalues --  2765.266516010.885417162.61073
           X            0.99966  -0.02400   0.01009
           Y            0.02401   0.99971  -0.00071
           Z           -0.01007   0.00095   0.99995
 This molecule is an asymmetric top.
 Rotational symmetry number  1.
 Warning -- assumption of classical behavior for rotation
           may cause significant error
 Rotational temperatures (Kelvin)      0.03132     0.01441     0.01209
 Rotational constants (GHZ):           0.65265     0.30025     0.25197
 Zero-point vibrational energy     842433.8 (Joules/Mol)
                                  201.34651 (Kcal/Mol)
 Warning -- explicit consideration of  29 degrees of freedom as
           vibrations may cause significant error
 Vibrational temperatures:     26.80    41.89    61.41    84.55   104.74
          (Kelvin)            157.06   182.11   218.04   237.91   257.30
                              296.94   337.32   352.66   383.55   388.36
                              439.10   445.48   451.45   535.91   545.13
                              594.59   602.83   654.99   726.18   754.82
                              788.24   807.83   828.16   867.27   903.99
                              980.84   999.00  1061.36  1079.94  1107.21
                             1143.43  1170.59  1194.34  1242.93  1281.40
                             1335.15  1352.17  1385.77  1403.79  1427.18
                             1455.18  1533.62  1544.72  1553.22  1581.66
                             1589.15  1634.13  1664.04  1705.29  1717.53
                             1781.01  1829.14  1836.28  1854.38  1910.01
                             1930.88  1935.99  1956.34  1973.20  2006.70
                             2013.96  2050.90  2055.20  2067.92  2079.84
                             2107.21  2162.24  2177.37  2179.74  2189.62
                             2192.31  2197.14  2206.00  2212.50  2221.70
                             2321.59  2350.03  2395.24  2440.14  2611.12
                             4348.31  4363.81  4379.86  4381.06  4405.09
                             4421.37  4426.88  4432.95  4440.15  4474.26
                             4499.33  4514.15  4520.98  4548.26  4568.49
                             4626.37  5085.86  5161.67  5225.07  5353.08

 Zero-point correction=                           0.320866 (Hartree/Particle)
 Thermal correction to Energy=                    0.339197
 Thermal correction to Enthalpy=                  0.340141
 Thermal correction to Gibbs Free Energy=         0.273226
 Sum of electronic and zero-point Energies=           -763.320952
 Sum of electronic and thermal Energies=              -763.302621
 Sum of electronic and thermal Enthalpies=            -763.301677
 Sum of electronic and thermal Free Energies=         -763.368592

                     E (Thermal)             CV                S
                      KCal/Mol        Cal/Mol-Kelvin    Cal/Mol-Kelvin
 Total                  212.849             68.737            140.835
 Electronic               0.000              0.000              0.000
 Translational            0.889              2.981             42.280
 Rotational               0.889              2.981             33.143
 Vibrational            211.072             62.776             65.413
 Vibration     1          0.593              1.986              6.775
 Vibration     2          0.593              1.984              5.889
 Vibration     3          0.595              1.980              5.131
 Vibration     4          0.596              1.974              4.498
 Vibration     5          0.599              1.967              4.076
 Vibration     6          0.606              1.942              3.284
 Vibration     7          0.611              1.927              2.998
 Vibration     8          0.619              1.901              2.653
 Vibration     9          0.624              1.885              2.488
 Vibration    10          0.629              1.868              2.341
 Vibration    11          0.641              1.831              2.075
 Vibration    12          0.654              1.788              1.845
 Vibration    13          0.660              1.771              1.765
 Vibration    14          0.672              1.734              1.618
 Vibration    15          0.674              1.729              1.597
 Vibration    16          0.696              1.664              1.388
 Vibration    17          0.699              1.655              1.364
 Vibration    18          0.702              1.647              1.342
 Vibration    19          0.744              1.529              1.070
 Vibration    20          0.749              1.515              1.044
 Vibration    21          0.777              1.441              0.915
 Vibration    22          0.782              1.429              0.895
 Vibration    23          0.814              1.349              0.780
 Vibration    24          0.860              1.240              0.646
 Vibration    25          0.880              1.195              0.599
 Vibration    26          0.903              1.144              0.549
 Vibration    27          0.917              1.115              0.521
 Vibration    28          0.932              1.084              0.494
 Vibration    29          0.961              1.026              0.445

 Optimization completed.
    -- Stationary point found.
 Normal termination of Gaussian 16 at Fri Dec 11 13:49:29 2020.

 ----------------------------------------------------------------------
 # B3LYP/6-311++G(d,p) empiricaldispersion=gd3bj scf=xqc pop=npa geom=c
 heck
 ----------------------------------------------------------------------

 --------------------------------------
 CID_81578248_JID_7967_Energie_neutraal
 --------------------------------------
 Structure from the checkpoint file:  "JID_7967.chk"
 Charge =  0 Multiplicity = 1

 SCF Done:  E(RB3LYP) =  -763.867729142     A.U. after   15 cycles
 Normal termination of Gaussian 16 at Fri Dec 11 13:56:48 2020.

 ----------------------------------------------------------------------
 # B3LYP/6-311++G(d,p) empiricaldispersion=gd3bj scf=xqc pop=npa geom=c
 heck
 ----------------------------------------------------------------------

 ------------------------------------
 CID_81578248_JID_7967_Energie_kation
 ------------------------------------
 Structure from the checkpoint file:  "JID_7967.chk"
 Charge =  1 Multiplicity = 2

 SCF Done:  E(UB3LYP) =  -763.610777097     A.U. after   22 cycles
 Normal termination of Gaussian 16 at Fri Dec 11 14:11:56 2020.
 Gaussian 16:  ES64L-G16RevA.03 25-Dec-2016

 ----------------------------------------------------------------------
 # B3LYP/6-311++G(d,p) empiricaldispersion=gd3bj scf=xqc pop=npa geom=c
 heck
 ----------------------------------------------------------------------

 -----------------------------------
 CID_81578248_JID_7967_Energie_anion
 -----------------------------------
 Structure from the checkpoint file:  "JID_7967.chk"
 Charge = -1 Multiplicity = 2

                         Standard orientation:
 ---------------------------------------------------------------------
 Center     Atomic      Atomic             Coordinates (Angstroms)
 Number     Number       Type             X           Y           Z
 ---------------------------------------------------------------------
      1          6           0        0.270525    3.326309    0.400409
      2          6           0       -0.768802    2.507107    1.171646
      3          6           0       -1.996442    2.109690    0.341058
      4          6           0       -1.714189    1.140612   -0.820681
      5          7           0       -1.061682   -0.121610   -0.437070
      6          6           0       -1.765357   -0.889605    0.581811
      7          6           0       -3.092109   -1.462869    0.079150
      8          8           0       -4.046564   -1.635205    0.822924
      9          7           0       -3.082064   -1.821680   -1.236498
     10          6           0        0.346021   -0.188913   -0.448526
     11          7           0        0.949600   -0.786909    0.583218
     12          6           0        2.282732   -0.915931    0.609049
     13          6           0        3.106062   -0.420891   -0.417962
     14          6           0        2.471009    0.193034   -1.504996
     15          6           0        1.089739    0.304942   -1.535947
     16          7           0        4.505483   -0.490250   -0.321948
     17          6           0        2.882258   -1.601458    1.807740
     18          1           0        0.717299    2.750617   -0.416328
     19          1           0        1.087259    3.640830    1.059380
     20          1           0       -0.179888    4.230346   -0.028874
     21          1           0       -0.294654    1.606090    1.580049
     22          1           0       -1.114404    3.089405    2.035599
     23          1           0       -2.756729    1.671733    0.998311
     24          1           0       -2.457168    3.009071   -0.091954
     25          1           0       -2.662371    0.896900   -1.314662
     26          1           0       -1.089907    1.632005   -1.568452
     27          1           0       -1.121651   -1.720118    0.879499
     28          1           0       -1.979680   -0.321500    1.493543
     29          1           0       -2.297333   -1.561851   -1.816561
     30          1           0       -3.927792   -2.182865   -1.651900
     31          1           0        3.064337    0.569595   -2.335516
     32          1           0        0.600486    0.740927   -2.399626
     33          1           0        4.978470   -0.386609   -1.212512
     34          1           0        4.847792   -1.311240    0.163440
     35          1           0        3.401426   -2.531015    1.530469
     36          1           0        3.617894   -0.957007    2.306074
     37          1           0        2.091094   -1.852691    2.516204
 ---------------------------------------------------------------------

 SCF Done:  E(UB3LYP) =  -763.860455693     A.U. after   33 cycles
 SCF Done:  E(UB3LYP) =  -763.860455694     a.u. after    1 cycles

 The electronic state is 2-A.
 Alpha  occ. eigenvalues --  -19.00243 -14.24287 -14.23764 -14.21965 -14.20715
 Alpha  occ. eigenvalues --  -10.18583 -10.14073 -10.11396 -10.11362 -10.11331
 Alpha  occ. eigenvalues --  -10.11200 -10.08632 -10.08269 -10.08042 -10.08036
 Alpha  occ. eigenvalues --  -10.07449 -10.07085  -0.95130  -0.88007  -0.83602
 Alpha  occ. eigenvalues --   -0.81662  -0.80295  -0.70961  -0.70077  -0.67196
 Alpha  occ. eigenvalues --   -0.64906  -0.62627  -0.59048  -0.56301  -0.52696
 Alpha  occ. eigenvalues --   -0.50991  -0.49933  -0.47487  -0.45416  -0.44426
 Alpha  occ. eigenvalues --   -0.42815  -0.41055  -0.39768  -0.38425  -0.36905
 Alpha  occ. eigenvalues --   -0.36137  -0.34928  -0.34259  -0.34117  -0.33546
 Alpha  occ. eigenvalues --   -0.33022  -0.31448  -0.31312  -0.30443  -0.29662
 Alpha  occ. eigenvalues --   -0.29391  -0.28961  -0.28283  -0.27836  -0.25245
 Alpha  occ. eigenvalues --   -0.25106  -0.24430  -0.23762  -0.18822  -0.18429
 Alpha  occ. eigenvalues --   -0.17620  -0.16832  -0.16280  -0.09768   0.03707
 Alpha virt. eigenvalues --    0.05329   0.06413   0.06720   0.06789   0.07980
 Alpha virt. eigenvalues --    0.08222   0.08807   0.09371   0.09450   0.10080
 Alpha virt. eigenvalues --    0.10388   0.10772   0.10991   0.11221   0.11647

  Beta  occ. eigenvalues --  -19.00240 -14.24252 -14.23765 -14.21904 -14.20712
  Beta  occ. eigenvalues --  -10.18581 -10.14070 -10.11393 -10.11346 -10.11329
  Beta  occ. eigenvalues --  -10.11195 -10.08609 -10.08263 -10.08039 -10.08023
  Beta  occ. eigenvalues --  -10.07425 -10.07074  -0.95121  -0.88000  -0.83573
  Beta  occ. eigenvalues --   -0.81609  -0.80247  -0.70948  -0.70047  -0.67156
  Beta  occ. eigenvalues --   -0.64887  -0.62602  -0.59009  -0.56268  -0.52646
  Beta  occ. eigenvalues --   -0.50961  -0.49883  -0.47454  -0.45383  -0.44398
  Beta  occ. eigenvalues --   -0.42777  -0.40982  -0.39742  -0.38401  -0.36883
  Beta  occ. eigenvalues --   -0.36096  -0.34915  -0.34230  -0.34100  -0.33517
  Beta  occ. eigenvalues --   -0.32991  -0.31432  -0.31286  -0.30417  -0.29645
  Beta  occ. eigenvalues --   -0.29367  -0.28939  -0.28253  -0.27822  -0.25225
  Beta  occ. eigenvalues --   -0.25096  -0.24417  -0.23734  -0.18794  -0.18418
  Beta  occ. eigenvalues --   -0.17601  -0.16816  -0.16256  -0.09740
  Beta virt. eigenvalues --    0.05853   0.06548   0.06706   0.06817   0.07487
  Beta virt. eigenvalues --    0.08431   0.08598   0.09016   0.09455   0.09648
  Beta virt. eigenvalues --    0.10287   0.10506   0.10957   0.11394   0.11530

 Mulliken charges and spin densities:
               1          2
     1  C   -0.304438  -0.322573
     2  C   -0.281404   0.190485
     3  C    0.025133  -0.455500
     4  C   -0.106771  -0.034930
     5  N    0.316355   0.013375
     6  C   -0.103266  -0.175553
     7  C    0.242165  -0.163648
     8  O   -0.354273   0.013004
     9  N   -0.383709  -0.023889
    10  C    0.286564  -1.060724
    11  N   -0.000177   0.085564
    12  C   -1.586595   1.682949
    13  C    0.297706  -0.703264
    14  C    0.244636  -0.256491
    15  C    0.446093  -0.503820
    16  N   -0.287271  -0.034254
    17  C    1.505424  -1.929813
    18  H    0.227394  -0.066153
    19  H    0.067258   0.065906
    20  H   -0.007217   0.132859
    21  H    0.166504  -0.019222
    22  H    0.102653   0.067944
    23  H    0.164559   0.000898
    24  H    0.028580   0.123445
    25  H   -0.179042   0.332595
    26  H   -0.067749   0.213438
    27  H    0.180055   0.036789
    28  H    0.174438   0.024964
    29  H    0.091015   0.212020
    30  H    0.025835   0.284383
    31  H   -0.833951   1.029414
    32  H   -0.518180   0.681801
    33  H   -0.278909   0.530458
    34  H   -0.235171   0.483494
    35  H   -0.168656   0.337158
    36  H   -0.013651   0.182817
    37  H    0.118060   0.024074
 Sum of Mulliken charges =  -1.00000   1.00000

 Dipole moment (field-independent basis, Debye):
    X=             -4.5603    Y=              2.4415    Z=              3.2907  Tot=              6.1307
 Quadrupole moment (field-independent basis, Debye-Ang):
   XX=           -208.0647   YY=           -141.7096   ZZ=           -145.8202
   XY=             -1.9019   XZ=             12.5054   YZ=              4.5308

 Summary of Natural Population Analysis:

                                       Natural Population
                Natural  -----------------------------------------------
    Atom  No    Charge         Core      Valence    Rydberg      Total
 -----------------------------------------------------------------------
      C    1   -0.28760      0.99966     2.28367    0.00427     3.28760
      C    2   -0.19630      0.99963     2.19004    0.00663     3.19630
      C    3   -0.19872      0.99962     2.19106    0.00804     3.19872
      C    4   -0.08398      0.99959     2.07274    0.01164     3.08398
      N    5   -0.27752      0.99967     2.76331    0.01454     3.77752
      C    6   -0.13297      0.99956     2.12162    0.01179     3.13297
      C    7    0.33334      0.99970     1.64318    0.02378     2.66666
      O    8   -0.32378      0.99988     3.31795    0.00595     4.32378
      N    9   -0.40422      0.99970     2.89718    0.00734     3.90422
      C   10    0.19349      0.99949     1.79087    0.01615     2.80651
      N   11   -0.26211      0.99964     2.75277    0.00971     3.76211
      C   12    0.09449      0.99951     1.89219    0.01381     2.90551
      C   13    0.05494      0.99943     1.93361    0.01203     2.94506
      C   14   -0.09114      0.99952     2.08105    0.01057     3.09114
      C   15   -0.13120      0.99951     2.12168    0.01001     3.13120
      N   16   -0.39757      0.99972     2.88712    0.01072     3.89757
      C   17   -0.30293      0.99964     2.29701    0.00629     3.30293
      H   18    0.10305      0.00000     0.39581    0.00113     0.39695
      H   19    0.09895      0.00000     0.40024    0.00081     0.40105
      H   20    0.09218      0.00000     0.40689    0.00093     0.40782
      H   21    0.10232      0.00000     0.39618    0.00150     0.39768
      H   22    0.09326      0.00000     0.40584    0.00090     0.40674
      H   23    0.09905      0.00000     0.39996    0.00100     0.40095
      H   24    0.09718      0.00000     0.40184    0.00098     0.40282
      H   25    0.09702      0.00000     0.40144    0.00154     0.40298
      H   26    0.10064      0.00000     0.39772    0.00164     0.39936
      H   27    0.12671      0.00000     0.37204    0.00126     0.37329
      H   28    0.10039      0.00000     0.39839    0.00122     0.39961
      H   29    0.20317      0.00000     0.29429    0.00254     0.29683
      H   30    0.19560      0.00000     0.30244    0.00196     0.30440
      H   31    0.10421      0.00000     0.39393    0.00187     0.39579
      H   32    0.10623      0.00000     0.39197    0.00180     0.39377
      H   33    0.18832      0.00000     0.30535    0.00633     0.31168
      H   34    0.18801      0.00000     0.30805    0.00394     0.31199
      H   35    0.10268      0.00000     0.39602    0.00130     0.39732
      H   36    0.10531      0.00000     0.39360    0.00109     0.39469
      H   37    0.10950      0.00000     0.38952    0.00098     0.39050
 =======================================================================
   * Total *   -0.00000     16.99346    46.78855    0.21799    64.00000

 Normal termination of Gaussian 16 at Fri Dec 11 14:34:12 2020.
