 Gaussian 16, Revision A.03,

 -----------------------------------------------------------
 # opt freq B3LYP/6-31G(d) empiricaldispersion=gd3bj scf=xqc
 -----------------------------------------------------------

 ------------------------------
 CID_143102917_JID_488_neutraal
 ------------------------------
 Symbolic Z-matrix:
 Charge =  0 Multiplicity = 1

 SCF Done:  E(RB3LYP) =  -424.182548806     A.U. after   14 cycles
 SCF Done:  E(RB3LYP) =  -424.185131530     A.U. after   12 cycles
 SCF Done:  E(RB3LYP) =  -424.185052616     A.U. after   12 cycles
 SCF Done:  E(RB3LYP) =  -424.185366286     A.U. after   12 cycles
 SCF Done:  E(RB3LYP) =  -424.185400287     A.U. after   11 cycles
 SCF Done:  E(RB3LYP) =  -424.185408225     A.U. after    9 cycles
 SCF Done:  E(RB3LYP) =  -424.185409509     A.U. after    9 cycles
 SCF Done:  E(RB3LYP) =  -424.185409802     A.U. after    8 cycles
 Optimization completed.
    -- Stationary point found.

 1\1\GINC-NODE225\FOpt\RB3LYP\6-31G(d)\C9H10O1\VSC10255\08-Dec-2020\0\\
 # opt freq B3LYP/6-31G(d) empiricaldispersion=gd3bj scf=xqc\\CID_14310
 2917_JID_488_neutraal\\0,1\C,1.0371766376,0.019493192,0.0775925176\C,0
 .4219325359,0.5919359652,1.1273187656\C,-1.0149822952,0.6392618506,1.2
 601248778\C,-1.7357396065,1.2662606831,2.2230637442\C,-1.3419285431,2.
 1192592432,3.3529630199\C,-0.2504409346,2.8879690974,3.4713370997\C,-2
 .4840214771,2.0900559744,4.3642710992\C,-3.7409945935,1.8033217551,3.5
 203299993\C,-3.2177198765,1.0710945454,2.2830782587\O,-3.891020083,0.4

 Normal termination of Gaussian 16 at Tue Dec  8 10:58:58 2020.

 --------------------------------------------------------------------
 #N Geom=AllCheck Guess=TCheck SCRF=Check GenChk RB3LYP/6-31G(d) Freq
 --------------------------------------------------------------------

 Structure from the checkpoint file:  "JID_488.chk"
 ------------------------------
 CID_143102917_JID_488_neutraal
 ------------------------------
 Charge =  0 Multiplicity = 1

 SCF Done:  E(RB3LYP) =  -424.185409802     A.U. after    1 cycles

  Exact polarizability: 160.777  -9.166 107.737  -0.051  -2.793  47.854
 Approx polarizability: 248.091 -17.592 174.398   1.559  -7.273  73.045

                      1                      2                      3
                      A                      A                      A
 Frequencies --     69.0718               105.6893               135.5390
 Red. masses --      3.5751                 3.1602                 2.2026
 Frc consts  --      0.0100                 0.0208                 0.0238
 IR Inten    --      2.6086                 0.2660                 2.0040

                      4                      5                      6
                      A                      A                      A
 Frequencies --    154.7292               216.2775               293.9489
 Red. masses --      3.6448                 2.2405                 2.8483
 Frc consts  --      0.0514                 0.0617                 0.1450
 IR Inten    --      0.0432                 1.1039                 0.4372

                      7                      8                      9
                      A                      A                      A
 Frequencies --    318.3231               344.2300               412.5868
 Red. masses --      3.2791                 4.2758                 2.8126
 Frc consts  --      0.1958                 0.2985                 0.2821
 IR Inten    --      0.4899                 5.8994                 7.0165

                     10                     11                     12
                      A                      A                      A
 Frequencies --    506.4415               550.2975               559.2047
 Red. masses --      2.7927                 3.1116                 2.2424
 Frc consts  --      0.4220                 0.5552                 0.4131
 IR Inten    --      6.0259                 2.6609                 6.0044

                     13                     14                     15
                      A                      A                      A
 Frequencies --    610.7979               670.2947               697.1099
 Red. masses --      5.8731                 1.2736                 3.2118
 Frc consts  --      1.2909                 0.3371                 0.9196
 IR Inten    --      4.5314                 4.6782                13.4287

                     16                     17                     18
                      A                      A                      A
 Frequencies --    753.6660               759.3594               830.8448
 Red. masses --      1.5662                 3.0175                 1.7233
 Frc consts  --      0.5242                 1.0251                 0.7009
 IR Inten    --      2.9006                 2.2312                 3.0709

                     19                     20                     21
                      A                      A                      A
 Frequencies --    911.5836               929.2842               944.2763
 Red. masses --      1.3669                 1.7982                 1.3393
 Frc consts  --      0.6692                 0.9149                 0.7036
 IR Inten    --     43.5744                 9.8370                13.5884

                     22                     23                     24
                      A                      A                      A
 Frequencies --    959.8425               961.7246              1000.6999
 Red. masses --      2.6475                 1.5484                 2.0691
 Frc consts  --      1.4371                 0.8438                 1.2208
 IR Inten    --      7.4145                22.2562                 0.1845

                     25                     26                     27
                      A                      A                      A
 Frequencies --   1019.0887              1037.0024              1056.6523
 Red. masses --      1.8471                 1.5697                 1.2873
 Frc consts  --      1.1302                 0.9945                 0.8468
 IR Inten    --      1.6163                 4.7920                11.7959

                     28                     29                     30
                      A                      A                      A
 Frequencies --   1162.2408              1182.6831              1212.7945
 Red. masses --      1.2329                 3.2623                 2.4981
 Frc consts  --      0.9812                 2.6885                 2.1649
 IR Inten    --      0.9582               153.3821                36.7246

                     31                     32                     33
                      A                      A                      A
 Frequencies --   1239.5865              1270.1681              1305.2015
 Red. masses --      2.0373                 1.5425                 1.3835
 Frc consts  --      1.8445                 1.4662                 1.3886
 IR Inten    --     15.4021                12.5298                 0.1281

                     34                     35                     36
                      A                      A                      A
 Frequencies --   1331.5915              1336.4863              1372.2524
 Red. masses --      1.4758                 1.4023                 1.6056
 Frc consts  --      1.5417                 1.4758                 1.7814
 IR Inten    --      9.6002                 9.1888                 5.4311

                     37                     38                     39
                      A                      A                      A
 Frequencies --   1471.2689              1484.5982              1486.9097
 Red. masses --      1.2481                 1.0829                 1.3211
 Frc consts  --      1.5918                 1.4062                 1.7209
 IR Inten    --      1.3449                 5.1831                 5.3412

                     40                     41                     42
                      A                      A                      A
 Frequencies --   1517.4782              1660.0671              1691.0680
 Red. masses --      1.0977                 5.9710                 4.4447
 Frc consts  --      1.4893                 9.6949                 7.4888
 IR Inten    --      4.8876               115.4422                39.0789

                     43                     44                     45
                      A                      A                      A
 Frequencies --   1712.9274              1817.2962              3044.7474
 Red. masses --      5.4236                11.8046                 1.0701
 Frc consts  --      9.3760                22.9695                 5.8449
 IR Inten    --     52.1482               159.8239                19.7471

                     46                     47                     48
                      A                      A                      A
 Frequencies --   3054.5895              3115.5315              3130.2745
 Red. masses --      1.0670                 1.0953                 1.0965
 Frc consts  --      5.8657                 6.2639                 6.3301
 IR Inten    --     16.0083                23.6121                15.1694

                     49                     50                     51
                      A                      A                      A
 Frequencies --   3156.8347              3167.8967              3171.2619
 Red. masses --      1.0868                 1.0593                 1.0609
 Frc consts  --      6.3810                 6.2633                 6.2863
 IR Inten    --      0.6019                 6.1712                 7.4934

                     52                     53                     54
                      A                      A                      A
 Frequencies --   3196.7489              3253.8839              3255.9211
 Red. masses --      1.0903                 1.1160                 1.1143
 Frc consts  --      6.5648                 6.9620                 6.9600
 IR Inten    --      5.8843                10.8477                11.0701

 - Thermochemistry -
 -------------------
 Temperature   298.150 Kelvin.  Pressure   1.00000 Atm.
 Atom     1 has atomic number  6 and mass  12.00000

 Molecular mass:   134.07317 amu.
 Principal axes and moments of inertia in atomic units:
                           1         2         3
     Eigenvalues --   882.336251787.654712599.97197
           X            0.99969  -0.02472  -0.00280
           Y            0.02472   0.99969  -0.00263
           Z            0.00286   0.00256   0.99999
 This molecule is an asymmetric top.
 Rotational symmetry number  1.
 Warning -- assumption of classical behavior for rotation
           may cause significant error
 Rotational temperatures (Kelvin)      0.09816     0.04845     0.03331
 Rotational constants (GHZ):           2.04541     1.00956     0.69414
 Zero-point vibrational energy     434309.5 (Joules/Mol)
                                  103.80246 (Kcal/Mol)
 Warning -- explicit consideration of  13 degrees of freedom as
           vibrations may cause significant error
 Vibrational temperatures:     99.38   152.06   195.01   222.62   311.18
          (Kelvin)            422.93   458.00   495.27   593.62   728.66
                              791.76   804.57   878.80   964.40  1002.99
                             1084.36  1092.55  1195.40  1311.57  1337.03
                             1358.60  1381.00  1383.71  1439.78  1466.24
                             1492.02  1520.29  1672.21  1701.62  1744.94
                             1783.49  1827.49  1877.89  1915.86  1922.91
                             1974.37  2116.83  2136.01  2139.33  2183.31
                             2388.47  2433.07  2464.52  2614.68  4380.71
                             4394.87  4482.55  4503.77  4541.98  4557.90
                             4562.74  4599.41  4681.61  4684.54

 Zero-point correction=                           0.165420 (Hartree/Particle)
 Thermal correction to Energy=                    0.174853
 Thermal correction to Enthalpy=                  0.175797
 Thermal correction to Gibbs Free Energy=         0.130649
 Sum of electronic and zero-point Energies=           -424.019990
 Sum of electronic and thermal Energies=              -424.010557
 Sum of electronic and thermal Enthalpies=            -424.009613
 Sum of electronic and thermal Free Energies=         -424.054761

                     E (Thermal)             CV                S
                      KCal/Mol        Cal/Mol-Kelvin    Cal/Mol-Kelvin
 Total                  109.722             35.725             95.023
 Electronic               0.000              0.000              0.000
 Translational            0.889              2.981             40.592
 Rotational               0.889              2.981             29.796
 Vibrational            107.944             29.763             24.635
 Vibration     1          0.598              1.969              4.180
 Vibration     2          0.605              1.945              3.347
 Vibration     3          0.613              1.918              2.866
 Vibration     4          0.620              1.897              2.613
 Vibration     5          0.645              1.816              1.990
 Vibration     6          0.689              1.685              1.451
 Vibration     7          0.705              1.639              1.319
 Vibration     8          0.723              1.587              1.192
 Vibration     9          0.776              1.443              0.918
 Vibration    10          0.862              1.236              0.642
 Vibration    11          0.906              1.139              0.544
 Vibration    12          0.915              1.120              0.525
 Vibration    13          0.970              1.009              0.431

                           ! Non-Optimized Parameters !

 1\1\GINC-NODE225\Freq\RB3LYP\6-31G(d)\C9H10O1\VSC10255\08-Dec-2020\0\\
 #N Geom=AllCheck Guess=TCheck SCRF=Check GenChk RB3LYP/6-31G(d) Freq\\
 CID_143102917_JID_488_neutraal\\0,1\C,1.0371766376,0.019493192,0.07759
 25176\C,0.4219325359,0.5919359652,1.1273187656\C,-1.0149822952,0.63926
 18506,1.2601248778\C,-1.7357396065,1.2662606831,2.2230637442\C,-1.3419
 285431,2.1192592432,3.3529630199\C,-0.2504409346,2.8879690974,3.471337
 0997\C,-2.4840214771,2.0900559744,4.3642710992\C,-3.7409945935,1.80332
 17551,3.5203299993\C,-3.2177198765,1.0710945454,2.2830782587\O,-3.8910

 Normal termination of Gaussian 16 at Tue Dec  8 11:02:18 2020.

 ----------------------------------------------------------------------
 # B3LYP/6-311++G(d,p) empiricaldispersion=gd3bj scf=xqc pop=npa geom=c
 heck
 ----------------------------------------------------------------------

 --------------------------------------
 CID_143102917_JID_488_Energie_neutraal
 --------------------------------------
 Structure from the checkpoint file:  "JID_488.chk"
 Charge =  0 Multiplicity = 1

 SCF Done:  E(RB3LYP) =  -424.303834901     A.U. after   14 cycles
 Normal termination of Gaussian 16 at Tue Dec  8 11:06:10 2020.

 ----------------------------------------------------------------------
 # B3LYP/6-311++G(d,p) empiricaldispersion=gd3bj scf=xqc pop=npa geom=c
 heck
 ----------------------------------------------------------------------

 ------------------------------------
 CID_143102917_JID_488_Energie_kation
 ------------------------------------
 Structure from the checkpoint file:  "JID_488.chk"
 Charge =  1 Multiplicity = 2

 SCF Done:  E(UB3LYP) =  -424.001462313     A.U. after   23 cycles
 Normal termination of Gaussian 16 at Tue Dec  8 11:10:51 2020.
 Gaussian 16:  ES64L-G16RevA.03 25-Dec-2016

 -----------------------------------
 CID_143102917_JID_488_Energie_anion
 -----------------------------------
 Structure from the checkpoint file:  "JID_488.chk"
 Charge = -1 Multiplicity = 2

                         Standard orientation:
 ---------------------------------------------------------------------
 Center     Atomic      Atomic             Coordinates (Angstroms)
 Number     Number       Type             X           Y           Z
 ---------------------------------------------------------------------
      1          6           0        3.695850   -0.314208    0.096626
      2          6           0        2.457363    0.205173    0.163963
      3          6           0        1.265684   -0.591118   -0.010456
      4          6           0       -0.018934   -0.157759   -0.053181
      5          6           0       -0.608851    1.187470   -0.011649
      6          6           0       -0.056276    2.347905   -0.391551
      7          6           0       -2.060077    1.033889    0.433690
      8          6           0       -2.456128   -0.384421   -0.020156
      9          6           0       -1.135020   -1.153434   -0.083851
     10          8           0       -1.015591   -2.362891   -0.148984
     11          1           0        3.856674   -1.367199   -0.121821
     12          1           0        4.580612    0.295714    0.250370
     13          1           0        2.331846    1.262185    0.382892
     14          1           0        1.397216   -1.671589   -0.075948
     15          1           0       -0.624395    3.273548   -0.354818
     16          1           0        0.954651    2.413146   -0.778519
     17          1           0       -2.701941    1.818965    0.024899
     18          1           0       -2.116291    1.099881    1.528477
     19          1           0       -2.881046   -0.370164   -1.032878
     20          1           0       -3.174267   -0.892342    0.628611
 ---------------------------------------------------------------------

 SCF Done:  E(UB3LYP) =  -424.338525161     A.U. after   22 cycles

 The electronic state is 2-A.
 Alpha  occ. eigenvalues --  -18.93162 -10.07609 -10.04190 -10.03470 -10.03386
 Alpha  occ. eigenvalues --  -10.01903 -10.00667 -10.00651 -10.00115 -10.00043
 Alpha  occ. eigenvalues --   -0.86843  -0.69861  -0.64309  -0.59880  -0.57684
 Alpha  occ. eigenvalues --   -0.50412  -0.48808  -0.41739  -0.38437  -0.36168
 Alpha  occ. eigenvalues --   -0.33479  -0.31774  -0.29557  -0.29014  -0.26861
 Alpha  occ. eigenvalues --   -0.25389  -0.24441  -0.23884  -0.22558  -0.21785
 Alpha  occ. eigenvalues --   -0.20700  -0.17959  -0.17064  -0.13407  -0.08519
 Alpha  occ. eigenvalues --   -0.07332   0.02631
 Alpha virt. eigenvalues --    0.09294   0.10078   0.10891   0.11560   0.12420
 Alpha virt. eigenvalues --    0.12670   0.13075   0.14079   0.14957   0.15053
 Alpha virt. eigenvalues --    0.15586   0.15951   0.17742   0.18550   0.19399

  Beta  occ. eigenvalues --  -18.92907 -10.07442 -10.04190 -10.03469 -10.03408
  Beta  occ. eigenvalues --  -10.02004 -10.00494 -10.00211 -10.00031  -9.99625
  Beta  occ. eigenvalues --   -0.86369  -0.69580  -0.63736  -0.59658  -0.57166
  Beta  occ. eigenvalues --   -0.50150  -0.47964  -0.41366  -0.38075  -0.35916
  Beta  occ. eigenvalues --   -0.33266  -0.31563  -0.29296  -0.28785  -0.26633
  Beta  occ. eigenvalues --   -0.25038  -0.24240  -0.23612  -0.22390  -0.21211
  Beta  occ. eigenvalues --   -0.19972  -0.17726  -0.15591  -0.12386  -0.08198
  Beta  occ. eigenvalues --   -0.05377
  Beta virt. eigenvalues --    0.08625   0.09277   0.10049   0.10848   0.11709
  Beta virt. eigenvalues --    0.12400   0.12630   0.13387   0.14085   0.14999
  Beta virt. eigenvalues --    0.15284   0.16199   0.16375   0.17895   0.18661

 Mulliken charges and spin densities:
               1          2
     1  C   -0.692027   0.419698
     2  C    0.156965  -0.127155
     3  C   -0.207955   0.379213
     4  C    1.254895   0.012688
     5  C    0.016080  -0.029891
     6  C   -0.859097   0.166894
     7  C   -0.682838   0.012230
     8  C   -0.106895  -0.006555
     9  C   -0.472378   0.082095
    10  O   -0.398970   0.097823
    11  H    0.073115  -0.019037
    12  H    0.096452  -0.019735
    13  H    0.088527   0.001047
    14  H    0.129136  -0.019744
    15  H    0.086626  -0.009658
    16  H    0.088873  -0.006452
    17  H    0.082731   0.024533
    18  H    0.129530   0.001162
    19  H    0.101451   0.031214
    20  H    0.115780   0.009629
 Sum of Mulliken charges =  -1.00000   1.00000

 Dipole moment (field-independent basis, Debye):
    X=             -2.3639    Y=              2.9142    Z=              0.5482  Tot=              3.7922
 Quadrupole moment (field-independent basis, Debye-Ang):
   XX=            -85.4290   YY=            -84.5208   ZZ=            -69.2974
   XY=             -3.0724   XZ=             -1.5270   YZ=              0.2742

 Summary of Natural Population Analysis:

                                       Natural Population
                Natural  -----------------------------------------------
    Atom  No    Charge         Core      Valence    Rydberg      Total
 -----------------------------------------------------------------------
      C    1   -0.08044      0.99960     2.07289    0.00794     3.08044
      C    2   -0.14243      0.99957     2.13376    0.00910     3.14243
      C    3    0.03524      0.99949     1.95600    0.00927     2.96476
      C    4   -0.09651      0.99943     2.08543    0.01165     3.09651
      C    5   -0.00650      0.99953     1.99797    0.00900     3.00650
      C    6   -0.19094      0.99952     2.18329    0.00813     3.19094
      C    7   -0.19534      0.99962     2.18921    0.00652     3.19534
      C    8   -0.23044      0.99961     2.22388    0.00694     3.23044
      C    9    0.30148      0.99961     1.67746    0.02144     2.69852
      O   10   -0.29128      0.99987     3.28380    0.00761     4.29128
      H   11    0.07791      0.00000     0.42088    0.00121     0.42209
      H   12    0.07627      0.00000     0.42267    0.00107     0.42373
      H   13    0.09130      0.00000     0.40680    0.00190     0.40870
      H   14    0.09273      0.00000     0.40512    0.00216     0.40727
      H   15    0.08080      0.00000     0.41792    0.00128     0.41920
      H   16    0.09111      0.00000     0.40787    0.00102     0.40889
      H   17    0.09171      0.00000     0.40632    0.00198     0.40829
      H   18    0.09489      0.00000     0.40385    0.00126     0.40511
      H   19    0.10099      0.00000     0.39648    0.00254     0.39901
      H   20    0.09944      0.00000     0.39928    0.00128     0.40056
 =======================================================================
   * Total *    0.00000      9.99585    25.89086    0.11329    36.00000

 Normal termination of Gaussian 16 at Tue Dec  8 11:16:48 2020.
