 Gaussian 16, Revision A.03,

 -----------------------------------------------------------
 # opt freq B3LYP/6-31G(d) empiricaldispersion=gd3bj scf=xqc
 -----------------------------------------------------------

 ------------------------------
 CID_63559806_JID_8994_neutraal
 ------------------------------
 Symbolic Z-matrix:
 Charge =  0 Multiplicity = 1

 SCF Done:  E(RB3LYP) =  -747.392833620     A.U. after   14 cycles
 SCF Done:  E(RB3LYP) =  -747.398261038     A.U. after   12 cycles
 SCF Done:  E(RB3LYP) =  -747.399986862     A.U. after   12 cycles
 SCF Done:  E(RB3LYP) =  -747.400890029     A.U. after   12 cycles
 SCF Done:  E(RB3LYP) =  -747.401493268     A.U. after   12 cycles
 SCF Done:  E(RB3LYP) =  -747.401832691     A.U. after   11 cycles
 SCF Done:  E(RB3LYP) =  -747.402116443     A.U. after   11 cycles
 SCF Done:  E(RB3LYP) =  -747.402205326     A.U. after   11 cycles
 SCF Done:  E(RB3LYP) =  -747.402246166     A.U. after   10 cycles
 SCF Done:  E(RB3LYP) =  -747.402256829     A.U. after    9 cycles
 SCF Done:  E(RB3LYP) =  -747.402270174     A.U. after    9 cycles
 SCF Done:  E(RB3LYP) =  -747.402270667     A.U. after    8 cycles
 SCF Done:  E(RB3LYP) =  -747.402270975     A.U. after    8 cycles
 SCF Done:  E(RB3LYP) =  -747.402271102     A.U. after    7 cycles
 SCF Done:  E(RB3LYP) =  -747.402271141     A.U. after    7 cycles
 Optimization completed.
    -- Stationary point found.
 Normal termination of Gaussian 16 at Fri Dec 11 23:21:34 2020.

 --------------------------------------------------------------------
 #N Geom=AllCheck Guess=TCheck SCRF=Check GenChk RB3LYP/6-31G(d) Freq
 --------------------------------------------------------------------

 Structure from the checkpoint file:  "JID_8994.chk"
 ------------------------------
 CID_63559806_JID_8994_neutraal
 ------------------------------
 Charge =  0 Multiplicity = 1

 SCF Done:  E(RB3LYP) =  -747.402271141     A.U. after    1 cycles

  Exact polarizability: 254.412  -1.958 202.231   6.361  13.759  95.748
 Approx polarizability: 360.649  -9.097 316.256  11.496  32.027 148.252

                      1                      2                      3
                      A                      A                      A
 Frequencies --     19.6409                39.3454                67.6249
 Red. masses --      3.5983                 2.7040                 3.1644
 Frc consts  --      0.0008                 0.0025                 0.0085
 IR Inten    --      0.0813                 0.0756                 0.3062

                      4                      5                      6
                      A                      A                      A
 Frequencies --     73.2696               102.7911               126.6685
 Red. masses --      3.7880                 3.3894                 1.2678
 Frc consts  --      0.0120                 0.0211                 0.0120
 IR Inten    --      3.5003                 1.3167                 1.4717

                      7                      8                      9
                      A                      A                      A
 Frequencies --    139.7509               149.5458               159.4203
 Red. masses --      1.9937                 3.2548                 1.3252
 Frc consts  --      0.0229                 0.0429                 0.0198
 IR Inten    --      2.0484                 0.2168                 8.3235

                     10                     11                     12
                      A                      A                      A
 Frequencies --    196.0979               203.5436               217.7487
 Red. masses --      2.2835                 2.4336                 1.1187
 Frc consts  --      0.0517                 0.0594                 0.0313
 IR Inten    --      2.4231                 1.0637                 0.3543

                     13                     14                     15
                      A                      A                      A
 Frequencies --    233.3648               250.0281               285.7247
 Red. masses --      1.2701                 4.1170                 3.7707
 Frc consts  --      0.0408                 0.1516                 0.1814
 IR Inten    --      0.5948                 1.1921                 8.5969

                     16                     17                     18
                      A                      A                      A
 Frequencies --    302.0442               305.8437               325.1022
 Red. masses --      3.2351                 3.6572                 2.1431
 Frc consts  --      0.1739                 0.2016                 0.1335
 IR Inten    --      5.5787                 1.4832                53.5990

                     19                     20                     21
                      A                      A                      A
 Frequencies --    348.7962               380.3129               414.0058
 Red. masses --      3.2865                 1.9943                 2.1403
 Frc consts  --      0.2356                 0.1699                 0.2161
 IR Inten    --      0.9969                22.1782                20.3766

                     22                     23                     24
                      A                      A                      A
 Frequencies --    450.9026               467.7285               517.9198
 Red. masses --      3.2216                 3.0925                 3.9376
 Frc consts  --      0.3859                 0.3986                 0.6223
 IR Inten    --      7.2415                 0.5447                 1.2967

                     25                     26                     27
                      A                      A                      A
 Frequencies --    538.7689               553.7851               560.7973
 Red. masses --      4.0253                 5.0616                 5.0312
 Frc consts  --      0.6884                 0.9146                 0.9323
 IR Inten    --      7.7399                 1.6333                 3.6280

                     28                     29                     30
                      A                      A                      A
 Frequencies --    621.6898               675.0914               695.4937
 Red. masses --      4.0215                 4.9896                 5.7909
 Frc consts  --      0.9158                 1.3398                 1.6504
 IR Inten    --      1.7663                 6.2612                 4.0431

                     31                     32                     33
                      A                      A                      A
 Frequencies --    703.7931               746.1432               762.5292
 Red. masses --      5.3355                 1.8207                 3.8375
 Frc consts  --      1.5571                 0.5972                 1.3146
 IR Inten    --      1.0525                17.0209                 2.0355

                     34                     35                     36
                      A                      A                      A
 Frequencies --    783.2639               812.7095               821.0399
 Red. masses --      2.1530                 1.3556                 3.5738
 Frc consts  --      0.7782                 0.5275                 1.4194
 IR Inten    --     30.0351                 1.5589                 2.0105

                     37                     38                     39
                      A                      A                      A
 Frequencies --    830.3048               886.6847               899.4871
 Red. masses --      5.3526                 1.3642                 3.2480
 Frc consts  --      2.1741                 0.6319                 1.5483
 IR Inten    --      4.2570                 0.0648                 7.6421

                     40                     41                     42
                      A                      A                      A
 Frequencies --    945.7496               959.9634               988.2400
 Red. masses --      3.7197                 1.3689                 1.2806
 Frc consts  --      1.9602                 0.7432                 0.7368
 IR Inten    --     12.3718                 0.7447                 0.5576

                     43                     44                     45
                      A                      A                      A
 Frequencies --    994.9490              1027.6453              1054.4732
 Red. masses --      2.1444                 1.5734                 1.8439
 Frc consts  --      1.2507                 0.9790                 1.2080
 IR Inten    --      8.5578                 0.6738                17.5386

                     46                     47                     48
                      A                      A                      A
 Frequencies --   1067.1151              1076.9139              1078.0839
 Red. masses --      1.4674                 1.6010                 2.2412
 Frc consts  --      0.9845                 1.0939                 1.5347
 IR Inten    --      0.5449                 3.5752                 1.6487

                     49                     50                     51
                      A                      A                      A
 Frequencies --   1091.1386              1093.9207              1116.5846
 Red. masses --      2.0938                 2.0119                 2.2356
 Frc consts  --      1.4687                 1.4185                 1.6422
 IR Inten    --      3.7867                26.5139                 5.6627

                     52                     53                     54
                      A                      A                      A
 Frequencies --   1159.6478              1166.8058              1184.4662
 Red. masses --      1.3876                 1.4826                 2.9797
 Frc consts  --      1.0995                 1.1893                 2.4631
 IR Inten    --      3.9555                 6.8915                24.3464

                     55                     56                     57
                      A                      A                      A
 Frequencies --   1197.8705              1199.9916              1230.0361
 Red. masses --      1.1048                 2.1351                 2.7143
 Frc consts  --      0.9340                 1.8114                 2.4196
 IR Inten    --      3.2208                 2.7393                 6.5359

                     58                     59                     60
                      A                      A                      A
 Frequencies --   1237.5062              1283.9455              1312.4156
 Red. masses --      3.3428                 2.0384                 1.6677
 Frc consts  --      3.0162                 1.9798                 1.6924
 IR Inten    --     12.1322                 3.9999                 0.9776

                     61                     62                     63
                      A                      A                      A
 Frequencies --   1317.0789              1348.4106              1360.4434
 Red. masses --      1.8196                 7.1761                 1.5380
 Frc consts  --      1.8598                 7.6875                 1.6772
 IR Inten    --     12.1728                 0.7048                 1.2161

                     64                     65                     66
                      A                      A                      A
 Frequencies --   1412.0291              1425.6239              1431.7976
 Red. masses --      2.7442                 2.4562                 2.0005
 Frc consts  --      3.2237                 2.9412                 2.4163
 IR Inten    --      5.3497               137.0943                99.8106

                     67                     68                     69
                      A                      A                      A
 Frequencies --   1436.2439              1447.3926              1452.4978
 Red. masses --      1.5852                 1.2312                 1.5404
 Frc consts  --      1.9266                 1.5197                 1.9148
 IR Inten    --     11.9454                 0.8530                27.9254

                     70                     71                     72
                      A                      A                      A
 Frequencies --   1484.4006              1489.7549              1504.6533
 Red. masses --      1.3313                 1.8100                 1.0755
 Frc consts  --      1.7284                 2.3667                 1.4346
 IR Inten    --     39.0927                35.2464                22.4664

                     73                     74                     75
                      A                      A                      A
 Frequencies --   1505.7618              1511.0499              1516.4722
 Red. masses --      1.0941                 1.0787                 1.2254
 Frc consts  --      1.4616                 1.4511                 1.6604
 IR Inten    --      4.8230                 3.6522                43.9327

                     76                     77                     78
                      A                      A                      A
 Frequencies --   1521.2445              1526.4571              1530.7666
 Red. masses --      1.1267                 1.0444                 1.5455
 Frc consts  --      1.5363                 1.4338                 2.1338
 IR Inten    --      4.7583                 2.6756                 9.9839

                     79                     80                     81
                      A                      A                      A
 Frequencies --   1535.6242              1539.7923              1542.7227
 Red. masses --      1.1187                 1.6875                 1.1313
 Frc consts  --      1.5544                 2.3573                 1.5864
 IR Inten    --     21.8466                 4.2192                 1.7009

                     82                     83                     84
                      A                      A                      A
 Frequencies --   1567.9612              1622.0948              1631.6046
 Red. masses --      2.1529                 4.1903                 5.5224
 Frc consts  --      3.1185                 6.4960                 8.6618
 IR Inten    --    161.8691               293.7523               204.1980

                     85                     86                     87
                      A                      A                      A
 Frequencies --   1637.5889              1665.6910              3017.0252
 Red. masses --      5.3865                 5.7289                 1.0480
 Frc consts  --      8.5108                 9.3650                 5.6204
 IR Inten    --    128.3302                12.9227                46.0259

                     88                     89                     90
                      A                      A                      A
 Frequencies --   3045.5953              3051.0270              3059.1709
 Red. masses --      1.0430                 1.0349                 1.0382
 Frc consts  --      5.7001                 5.6760                 5.7245
 IR Inten    --     58.9860                29.2172                32.1867

                     91                     92                     93
                      A                      A                      A
 Frequencies --   3063.6032              3070.2516              3106.9629
 Red. masses --      1.0951                 1.0626                 1.1020
 Frc consts  --      6.0557                 5.9016                 6.2676
 IR Inten    --     25.2424                19.0294                 4.3255

                     94                     95                     96
                      A                      A                      A
 Frequencies --   3117.4601              3122.5408              3128.4595
 Red. masses --      1.0923                 1.1020                 1.1008
 Frc consts  --      6.2547                 6.3304                 6.3478
 IR Inten    --     29.8120                42.4942                32.1630

                     97                     98                     99
                      A                      A                      A
 Frequencies --   3132.9876              3134.9303              3153.2144
 Red. masses --      1.1038                 1.0995                 1.1053
 Frc consts  --      6.3833                 6.3665                 6.4747
 IR Inten    --     31.6968                11.6758                22.6796

                    100                    101                    102
                      A                      A                      A
 Frequencies --   3160.2629              3175.5167              3188.1860
 Red. masses --      1.0924                 1.0858                 1.0897
 Frc consts  --      6.4280                 6.4509                 6.5259
 IR Inten    --     16.1385                 6.1396                24.1452

                    103                    104                    105
                      A                      A                      A
 Frequencies --   3203.2108              3233.6787              3656.5586
 Red. masses --      1.0959                 1.0915                 1.0767
 Frc consts  --      6.6250                 6.7249                 8.4815
 IR Inten    --     43.7962                 6.2653                30.2006

 - Thermochemistry -
 -------------------
 Temperature   298.150 Kelvin.  Pressure   1.00000 Atm.
 Atom     1 has atomic number  6 and mass  12.00000

 Molecular mass:   241.15790 amu.
 Principal axes and moments of inertia in atomic units:
                           1         2         3
     Eigenvalues --  2986.881986001.869408544.30922
           X            0.99999   0.00354  -0.00345
           Y           -0.00355   0.99999  -0.00125
           Z            0.00345   0.00126   0.99999
 This molecule is an asymmetric top.
 Rotational symmetry number  1.
 Warning -- assumption of classical behavior for rotation
           may cause significant error
 Rotational temperatures (Kelvin)      0.02900     0.01443     0.01014
 Rotational constants (GHZ):           0.60422     0.30070     0.21122
 Zero-point vibrational energy     830938.5 (Joules/Mol)
                                  198.59906 (Kcal/Mol)
 Warning -- explicit consideration of  27 degrees of freedom as
           vibrations may cause significant error
 Vibrational temperatures:     28.26    56.61    97.30   105.42   147.89
          (Kelvin)            182.25   201.07   215.16   229.37   282.14
                              292.85   313.29   335.76   359.73   411.09
                              434.57   440.04   467.75   501.84   547.19
                              595.66   648.75   672.96   745.17   775.17
                              796.77   806.86   894.47   971.31  1000.66
                             1012.60  1073.53  1097.11  1126.94  1169.31
                             1181.29  1194.62  1275.74  1294.16  1360.72
                             1381.17  1421.86  1431.51  1478.55  1517.15
                             1535.34  1549.44  1551.12  1569.91  1573.91
                             1606.52  1668.47  1678.77  1704.18  1723.47
                             1726.52  1769.75  1780.50  1847.31  1888.27
                             1894.98  1940.06  1957.37  2031.59  2051.15
                             2060.04  2066.43  2082.48  2089.82  2135.72
                             2143.42  2164.86  2166.46  2174.06  2181.87
                             2188.73  2196.23  2202.43  2209.42  2215.42
                             2219.63  2255.95  2333.83  2347.52  2356.13
                             2396.56  4340.83  4381.93  4389.75  4401.46
                             4407.84  4417.41  4470.23  4485.33  4492.64
                             4501.16  4507.67  4510.47  4536.77  4546.91
                             4568.86  4587.09  4608.71  4652.54  5260.97

 Zero-point correction=                           0.316488 (Hartree/Particle)
 Thermal correction to Energy=                    0.334357
 Thermal correction to Enthalpy=                  0.335301
 Thermal correction to Gibbs Free Energy=         0.270057
 Sum of electronic and zero-point Energies=           -747.085783
 Sum of electronic and thermal Energies=              -747.067914
 Sum of electronic and thermal Enthalpies=            -747.066970
 Sum of electronic and thermal Free Energies=         -747.132215

                     E (Thermal)             CV                S
                      KCal/Mol        Cal/Mol-Kelvin    Cal/Mol-Kelvin
 Total                  209.812             67.362            137.319
 Electronic               0.000              0.000              0.000
 Translational            0.889              2.981             42.342
 Rotational               0.889              2.981             33.393
 Vibrational            208.035             61.401             61.584
 Vibration     1          0.593              1.986              6.670
 Vibration     2          0.594              1.981              5.292
 Vibration     3          0.598              1.970              4.221
 Vibration     4          0.599              1.967              4.064
 Vibration     5          0.605              1.947              3.401
 Vibration     6          0.611              1.926              2.996
 Vibration     7          0.615              1.914              2.807
 Vibration     8          0.618              1.903              2.678
 Vibration     9          0.621              1.892              2.557
 Vibration    10          0.636              1.845              2.169
 Vibration    11          0.639              1.835              2.101
 Vibration    12          0.646              1.814              1.978
 Vibration    13          0.654              1.790              1.853
 Vibration    14          0.663              1.763              1.730
 Vibration    15          0.684              1.700              1.499
 Vibration    16          0.694              1.670              1.406
 Vibration    17          0.696              1.663              1.385
 Vibration    18          0.709              1.625              1.284
 Vibration    19          0.726              1.578              1.172
 Vibration    20          0.750              1.512              1.038
 Vibration    21          0.778              1.440              0.913
 Vibration    22          0.810              1.359              0.793
 Vibration    23          0.825              1.322              0.744
 Vibration    24          0.873              1.210              0.615
 Vibration    25          0.894              1.164              0.568
 Vibration    26          0.909              1.131              0.536
 Vibration    27          0.916              1.116              0.522

 Optimization completed.
    -- Stationary point found.
 Normal termination of Gaussian 16 at Fri Dec 11 23:37:01 2020.

 ----------------------------------------------------------------------
 # B3LYP/6-311++G(d,p) empiricaldispersion=gd3bj scf=xqc pop=npa geom=c
 heck
 ----------------------------------------------------------------------

 --------------------------------------
 CID_63559806_JID_8994_Energie_neutraal
 --------------------------------------
 Structure from the checkpoint file:  "JID_8994.chk"
 Charge =  0 Multiplicity = 1

 SCF Done:  E(RB3LYP) =  -747.595721085     A.U. after   15 cycles
 Normal termination of Gaussian 16 at Fri Dec 11 23:43:04 2020.

 ----------------------------------------------------------------------
 # B3LYP/6-311++G(d,p) empiricaldispersion=gd3bj scf=xqc pop=npa geom=c
 heck
 ----------------------------------------------------------------------

 ------------------------------------
 CID_63559806_JID_8994_Energie_kation
 ------------------------------------
 Structure from the checkpoint file:  "JID_8994.chk"
 Charge =  1 Multiplicity = 2

 SCF Done:  E(UB3LYP) =  -747.320071606     A.U. after   26 cycles
 Normal termination of Gaussian 16 at Fri Dec 11 23:57:04 2020.
 Gaussian 16:  ES64L-G16RevA.03 25-Dec-2016

 ----------------------------------------------------------------------
 # B3LYP/6-311++G(d,p) empiricaldispersion=gd3bj scf=xqc pop=npa geom=c
 heck
 ----------------------------------------------------------------------

 -----------------------------------
 CID_63559806_JID_8994_Energie_anion
 -----------------------------------
 Structure from the checkpoint file:  "JID_8994.chk"
 Charge = -1 Multiplicity = 2

                         Standard orientation:
 ---------------------------------------------------------------------
 Center     Atomic      Atomic             Coordinates (Angstroms)
 Number     Number       Type             X           Y           Z
 ---------------------------------------------------------------------
      1          6           0       -2.585725   -2.994276    1.237095
      2          6           0       -2.303055   -2.487785   -0.186575
      3          6           0       -1.680439   -1.110543   -0.170081
      4          6           0       -2.428026    0.062091   -0.154888
      5          6           0       -1.667532    1.263312   -0.112698
      6          7           0       -0.332315    1.267264   -0.071864
      7          6           0        0.288222    0.073426   -0.062575
      8          7           0       -0.330710   -1.108049   -0.114889
      9          6           0        1.774009    0.102251    0.030893
     10          6           0        2.362062    1.279361    0.524735
     11          6           0        3.738166    1.404072    0.670930
     12          6           0        4.561884    0.339903    0.307678
     13          6           0        3.991744   -0.825741   -0.197495
     14          6           0        2.606689   -0.980415   -0.346431
     15          6           0        2.103227   -2.282648   -0.922617
     16          7           0       -2.290389    2.481171   -0.090587
     17          6           0       -1.542373    3.721851   -0.197574
     18          6           0       -3.932104    0.122923   -0.163554
     19          1           0       -1.662159   -2.997916    1.824880
     20          1           0       -2.987497   -4.013201    1.218526
     21          1           0       -3.308953   -2.351351    1.751665
     22          1           0       -1.591787   -3.159770   -0.675733
     23          1           0       -3.223889   -2.498264   -0.779381
     24          1           0        1.704374    2.097675    0.792515
     25          1           0        4.162779    2.323527    1.064223
     26          1           0        5.641077    0.415820    0.410813
     27          1           0        4.637083   -1.649080   -0.493470
     28          1           0        1.558458   -2.867649   -0.177195
     29          1           0        1.400930   -2.119138   -1.744723
     30          1           0        2.946592   -2.875397   -1.292966
     31          1           0       -3.261460    2.502186   -0.358630
     32          1           0       -0.982983    3.791545   -1.139389
     33          1           0       -2.246201    4.555248   -0.131263
     34          1           0       -0.823378    3.796760    0.621724
     35          1           0       -4.305988    0.710562    0.685799
     36          1           0       -4.318080    0.595923   -1.079092
     37          1           0       -4.385505   -0.866861   -0.097977
 ---------------------------------------------------------------------

 SCF Done:  E(UB3LYP) =  -747.591585603     A.U. after   33 cycles
 SCF Done:  E(UB3LYP) =  -747.591585603     a.u. after    1 cycles

 The electronic state is 2-A.
 Alpha  occ. eigenvalues --  -14.22084 -14.16748 -14.16665 -10.12658 -10.10103
 Alpha  occ. eigenvalues --  -10.09435 -10.08927 -10.06468 -10.06331 -10.06247
 Alpha  occ. eigenvalues --  -10.06131 -10.05497 -10.05380 -10.05377 -10.05285
 Alpha  occ. eigenvalues --  -10.05281 -10.04749 -10.04588  -0.86637  -0.82002
 Alpha  occ. eigenvalues --   -0.74732  -0.73818  -0.69330  -0.65649  -0.65346
 Alpha  occ. eigenvalues --   -0.63648  -0.59729  -0.58291  -0.56619  -0.53409
 Alpha  occ. eigenvalues --   -0.51444  -0.49468  -0.46743  -0.45835  -0.42504
 Alpha  occ. eigenvalues --   -0.40700  -0.38016  -0.35525  -0.34868  -0.34541
 Alpha  occ. eigenvalues --   -0.33769  -0.32995  -0.31827  -0.31277  -0.31035
 Alpha  occ. eigenvalues --   -0.30424  -0.30091  -0.29678  -0.29380  -0.28510
 Alpha  occ. eigenvalues --   -0.28044  -0.27066  -0.26927  -0.24718  -0.24159
 Alpha  occ. eigenvalues --   -0.24031  -0.22616  -0.22493  -0.20961  -0.17041
 Alpha  occ. eigenvalues --   -0.16562  -0.13314  -0.12845  -0.11866  -0.10390
 Alpha  occ. eigenvalues --    0.04182
 Alpha virt. eigenvalues --    0.06043   0.06970   0.07620   0.08289   0.08747
 Alpha virt. eigenvalues --    0.09110   0.09915   0.10146   0.10221   0.10643
 Alpha virt. eigenvalues --    0.10819   0.11436   0.11988   0.12404   0.12562

  Beta  occ. eigenvalues --  -14.22069 -14.16750 -14.16526 -10.12688 -10.09940
  Beta  occ. eigenvalues --  -10.09419 -10.08884 -10.06403 -10.06329 -10.06223
  Beta  occ. eigenvalues --  -10.06110 -10.05530 -10.05389 -10.05223 -10.05222
  Beta  occ. eigenvalues --  -10.05133 -10.04755 -10.04505  -0.86488  -0.81909
  Beta  occ. eigenvalues --   -0.74539  -0.73658  -0.69154  -0.65544  -0.65230
  Beta  occ. eigenvalues --   -0.63422  -0.59665  -0.58152  -0.56576  -0.53325
  Beta  occ. eigenvalues --   -0.51208  -0.49336  -0.46665  -0.45693  -0.42431
  Beta  occ. eigenvalues --   -0.40621  -0.37942  -0.35461  -0.34786  -0.34386
  Beta  occ. eigenvalues --   -0.33669  -0.32894  -0.31722  -0.31161  -0.30896
  Beta  occ. eigenvalues --   -0.30248  -0.30000  -0.29624  -0.29332  -0.28329
  Beta  occ. eigenvalues --   -0.27996  -0.26911  -0.26789  -0.24660  -0.24131
  Beta  occ. eigenvalues --   -0.23692  -0.22540  -0.22417  -0.20732  -0.16868
  Beta  occ. eigenvalues --   -0.15882  -0.12961  -0.12371  -0.11691  -0.09807
  Beta virt. eigenvalues --    0.06681   0.07305   0.07617   0.07955   0.08521
  Beta virt. eigenvalues --    0.08769   0.09270   0.10037   0.10302   0.10511
  Beta virt. eigenvalues --    0.10793   0.11023   0.11460   0.12022   0.12517

 Mulliken charges and spin densities:
               1          2
     1  C   -0.085409  -0.516829
     2  C   -0.665757   0.341401
     3  C    1.064059  -0.558163
     4  C   -1.195161   1.438910
     5  C   -0.491291   0.282163
     6  N   -0.024901   0.034499
     7  C   -0.417704   0.015548
     8  N    0.121040   0.003895
     9  C    0.742346  -0.046701
    10  C   -0.458992   0.110261
    11  C   -0.449317  -0.016327
    12  C   -0.275614   0.114365
    13  C   -0.530700   0.018679
    14  C    0.324626   0.102652
    15  C   -0.486589  -0.059142
    16  N   -0.192148   0.068822
    17  C   -0.003306  -0.352836
    18  C    1.585164  -2.369493
    19  H    0.116267   0.044934
    20  H   -0.073686   0.197242
    21  H    0.061331   0.078946
    22  H    0.138589   0.012837
    23  H   -0.009884   0.155524
    24  H    0.140427  -0.009990
    25  H    0.121502   0.009550
    26  H    0.115638  -0.010405
    27  H    0.084394   0.003887
    28  H    0.150484  -0.002139
    29  H    0.134250   0.034008
    30  H    0.119047  -0.006702
    31  H   -0.109791   0.402988
    32  H    0.154543   0.015397
    33  H   -0.265604   0.390842
    34  H    0.089219   0.082265
    35  H   -0.260718   0.437589
    36  H   -0.157648   0.309562
    37  H   -0.108703   0.241961
 Sum of Mulliken charges =  -1.00000   1.00000

 Dipole moment (field-independent basis, Debye):
    X=              3.9918    Y=             -1.5392    Z=             -0.7318  Tot=              4.3404
 Quadrupole moment (field-independent basis, Debye-Ang):
   XX=           -179.3579   YY=           -144.7422   ZZ=           -127.7658
   XY=              6.2137   XZ=              2.4774   YZ=              2.4037

 Summary of Natural Population Analysis:

                                       Natural Population
                Natural  -----------------------------------------------
    Atom  No    Charge         Core      Valence    Rydberg      Total
 -----------------------------------------------------------------------
      C    1   -0.28197      0.99966     2.27741    0.00489     3.28197
      C    2   -0.20527      0.99961     2.19642    0.00925     3.20527
      C    3    0.12832      0.99948     1.85771    0.01449     2.87168
      C    4   -0.04841      0.99942     2.04010    0.00888     3.04841
      C    5    0.21649      0.99950     1.76909    0.01491     2.78351
      N    6   -0.26524      0.99964     2.75700    0.00860     3.76524
      C    7    0.24085      0.99957     1.74212    0.01745     2.75915
      N    8   -0.27814      0.99966     2.76820    0.01029     3.77814
      C    9   -0.02710      0.99939     2.01746    0.01025     3.02710
      C   10   -0.06867      0.99955     2.06122    0.00790     3.06867
      C   11   -0.12220      0.99957     2.11367    0.00897     3.12220
      C   12   -0.07708      0.99957     2.06803    0.00948     3.07708
      C   13   -0.11556      0.99953     2.10744    0.00859     3.11556
      C   14    0.01210      0.99950     1.98095    0.00745     2.98790
      C   15   -0.29163      0.99964     2.28740    0.00459     3.29163
      N   16   -0.30929      0.99967     2.79887    0.01075     3.80929
      C   17   -0.17773      0.99965     2.16909    0.00898     3.17773
      C   18   -0.30067      0.99965     2.29470    0.00632     3.30067
      H   19    0.10103      0.00000     0.39806    0.00092     0.39897
      H   20    0.09366      0.00000     0.40547    0.00087     0.40634
      H   21    0.09699      0.00000     0.40216    0.00085     0.40301
      H   22    0.10426      0.00000     0.39460    0.00114     0.39574
      H   23    0.09673      0.00000     0.40223    0.00104     0.40327
      H   24    0.10862      0.00000     0.39019    0.00119     0.39138
      H   25    0.09304      0.00000     0.40600    0.00096     0.40696
      H   26    0.08999      0.00000     0.40898    0.00103     0.41001
      H   27    0.09056      0.00000     0.40805    0.00138     0.40944
      H   28    0.11194      0.00000     0.38690    0.00116     0.38806
      H   29    0.10837      0.00000     0.39051    0.00112     0.39163
      H   30    0.08765      0.00000     0.41142    0.00093     0.41235
      H   31    0.19356      0.00000     0.30296    0.00347     0.30644
      H   32    0.09093      0.00000     0.40791    0.00116     0.40907
      H   33    0.09295      0.00000     0.40619    0.00086     0.40705
      H   34    0.09987      0.00000     0.39901    0.00112     0.40013
      H   35    0.10648      0.00000     0.39106    0.00247     0.39352
      H   36    0.09916      0.00000     0.39957    0.00128     0.40084
      H   37    0.10543      0.00000     0.39349    0.00108     0.39457
 =======================================================================
   * Total *    0.00000     17.99226    46.81165    0.19609    65.00000

 Normal termination of Gaussian 16 at Sat Dec 12 00:14:39 2020.
