 Gaussian 16, Revision A.03,

 -----------------------------------------------------------
 # opt freq B3LYP/6-31G(d) empiricaldispersion=gd3bj scf=xqc
 -----------------------------------------------------------

 ------------------------------
 CID_82040841_JID_6046_neutraal
 ------------------------------
 Symbolic Z-matrix:
 Charge =  0 Multiplicity = 1

 SCF Done:  E(RB3LYP) =  -726.957830867     A.U. after   15 cycles
 SCF Done:  E(RB3LYP) =  -726.934542142     A.U. after   14 cycles
 SCF Done:  E(RB3LYP) =  -726.963261256     A.U. after   13 cycles
 SCF Done:  E(RB3LYP) =  -726.963885289     A.U. after   13 cycles
 SCF Done:  E(RB3LYP) =  -726.966186014     A.U. after   13 cycles
 SCF Done:  E(RB3LYP) =  -726.967438249     A.U. after   12 cycles
 SCF Done:  E(RB3LYP) =  -726.967747404     A.U. after   12 cycles
 SCF Done:  E(RB3LYP) =  -726.967414031     A.U. after   13 cycles
 SCF Done:  E(RB3LYP) =  -726.968202144     A.U. after   12 cycles
 SCF Done:  E(RB3LYP) =  -726.968353480     A.U. after   11 cycles
 SCF Done:  E(RB3LYP) =  -726.968431645     A.U. after    9 cycles
 SCF Done:  E(RB3LYP) =  -726.968438622     A.U. after    9 cycles
 SCF Done:  E(RB3LYP) =  -726.968445078     A.U. after   10 cycles
 SCF Done:  E(RB3LYP) =  -726.968446679     A.U. after    8 cycles
 SCF Done:  E(RB3LYP) =  -726.968446802     A.U. after    7 cycles
 Optimization completed.
    -- Stationary point found.
 Normal termination of Gaussian 16 at Thu Dec 10 21:20:04 2020.

 --------------------------------------------------------------------
 #N Geom=AllCheck Guess=TCheck SCRF=Check GenChk RB3LYP/6-31G(d) Freq
 --------------------------------------------------------------------

 Structure from the checkpoint file:  "JID_6046.chk"
 ------------------------------
 CID_82040841_JID_6046_neutraal
 ------------------------------
 Charge =  0 Multiplicity = 1

 SCF Done:  E(RB3LYP) =  -726.968446802     A.U. after    1 cycles

  Exact polarizability: 184.362   8.934 112.350   7.086 -21.086 116.149
 Approx polarizability: 272.816  21.433 173.492  15.741 -48.900 201.115

                      1                      2                      3
                      A                      A                      A
 Frequencies --     50.5138                58.9998                63.6603
 Red. masses --      4.7330                 4.1228                 4.0686
 Frc consts  --      0.0071                 0.0085                 0.0097
 IR Inten    --      1.1492                 0.4763                 1.9309

                      4                      5                      6
                      A                      A                      A
 Frequencies --     78.6377                95.3936               102.3646
 Red. masses --      2.3014                 3.0977                 1.7299
 Frc consts  --      0.0084                 0.0166                 0.0107
 IR Inten    --      4.1522                10.3936                 6.3164

                      7                      8                      9
                      A                      A                      A
 Frequencies --    107.5249               150.6706               162.8747
 Red. masses --      3.9011                 2.7524                 1.1462
 Frc consts  --      0.0266                 0.0368                 0.0179
 IR Inten    --      3.9353                 1.9402                 0.0983

                     10                     11                     12
                      A                      A                      A
 Frequencies --    228.1225               229.2348               264.6534
 Red. masses --      4.1560                 3.3056                 3.7142
 Frc consts  --      0.1274                 0.1023                 0.1533
 IR Inten    --      2.1504                 0.3643                 1.1998

                     13                     14                     15
                      A                      A                      A
 Frequencies --    311.3899               316.9673               352.0842
 Red. masses --      2.4863                 3.0899                 3.8755
 Frc consts  --      0.1420                 0.1829                 0.2831
 IR Inten    --      0.2772                 1.0242                 1.6442

                     16                     17                     18
                      A                      A                      A
 Frequencies --    373.5677               408.8273               443.1173
 Red. masses --      5.0266                 2.8155                 1.8999
 Frc consts  --      0.4133                 0.2773                 0.2198
 IR Inten    --      8.1579                11.8979                21.1906

                     19                     20                     21
                      A                      A                      A
 Frequencies --    460.3167               471.9061               504.0628
 Red. masses --      2.8733                 1.8508                 1.7901
 Frc consts  --      0.3587                 0.2428                 0.2680
 IR Inten    --      9.8390                61.8273                83.9608

                     22                     23                     24
                      A                      A                      A
 Frequencies --    515.2997               546.7515               551.1482
 Red. masses --      1.8254                 3.3793                 1.7600
 Frc consts  --      0.2856                 0.5952                 0.3150
 IR Inten    --     36.8029                22.6377                52.7451

                     25                     26                     27
                      A                      A                      A
 Frequencies --    577.8259               590.0574               632.8305
 Red. masses --      3.0772                 2.0198                 4.1712
 Frc consts  --      0.6053                 0.4143                 0.9842
 IR Inten    --     23.6011               134.7432                 3.2857

                     28                     29                     30
                      A                      A                      A
 Frequencies --    680.8076               707.2298               721.9098
 Red. masses --      3.1050                 3.2646                 3.4201
 Frc consts  --      0.8479                 0.9621                 1.0502
 IR Inten    --     31.0491                40.5649                 2.5209

                     31                     32                     33
                      A                      A                      A
 Frequencies --    761.0233               778.2169               820.6133
 Red. masses --      3.9538                 3.3489                 3.0145
 Frc consts  --      1.3492                 1.1950                 1.1960
 IR Inten    --      5.4657                12.5243                12.5885

                     34                     35                     36
                      A                      A                      A
 Frequencies --    834.8778               852.8460               907.9752
 Red. masses --      1.5149                 3.5173                 1.3564
 Frc consts  --      0.6221                 1.5073                 0.6588
 IR Inten    --      8.6165                13.3981                 8.8462

                     37                     38                     39
                      A                      A                      A
 Frequencies --    942.5464               961.0989               997.0079
 Red. masses --      1.2781                 2.2360                 2.1604
 Frc consts  --      0.6690                 1.2169                 1.2653
 IR Inten    --      0.1069                12.2624                 0.5670

                     40                     41                     42
                      A                      A                      A
 Frequencies --   1006.1649              1027.7388              1048.4682
 Red. masses --      2.2734                 1.6358                 1.6678
 Frc consts  --      1.3560                 1.0180                 1.0802
 IR Inten    --     17.4734                 3.6516                 8.9725

                     43                     44                     45
                      A                      A                      A
 Frequencies --   1059.4711              1061.4144              1085.6823
 Red. masses --      2.4238                 1.7437                 1.5933
 Frc consts  --      1.6029                 1.1574                 1.1065
 IR Inten    --      1.9764                 6.2464                 0.4086

                     46                     47                     48
                      A                      A                      A
 Frequencies --   1129.8968              1154.7152              1195.1495
 Red. masses --      1.7369                 1.7884                 1.6371
 Frc consts  --      1.3064                 1.4050                 1.3777
 IR Inten    --      6.9966                 3.5956                14.9658

                     49                     50                     51
                      A                      A                      A
 Frequencies --   1205.2766              1236.4694              1245.2046
 Red. masses --      1.3296                 1.2783                 1.8112
 Frc consts  --      1.1380                 1.1514                 1.6546
 IR Inten    --     50.0688                10.5177                20.5354

                     52                     53                     54
                      A                      A                      A
 Frequencies --   1289.8948              1314.5291              1317.8546
 Red. masses --      3.1143                 1.6072                 1.4138
 Frc consts  --      3.0529                 1.6363                 1.4466
 IR Inten    --     10.2303                33.8040                 9.4530

                     55                     56                     57
                      A                      A                      A
 Frequencies --   1352.3538              1357.7743              1365.5516
 Red. masses --      4.7382                 1.5378                 2.9313
 Frc consts  --      5.1056                 1.6703                 3.2205
 IR Inten    --      7.0996                 7.6100               205.5471

                     58                     59                     60
                      A                      A                      A
 Frequencies --   1426.6826              1439.2432              1448.6556
 Red. masses --      2.1728                 1.3494                 1.7402
 Frc consts  --      2.6057                 1.6469                 2.1517
 IR Inten    --     60.0919                 4.4598                15.1982

                     61                     62                     63
                      A                      A                      A
 Frequencies --   1453.5762              1480.5600              1499.2039
 Red. masses --      1.5823                 1.8012                 1.0934
 Frc consts  --      1.9698                 2.3263                 1.4479
 IR Inten    --     13.9408                16.0350                19.9603

                     64                     65                     66
                      A                      A                      A
 Frequencies --   1505.6587              1518.2489              1518.7641
 Red. masses --      1.0908                 1.1702                 1.0736
 Frc consts  --      1.4569                 1.5892                 1.4591
 IR Inten    --      0.1702                 2.5361                11.8508

                     67                     68                     69
                      A                      A                      A
 Frequencies --   1521.7421              1529.3482              1558.1513
 Red. masses --      1.0950                 1.0946                 2.6725
 Frc consts  --      1.4940                 1.5085                 3.8228
 IR Inten    --     24.8633                 6.6646                87.6252

                     70                     71                     72
                      A                      A                      A
 Frequencies --   1631.7720              1659.2349              1673.9876
 Red. masses --      5.9804                 1.2077                 5.9503
 Frc consts  --      9.3820                 1.9590                 9.8241
 IR Inten    --     19.3321                44.9081                37.7845

                     73                     74                     75
                      A                      A                      A
 Frequencies --   1788.5191              1801.0292              3038.9348
 Red. masses --      8.2806                 8.2792                 1.0387
 Frc consts  --     15.6063                15.8227                 5.6516
 IR Inten    --    449.7354               185.1467                28.8717

                     76                     77                     78
                      A                      A                      A
 Frequencies --   3047.5459              3064.5674              3086.4651
 Red. masses --      1.0401                 1.0630                 1.1000
 Frc consts  --      5.6917                 5.8818                 6.1737
 IR Inten    --     17.2632                11.3211                21.2827

                     79                     80                     81
                      A                      A                      A
 Frequencies --   3094.6813              3104.8147              3106.3988
 Red. masses --      1.0671                 1.0974                 1.0977
 Frc consts  --      6.0212                 6.2331                 6.2411
 IR Inten    --      4.9579                17.1231                12.4421

                     82                     83                     84
                      A                      A                      A
 Frequencies --   3127.3852              3139.3590              3149.5535
 Red. masses --      1.1002                 1.1010                 1.0993
 Frc consts  --      6.3397                 6.3933                 6.4248
 IR Inten    --     20.4230                11.7280                11.1787

                     85                     86                     87
                      A                      A                      A
 Frequencies --   3177.6790              3198.0426              3218.5161
 Red. masses --      1.0875                 1.0943                 1.0906
 Frc consts  --      6.4701                 6.5939                 6.6564
 IR Inten    --     15.1458                14.4152                 5.0841

                     88                     89                     90
                      A                      A                      A
 Frequencies --   3568.8954              3582.1294              3682.3625
 Red. masses --      1.0466                 1.0754                 1.1011
 Frc consts  --      7.8543                 8.1301                 8.7968
 IR Inten    --     16.2538                26.4178                14.2215

 - Thermochemistry -
 -------------------
 Temperature   298.150 Kelvin.  Pressure   1.00000 Atm.
 Atom     1 has atomic number  6 and mass  12.00000

 Molecular mass:   220.12118 amu.
 Principal axes and moments of inertia in atomic units:
                           1         2         3
     Eigenvalues --  2208.372504273.831775070.32380
           X            0.99991  -0.01075  -0.00790
           Y            0.01050   0.99947  -0.03073
           Z            0.00822   0.03065   0.99950
 This molecule is an asymmetric top.
 Rotational symmetry number  1.
 Warning -- assumption of classical behavior for rotation
           may cause significant error
 Rotational temperatures (Kelvin)      0.03922     0.02027     0.01708
 Rotational constants (GHZ):           0.81723     0.42228     0.35594
 Zero-point vibrational energy     705260.1 (Joules/Mol)
                                  168.56120 (Kcal/Mol)
 Warning -- explicit consideration of  26 degrees of freedom as
           vibrations may cause significant error
 Vibrational temperatures:     72.68    84.89    91.59   113.14   137.25
          (Kelvin)            147.28   154.70   216.78   234.34   328.22
                              329.82   380.78   448.02   456.05   506.57
                              537.48   588.21   637.55   662.29   678.97
                              725.23   741.40   786.65   792.98   831.36
                              848.96   910.50   979.53  1017.55  1038.67
                             1094.94  1119.68  1180.68  1201.20  1227.06
                             1306.37  1356.11  1382.81  1434.47  1447.65
                             1478.69  1508.51  1524.34  1527.14  1562.05
                             1625.67  1661.38  1719.55  1734.12  1779.00
                             1791.57  1855.87  1891.31  1896.10  1945.74
                             1953.53  1964.72  2052.68  2070.75  2084.29
                             2091.37  2130.20  2157.02  2166.31  2184.42
                             2185.16  2189.45  2200.39  2241.83  2347.76
                             2387.27  2408.49  2573.28  2591.28  4372.35
                             4384.74  4409.23  4440.73  4452.56  4467.14
                             4469.42  4499.61  4516.84  4531.50  4571.97
                             4601.27  4630.73  5134.84  5153.89  5298.10

 Zero-point correction=                           0.268619 (Hartree/Particle)
 Thermal correction to Energy=                    0.284824
 Thermal correction to Enthalpy=                  0.285769
 Thermal correction to Gibbs Free Energy=         0.224956
 Sum of electronic and zero-point Energies=           -726.699827
 Sum of electronic and thermal Energies=              -726.683622
 Sum of electronic and thermal Enthalpies=            -726.682678
 Sum of electronic and thermal Free Energies=         -726.743491

                     E (Thermal)             CV                S
                      KCal/Mol        Cal/Mol-Kelvin    Cal/Mol-Kelvin
 Total                  178.730             61.053            127.991
 Electronic               0.000              0.000              0.000
 Translational            0.889              2.981             42.070
 Rotational               0.889              2.981             32.237
 Vibrational            176.953             55.092             53.684
 Vibration     1          0.595              1.977              4.797
 Vibration     2          0.596              1.974              4.490
 Vibration     3          0.597              1.972              4.340
 Vibration     4          0.600              1.964              3.925
 Vibration     5          0.603              1.952              3.546
 Vibration     6          0.604              1.947              3.409
 Vibration     7          0.606              1.943              3.313
 Vibration     8          0.618              1.902              2.664
 Vibration     9          0.623              1.888              2.516
 Vibration    10          0.651              1.798              1.894
 Vibration    11          0.652              1.796              1.885
 Vibration    12          0.671              1.738              1.631
 Vibration    13          0.700              1.652              1.355
 Vibration    14          0.704              1.641              1.326
 Vibration    15          0.729              1.571              1.157
 Vibration    16          0.745              1.526              1.065
 Vibration    17          0.773              1.451              0.931
 Vibration    18          0.803              1.376              0.817
 Vibration    19          0.818              1.338              0.765
 Vibration    20          0.829              1.312              0.732
 Vibration    21          0.859              1.241              0.648
 Vibration    22          0.870              1.216              0.621
 Vibration    23          0.902              1.147              0.551
 Vibration    24          0.906              1.137              0.542
 Vibration    25          0.934              1.079              0.489
 Vibration    26          0.947              1.053              0.467

                           ! Non-Optimized Parameters !
 Normal termination of Gaussian 16 at Thu Dec 10 21:32:36 2020.

 ----------------------------------------------------------------------
 # B3LYP/6-311++G(d,p) empiricaldispersion=gd3bj scf=xqc pop=npa geom=c
 heck
 ----------------------------------------------------------------------

 --------------------------------------
 CID_82040841_JID_6046_Energie_neutraal
 --------------------------------------
 Structure from the checkpoint file:  "JID_6046.chk"
 Charge =  0 Multiplicity = 1

 SCF Done:  E(RB3LYP) =  -727.182116824     A.U. after   16 cycles
 Normal termination of Gaussian 16 at Thu Dec 10 21:37:38 2020.

 ----------------------------------------------------------------------
 # B3LYP/6-311++G(d,p) empiricaldispersion=gd3bj scf=xqc pop=npa geom=c
 heck
 ----------------------------------------------------------------------

 ------------------------------------
 CID_82040841_JID_6046_Energie_kation
 ------------------------------------
 Structure from the checkpoint file:  "JID_6046.chk"
 Charge =  1 Multiplicity = 2

 SCF Done:  E(UB3LYP) =  -726.877814613     A.U. after   27 cycles
 Normal termination of Gaussian 16 at Thu Dec 10 21:51:22 2020.
 Gaussian 16:  ES64L-G16RevA.03 25-Dec-2016

 ----------------------------------------------------------------------
 # B3LYP/6-311++G(d,p) empiricaldispersion=gd3bj scf=xqc pop=npa geom=c
 heck
 ----------------------------------------------------------------------

 -----------------------------------
 CID_82040841_JID_6046_Energie_anion
 -----------------------------------
 Structure from the checkpoint file:  "JID_6046.chk"
 Charge = -1 Multiplicity = 2

                         Standard orientation:
 ---------------------------------------------------------------------
 Center     Atomic      Atomic             Coordinates (Angstroms)
 Number     Number       Type             X           Y           Z
 ---------------------------------------------------------------------
      1          6           0        3.868656   -0.422508    0.268714
      2          6           0        2.400837   -0.739810    0.124493
      3          6           0        1.650706   -0.223720   -0.950684
      4          6           0        0.294120   -0.537156   -1.050529
      5          6           0       -0.353982   -1.298736   -0.075974
      6          6           0        0.391633   -1.820379    0.986672
      7          6           0        1.756156   -1.550978    1.066208
      8          7           0       -1.742925   -1.562323   -0.159797
      9          6           0       -2.797685   -0.685461   -0.344467
     10          8           0       -3.929586   -1.126231   -0.484106
     11          6           0       -2.522509    0.814203   -0.308062
     12          6           0       -1.762958    1.301882    0.945948
     13          6           0       -0.395077    1.901909    0.623678
     14          8           0       -0.191090    2.566113   -0.383224
     15          7           0        0.556403    1.723659    1.595174
     16          6           0        2.270647    0.701495   -1.965318
     17          1           0        4.451144   -0.800688   -0.580825
     18          1           0        4.047684    0.659492    0.312032
     19          1           0        4.280981   -0.867899    1.178862
     20          1           0       -0.274401   -0.162311   -1.894203
     21          1           0       -0.099833   -2.424647    1.744292
     22          1           0        2.332504   -1.964447    1.890402
     23          1           0       -2.051266   -2.522240   -0.057460
     24          1           0       -1.974581    1.142290   -1.196865
     25          1           0       -3.511594    1.270263   -0.364249
     26          1           0       -2.335392    2.107076    1.421760
     27          1           0       -1.673662    0.509081    1.695252
     28          1           0        0.506314    0.892327    2.168551
     29          1           0        1.492944    2.000558    1.329183
     30          1           0        1.628993    0.805501   -2.844128
     31          1           0        2.391886    1.706009   -1.539452
     32          1           0        3.256073    0.356782   -2.296218
 ---------------------------------------------------------------------

 SCF Done:  E(UB3LYP) =  -727.174961796     A.U. after   33 cycles
 SCF Done:  E(UB3LYP) =  -727.174971673     a.u. after    3 cycles

 The electronic state is 2-A.
 Alpha  occ. eigenvalues --  -18.99990 -18.99657 -14.25242 -14.22929 -10.18559
 Alpha  occ. eigenvalues --  -10.18063 -10.12009 -10.09442 -10.09065 -10.08644
 Alpha  occ. eigenvalues --  -10.08242 -10.07867 -10.07814 -10.07658 -10.07008
 Alpha  occ. eigenvalues --  -10.06519  -0.95264  -0.94545  -0.84413  -0.80673
 Alpha  occ. eigenvalues --   -0.76225  -0.70071  -0.68098  -0.66907  -0.60502
 Alpha  occ. eigenvalues --   -0.59808  -0.58010  -0.51918  -0.50038  -0.48804
 Alpha  occ. eigenvalues --   -0.47386  -0.43379  -0.43099  -0.40749  -0.38608
 Alpha  occ. eigenvalues --   -0.37562  -0.37088  -0.36265  -0.34357  -0.34031
 Alpha  occ. eigenvalues --   -0.33496  -0.32031  -0.31559  -0.31470  -0.30299
 Alpha  occ. eigenvalues --   -0.29632  -0.28963  -0.28616  -0.27826  -0.26532
 Alpha  occ. eigenvalues --   -0.25829  -0.25318  -0.24547  -0.19546  -0.18387
 Alpha  occ. eigenvalues --   -0.17043  -0.16608  -0.15577  -0.13472   0.04169
 Alpha virt. eigenvalues --    0.06566   0.06807   0.07279   0.07518   0.08398
 Alpha virt. eigenvalues --    0.09057   0.09483   0.09596   0.10213   0.10881
 Alpha virt. eigenvalues --    0.10927   0.11494   0.11987   0.12285   0.12851

  Beta  occ. eigenvalues --  -18.99954 -18.99651 -14.25250 -14.22870 -10.18529
  Beta  occ. eigenvalues --  -10.18055 -10.11966 -10.09419 -10.09064 -10.08620
  Beta  occ. eigenvalues --  -10.08200 -10.07842 -10.07815 -10.07641 -10.06991
  Beta  occ. eigenvalues --  -10.06472  -0.95203  -0.94528  -0.84376  -0.80599
  Beta  occ. eigenvalues --   -0.76167  -0.70036  -0.68039  -0.66839  -0.60440
  Beta  occ. eigenvalues --   -0.59752  -0.57943  -0.51860  -0.49962  -0.48732
  Beta  occ. eigenvalues --   -0.47312  -0.43320  -0.43048  -0.40705  -0.38568
  Beta  occ. eigenvalues --   -0.37484  -0.37044  -0.36230  -0.34292  -0.33956
  Beta  occ. eigenvalues --   -0.33433  -0.31982  -0.31514  -0.31400  -0.30236
  Beta  occ. eigenvalues --   -0.29589  -0.28916  -0.28579  -0.27776  -0.26490
  Beta  occ. eigenvalues --   -0.25745  -0.25245  -0.24490  -0.19438  -0.18325
  Beta  occ. eigenvalues --   -0.17010  -0.16584  -0.15484  -0.13291
  Beta virt. eigenvalues --    0.06670   0.06960   0.07275   0.07660   0.07997
  Beta virt. eigenvalues --    0.08525   0.09670   0.09898   0.10140   0.10446
  Beta virt. eigenvalues --    0.10895   0.11371   0.11943   0.12354   0.12440

 Mulliken charges and spin densities:
               1          2
     1  C    3.490903  -4.040443
     2  C   -2.252742   2.718884
     3  C   -1.150276   1.379436
     4  C   -0.491739   0.205576
     5  C    0.590734  -0.859248
     6  C    0.240522  -0.381502
     7  C    0.779461  -1.234168
     8  N   -0.197327  -0.000140
     9  C    0.161685  -0.215676
    10  O   -0.349755   0.015395
    11  C   -0.495971   0.309712
    12  C    0.102230  -0.407630
    13  C    0.534432  -0.666295
    14  O   -0.308599   0.028439
    15  N   -0.135769   0.043790
    16  C    0.224899  -0.779196
    17  H    0.032556   0.121983
    18  H   -0.339737   0.499573
    19  H   -0.658796   0.824086
    20  H    0.101990   0.099172
    21  H   -0.575070   0.757309
    22  H   -0.961413   1.150865
    23  H    0.333294  -0.019037
    24  H    0.189081  -0.016484
    25  H    0.189349   0.018819
    26  H    0.093622   0.115868
    27  H   -0.074553   0.241504
    28  H   -0.084206   0.325349
    29  H   -0.030135   0.321553
    30  H    0.059443   0.073092
    31  H    0.128392   0.085456
    32  H   -0.146504   0.283961
 Sum of Mulliken charges =  -1.00000   1.00000

 Dipole moment (field-independent basis, Debye):
    X=             -4.6846    Y=              0.4171    Z=             -4.5873  Tot=              6.5698
 Quadrupole moment (field-independent basis, Debye-Ang):
   XX=           -174.5406   YY=           -133.7250   ZZ=           -137.4310
   XY=             -2.3643   XZ=            -13.8998   YZ=              6.8038

 Summary of Natural Population Analysis:

                                       Natural Population
                Natural  -----------------------------------------------
    Atom  No    Charge         Core      Valence    Rydberg      Total
 -----------------------------------------------------------------------
      C    1   -0.29495      0.99964     2.28900    0.00631     3.29495
      C    2   -0.01226      0.99946     2.00122    0.01158     3.01226
      C    3   -0.00423      0.99947     1.99424    0.01052     3.00423
      C    4   -0.10713      0.99947     2.09876    0.00890     3.10713
      C    5    0.06646      0.99945     1.92190    0.01219     2.93354
      C    6   -0.10989      0.99951     2.09916    0.01122     3.10989
      C    7   -0.09394      0.99951     2.08281    0.01162     3.09394
      N    8   -0.32024      0.99964     2.81086    0.00974     3.82024
      C    9    0.35266      0.99967     1.62540    0.02227     2.64734
      O   10   -0.32035      0.99988     3.31457    0.00591     4.32035
      C   11   -0.23779      0.99958     2.23052    0.00770     3.23779
      C   12   -0.23507      0.99957     2.22681    0.00869     3.23507
      C   13    0.34311      0.99970     1.63307    0.02411     2.65689
      O   14   -0.32698      0.99987     3.32113    0.00597     4.32698
      N   15   -0.39796      0.99969     2.89006    0.00820     3.89796
      C   16   -0.29444      0.99963     2.28879    0.00601     3.29444
      H   17    0.10269      0.00000     0.39626    0.00106     0.39731
      H   18    0.10685      0.00000     0.39050    0.00265     0.39315
      H   19    0.10719      0.00000     0.39075    0.00206     0.39281
      H   20    0.10211      0.00000     0.39656    0.00133     0.39789
      H   21    0.10489      0.00000     0.39368    0.00143     0.39511
      H   22    0.10594      0.00000     0.39145    0.00261     0.39406
      H   23    0.19655      0.00000     0.30119    0.00225     0.30345
      H   24    0.12104      0.00000     0.37772    0.00124     0.37896
      H   25    0.11111      0.00000     0.38787    0.00102     0.38889
      H   26    0.11373      0.00000     0.38547    0.00080     0.38627
      H   27    0.10913      0.00000     0.38924    0.00163     0.39087
      H   28    0.20014      0.00000     0.29471    0.00515     0.29986
      H   29    0.19533      0.00000     0.30208    0.00258     0.30467
      H   30    0.10098      0.00000     0.39830    0.00072     0.39902
      H   31    0.11233      0.00000     0.38664    0.00102     0.38767
      H   32    0.10298      0.00000     0.39611    0.00091     0.39702
 =======================================================================
   * Total *    0.00000     15.99374    42.80686    0.19940    59.00000

 Normal termination of Gaussian 16 at Thu Dec 10 22:31:52 2020.
