 Gaussian 16, Revision A.03,

 -----------------------------------------------------------
 # opt freq B3LYP/6-31G(d) empiricaldispersion=gd3bj scf=xqc
 -----------------------------------------------------------

 -------------------------------
 CID_129403946_JID_6014_neutraal
 -------------------------------
 Symbolic Z-matrix:
 Charge =  0 Multiplicity = 1

 SCF Done:  E(RB3LYP) =  -759.251007708     A.U. after   15 cycles
 SCF Done:  E(RB3LYP) =  -759.259291380     A.U. after   13 cycles
 SCF Done:  E(RB3LYP) =  -759.260039790     A.U. after   12 cycles
 SCF Done:  E(RB3LYP) =  -759.260164075     A.U. after   12 cycles
 SCF Done:  E(RB3LYP) =  -759.260229785     A.U. after   12 cycles
 SCF Done:  E(RB3LYP) =  -759.260314300     A.U. after   11 cycles
 SCF Done:  E(RB3LYP) =  -759.260420338     A.U. after   12 cycles
 SCF Done:  E(RB3LYP) =  -759.260445019     A.U. after   12 cycles
 SCF Done:  E(RB3LYP) =  -759.260471893     A.U. after   12 cycles
 SCF Done:  E(RB3LYP) =  -759.260477918     A.U. after    9 cycles
 SCF Done:  E(RB3LYP) =  -759.260504353     A.U. after    8 cycles
 SCF Done:  E(RB3LYP) =  -759.260504667     A.U. after    9 cycles
 SCF Done:  E(RB3LYP) =  -759.260504956     A.U. after    9 cycles
 SCF Done:  E(RB3LYP) =  -759.260506024     A.U. after   11 cycles
 SCF Done:  E(RB3LYP) =  -759.260506382     A.U. after   10 cycles
 SCF Done:  E(RB3LYP) =  -759.260506539     A.U. after    9 cycles
 Optimization completed.
    -- Stationary point found.
 Normal termination of Gaussian 16 at Thu Dec 10 21:12:26 2020.

 --------------------------------------------------------------------
 #N Geom=AllCheck Guess=TCheck SCRF=Check GenChk RB3LYP/6-31G(d) Freq
 --------------------------------------------------------------------

 Structure from the checkpoint file:  "JID_6014.chk"
 -------------------------------
 CID_129403946_JID_6014_neutraal
 -------------------------------
 Charge =  0 Multiplicity = 1

 SCF Done:  E(RB3LYP) =  -759.260506539     A.U. after    1 cycles

  Exact polarizability: 157.846   5.310 135.125   3.081  -2.549  79.951
 Approx polarizability: 242.494  28.769 230.548   9.831  -2.049 133.138

                      1                      2                      3
                      A                      A                      A
 Frequencies --     14.1074                55.8028                92.1339
 Red. masses --      5.2649                 9.1524                 5.5508
 Frc consts  --      0.0006                 0.0168                 0.0278
 IR Inten    --      2.6422                 0.1248                 1.6050

                      4                      5                      6
                      A                      A                      A
 Frequencies --    130.4066               136.8477               214.3137
 Red. masses --      5.3721                 9.6213                 4.2279
 Frc consts  --      0.0538                 0.1062                 0.1144
 IR Inten    --      1.3375                 0.9013                 2.1409

                      7                      8                      9
                      A                      A                      A
 Frequencies --    253.0222               276.0774               311.0591
 Red. masses --      4.3616                 5.4845                 6.4317
 Frc consts  --      0.1645                 0.2463                 0.3667
 IR Inten    --      2.6871                 3.4396                 1.5746

                     10                     11                     12
                      A                      A                      A
 Frequencies --    340.2499               411.6450               422.2095
 Red. masses --      7.1136                 3.2460                 4.2038
 Frc consts  --      0.4852                 0.3241                 0.4415
 IR Inten    --      5.3430                 2.7974                15.0045

                     13                     14                     15
                      A                      A                      A
 Frequencies --    471.0314               502.6855               537.6640
 Red. masses --      1.4998                 3.4997                 5.8704
 Frc consts  --      0.1961                 0.5210                 0.9999
 IR Inten    --     84.2570                 7.9286                 1.2032

                     16                     17                     18
                      A                      A                      A
 Frequencies --    555.9189               571.5417               588.9202
 Red. masses --      2.9465                 2.4721                 1.6710
 Frc consts  --      0.5365                 0.4758                 0.3415
 IR Inten    --      9.0508                21.3078               141.1285

                     19                     20                     21
                      A                      A                      A
 Frequencies --    603.5941               631.5604               645.1117
 Red. masses --      3.4807                 5.4585                 6.4182
 Frc consts  --      0.7472                 1.2828                 1.5737
 IR Inten    --     10.0002                 6.5760                 6.5924

                     22                     23                     24
                      A                      A                      A
 Frequencies --    710.5273               735.2458               749.1553
 Red. masses --      5.5612                 5.4662                 9.7780
 Frc consts  --      1.6542                 1.7410                 3.2333
 IR Inten    --     19.5974                12.0430                15.6684

                     25                     26                     27
                      A                      A                      A
 Frequencies --    755.3569               771.9317               779.7785
 Red. masses --      5.3481                 3.5339                 1.5791
 Frc consts  --      1.7979                 1.2407                 0.5657
 IR Inten    --      5.0617                 8.9875                28.1970

                     28                     29                     30
                      A                      A                      A
 Frequencies --    811.7368               894.3811               924.7960
 Red. masses --      3.7515                 1.4270                 2.6108
 Frc consts  --      1.4564                 0.6725                 1.3156
 IR Inten    --      5.9693                 2.1097                 5.6792

                     31                     32                     33
                      A                      A                      A
 Frequencies --    964.2332               971.4947              1000.8400
 Red. masses --      2.2905                 2.2001                 2.6893
 Frc consts  --      1.2547                 1.2234                 1.5872
 IR Inten    --      5.1646                 5.2454                26.2030

                     34                     35                     36
                      A                      A                      A
 Frequencies --   1004.2719              1046.4522              1066.7924
 Red. masses --      1.3167                 2.7712                 3.4243
 Frc consts  --      0.7824                 1.7880                 2.2961
 IR Inten    --      0.8648                 8.5526                16.9907

                     37                     38                     39
                      A                      A                      A
 Frequencies --   1086.5372              1111.9664              1148.6490
 Red. masses --      3.0176                 2.6345                 2.1171
 Frc consts  --      2.0989                 1.9192                 1.6458
 IR Inten    --     17.2521                14.5136                26.1277

                     40                     41                     42
                      A                      A                      A
 Frequencies --   1187.2880              1194.2798              1205.1655
 Red. masses --      1.4454                 1.8403                 1.6859
 Frc consts  --      1.2005                 1.5465                 1.4427
 IR Inten    --      5.3728                10.2614                 5.8390

                     43                     44                     45
                      A                      A                      A
 Frequencies --   1263.1998              1276.0896              1304.1320
 Red. masses --      3.3954                 2.5438                 1.6170
 Frc consts  --      3.1921                 2.4406                 1.6203
 IR Inten    --     71.4097                95.5033                12.9148

                     46                     47                     48
                      A                      A                      A
 Frequencies --   1319.2218              1359.4203              1382.7209
 Red. masses --      1.7156                 2.0725                 6.5175
 Frc consts  --      1.7591                 2.2566                 7.3418
 IR Inten    --     37.2992                63.2419                33.0735

                     49                     50                     51
                      A                      A                      A
 Frequencies --   1391.1245              1417.5631              1468.6167
 Red. masses --      7.6227                 1.8198                 1.0857
 Frc consts  --      8.6914                 2.1546                 1.3796
 IR Inten    --    231.8511                15.3976                 7.2519

                     52                     53                     54
                      A                      A                      A
 Frequencies --   1510.7247              1519.4723              1651.0278
 Red. masses --      2.4974                 2.4689                 7.0222
 Frc consts  --      3.3582                 3.3585                11.2780
 IR Inten    --     13.6702                 5.9415                 3.7932

                     55                     56                     57
                      A                      A                      A
 Frequencies --   1659.0194              1827.7741              1858.5232
 Red. masses --      6.2535                12.8111                 9.9022
 Frc consts  --     10.1410                25.2164                20.1520
 IR Inten    --     36.7384               313.8551               733.0537

                     58                     59                     60
                      A                      A                      A
 Frequencies --   1894.6916              3091.6659              3140.0635
 Red. masses --     11.5058                 1.0606                 1.1043
 Frc consts  --     24.3357                 5.9731                 6.4151
 IR Inten    --    257.4907                 3.5104                 0.7373

                     61                     62                     63
                      A                      A                      A
 Frequencies --   3191.8702              3201.6297              3212.0222
 Red. masses --      1.0867                 1.0898                 1.0934
 Frc consts  --      6.5229                 6.5819                 6.6465
 IR Inten    --      0.6291                 6.7189                11.6220

                     64                     65                     66
                      A                      A                      A
 Frequencies --   3221.3042              3633.7665              3644.8931
 Red. masses --      1.0963                 1.0785                 1.0799
 Frc consts  --      6.7026                 8.3901                 8.4529
 IR Inten    --     14.0543                39.0507                82.6599

 - Thermochemistry -
 -------------------
 Temperature   298.150 Kelvin.  Pressure   1.00000 Atm.
 Atom     1 has atomic number  6 and mass  12.00000

 Molecular mass:   216.05349 amu.
 Principal axes and moments of inertia in atomic units:
                           1         2         3
     Eigenvalues --  2054.059424011.626184910.83158
           X            0.99966  -0.02610  -0.00113
           Y            0.02607   0.99953  -0.01623
           Z            0.00155   0.01620   0.99987
 This molecule is an asymmetric top.
 Rotational symmetry number  1.
 Warning -- assumption of classical behavior for rotation
           may cause significant error
 Rotational temperatures (Kelvin)      0.04217     0.02159     0.01764
 Rotational constants (GHZ):           0.87862     0.44988     0.36750
 Zero-point vibrational energy     468501.4 (Joules/Mol)
                                  111.97453 (Kcal/Mol)
 Warning -- explicit consideration of  19 degrees of freedom as
           vibrations may cause significant error
 Vibrational temperatures:     20.30    80.29   132.56   187.63   196.89
          (Kelvin)            308.35   364.04   397.21   447.54   489.54
                              592.27   607.47   677.71   723.25   773.58
                              799.84   822.32   847.32   868.44   908.67
                              928.17  1022.29  1057.85  1077.87  1086.79
                             1110.64  1121.93  1167.91  1286.81  1330.58
                             1387.32  1397.76  1439.99  1444.92  1505.61
                             1534.88  1563.28  1599.87  1652.65  1708.24
                             1718.30  1733.96  1817.46  1836.01  1876.36
                             1898.07  1955.90  1989.43  2001.52  2039.56
                             2113.01  2173.60  2186.18  2375.46  2386.96
                             2629.76  2674.00  2726.04  4448.22  4517.85
                             4592.39  4606.43  4621.38  4634.74  5228.18
                             5244.19

 Zero-point correction=                           0.178443 (Hartree/Particle)
 Thermal correction to Energy=                    0.190759
 Thermal correction to Enthalpy=                  0.191703
 Thermal correction to Gibbs Free Energy=         0.138099
 Sum of electronic and zero-point Energies=           -759.082064
 Sum of electronic and thermal Energies=              -759.069748
 Sum of electronic and thermal Enthalpies=            -759.068804
 Sum of electronic and thermal Free Energies=         -759.122408

                     E (Thermal)             CV                S
                      KCal/Mol        Cal/Mol-Kelvin    Cal/Mol-Kelvin
 Total                  119.703             48.150            112.819
 Electronic               0.000              0.000              0.000
 Translational            0.889              2.981             42.014
 Rotational               0.889              2.981             32.070
 Vibrational            117.925             42.189             38.734
 Vibration     1          0.593              1.986              7.327
 Vibration     2          0.596              1.975              4.600
 Vibration     3          0.602              1.955              3.614
 Vibration     4          0.612              1.923              2.940
 Vibration     5          0.614              1.917              2.847
 Vibration     6          0.644              1.819              2.007
 Vibration     7          0.664              1.758              1.709
 Vibration     8          0.678              1.718              1.558
 Vibration     9          0.700              1.653              1.357
 Vibration    10          0.720              1.595              1.211
 Vibration    11          0.776              1.445              0.921
 Vibration    12          0.785              1.422              0.884
 Vibration    13          0.828              1.314              0.735
 Vibration    14          0.858              1.244              0.651
 Vibration    15          0.893              1.167              0.570
 Vibration    16          0.911              1.127              0.532
 Vibration    17          0.928              1.093              0.501
 Vibration    18          0.946              1.055              0.469
 Vibration    19          0.962              1.024              0.444

                           ! Non-Optimized Parameters !
 Normal termination of Gaussian 16 at Thu Dec 10 21:20:37 2020.

 ----------------------------------------------------------------------
 # B3LYP/6-311++G(d,p) empiricaldispersion=gd3bj scf=xqc pop=npa geom=c
 heck
 ----------------------------------------------------------------------

 ---------------------------------------
 CID_129403946_JID_6014_Energie_neutraal
 ---------------------------------------
 Structure from the checkpoint file:  "JID_6014.chk"
 Charge =  0 Multiplicity = 1

 SCF Done:  E(RB3LYP) =  -759.476913249     A.U. after   15 cycles
 Normal termination of Gaussian 16 at Thu Dec 10 21:23:24 2020.

 ----------------------------------------------------------------------
 # B3LYP/6-311++G(d,p) empiricaldispersion=gd3bj scf=xqc pop=npa geom=c
 heck
 ----------------------------------------------------------------------

 -------------------------------------
 CID_129403946_JID_6014_Energie_kation
 -------------------------------------
 Structure from the checkpoint file:  "JID_6014.chk"
 Charge =  1 Multiplicity = 2

 SCF Done:  E(UB3LYP) =  -759.143157659     A.U. after   30 cycles
 Normal termination of Gaussian 16 at Thu Dec 10 21:30:47 2020.
 Gaussian 16:  ES64L-G16RevA.03 25-Dec-2016

 ----------------------------------------------------------------------
 # B3LYP/6-311++G(d,p) empiricaldispersion=gd3bj scf=xqc pop=npa geom=c
 heck
 ----------------------------------------------------------------------

 ------------------------------------
 CID_129403946_JID_6014_Energie_anion
 ------------------------------------
 Structure from the checkpoint file:  "JID_6014.chk"
 Charge = -1 Multiplicity = 2

                         Standard orientation:
 ---------------------------------------------------------------------
 Center     Atomic      Atomic             Coordinates (Angstroms)
 Number     Number       Type             X           Y           Z
 ---------------------------------------------------------------------
      1          6           0        0.033568    1.886345   -0.431412
      2          6           0        1.554192    1.679086   -0.359016
      3          8           0        2.394321    2.547810   -0.472030
      4          6           0        1.792075    0.232751   -0.142751
      5          6           0        3.012852   -0.438540   -0.054033
      6          6           0        2.992250   -1.819813    0.118605
      7          6           0        1.771456   -2.509127    0.194840
      8          6           0        0.553223   -1.832537    0.105215
      9          6           0        0.580031   -0.450423   -0.060515
     10          6           0       -0.607845    0.500119   -0.174859
     11          6           0       -1.440197    0.488529    1.130403
     12          8           0       -1.092333    0.913269    2.208355
     13          7           0       -2.639959   -0.101889    0.801685
     14          6           0       -2.760248   -0.402284   -0.571829
     15          8           0       -3.698823   -0.953721   -1.102239
     16          7           0       -1.603819    0.070757   -1.151851
     17          1           0       -0.247643    2.269410   -1.416992
     18          1           0       -0.269030    2.625979    0.315064
     19          1           0        3.941812    0.118857   -0.124133
     20          1           0        3.923727   -2.372908    0.193012
     21          1           0        1.775130   -3.587215    0.327011
     22          1           0       -0.386594   -2.374363    0.164752
     23          1           0       -3.403357   -0.235819    1.450752
     24          1           0       -1.341056   -0.289500   -2.058868
 ---------------------------------------------------------------------

 SCF Done:  E(UB3LYP) =  -759.501886935     A.U. after   25 cycles

 The electronic state is 2-A.
 Alpha  occ. eigenvalues --  -19.00850 -19.00710 -18.92957 -14.26617 -14.24241
 Alpha  occ. eigenvalues --  -10.21669 -10.18614 -10.12310 -10.07215 -10.04750
 Alpha  occ. eigenvalues --  -10.04590 -10.04099 -10.04057 -10.02787 -10.02603
 Alpha  occ. eigenvalues --  -10.01785  -0.98052  -0.95193  -0.88049  -0.87000
 Alpha  occ. eigenvalues --   -0.80822  -0.73140  -0.67842  -0.61788  -0.59785
 Alpha  occ. eigenvalues --   -0.57570  -0.55029  -0.51543  -0.48414  -0.45962
 Alpha  occ. eigenvalues --   -0.41982  -0.41757  -0.40228  -0.37210  -0.36261
 Alpha  occ. eigenvalues --   -0.35072  -0.33750  -0.33538  -0.32158  -0.30643
 Alpha  occ. eigenvalues --   -0.29680  -0.29427  -0.28553  -0.25956  -0.25217
 Alpha  occ. eigenvalues --   -0.24199  -0.22848  -0.21382  -0.21056  -0.19994
 Alpha  occ. eigenvalues --   -0.19678  -0.16857  -0.16670  -0.12497  -0.12320
 Alpha  occ. eigenvalues --   -0.08957   0.03680
 Alpha virt. eigenvalues --    0.07841   0.08736   0.09062   0.09847   0.10570
 Alpha virt. eigenvalues --    0.10918   0.11591   0.12428   0.13217   0.13319
 Alpha virt. eigenvalues --    0.13984   0.14808   0.15435   0.16019   0.17111

  Beta  occ. eigenvalues --  -19.00849 -19.00689 -18.92457 -14.26612 -14.24230
  Beta  occ. eigenvalues --  -10.21670 -10.18590 -10.12319 -10.06889 -10.04782
  Beta  occ. eigenvalues --  -10.04482 -10.04208 -10.04073 -10.02402 -10.02338
  Beta  occ. eigenvalues --  -10.01658  -0.98039  -0.95162  -0.88026  -0.86087
  Beta  occ. eigenvalues --   -0.80792  -0.72792  -0.67591  -0.61282  -0.59541
  Beta  occ. eigenvalues --   -0.57328  -0.54996  -0.51337  -0.47958  -0.45678
  Beta  occ. eigenvalues --   -0.41713  -0.41668  -0.40151  -0.37105  -0.36006
  Beta  occ. eigenvalues --   -0.34907  -0.33589  -0.33364  -0.31933  -0.30441
  Beta  occ. eigenvalues --   -0.29441  -0.29328  -0.28003  -0.25458  -0.24981
  Beta  occ. eigenvalues --   -0.23264  -0.22621  -0.21190  -0.20326  -0.19725
  Beta  occ. eigenvalues --   -0.18466  -0.16763  -0.16593  -0.11643  -0.10356
  Beta  occ. eigenvalues --   -0.08509
  Beta virt. eigenvalues --    0.07826   0.08781   0.08997   0.09709   0.10378
  Beta virt. eigenvalues --    0.10556   0.11125   0.11646   0.12409   0.13196
  Beta virt. eigenvalues --    0.13461   0.13997   0.14947   0.15468   0.16113

 Mulliken charges and spin densities:
               1          2
     1  C   -0.425897  -0.043952
     2  C   -0.422225   0.187336
     3  O   -0.415284   0.185591
     4  C    0.400972   0.062729
     5  C   -0.356898   0.237027
     6  C   -0.305685  -0.076452
     7  C   -0.489595   0.325850
     8  C   -0.223163  -0.054472
     9  C    0.544718   0.098648
    10  C    0.365630  -0.046046
    11  C   -0.149503   0.019854
    12  O   -0.340883   0.006837
    13  N   -0.256401   0.002442
    14  C    0.224551   0.005238
    15  O   -0.389286  -0.001528
    16  N   -0.176305   0.024368
    17  H    0.103957   0.068967
    18  H    0.192028   0.019828
    19  H    0.144477  -0.015049
    20  H    0.112887   0.005451
    21  H    0.112406  -0.025603
    22  H    0.135794   0.000995
    23  H    0.331020   0.000007
    24  H    0.282685   0.011935
 Sum of Mulliken charges =  -1.00000   1.00000

 Dipole moment (field-independent basis, Debye):
    X=             -4.8308    Y=             -2.8614    Z=             -0.2010  Tot=              5.6183
 Quadrupole moment (field-independent basis, Debye-Ang):
   XX=           -130.5046   YY=           -119.2888   ZZ=           -105.7048
   XY=            -14.0736   XZ=             -5.3602   YZ=             -2.1779

 Summary of Natural Population Analysis:

                                       Natural Population
                Natural  -----------------------------------------------
    Atom  No    Charge         Core      Valence    Rydberg      Total
 -----------------------------------------------------------------------
      C    1   -0.22635      0.99958     2.21885    0.00791     3.22635
      C    2    0.31778      0.99962     1.66197    0.02063     2.68222
      O    3   -0.25236      0.99987     3.24563    0.00686     4.25236
      C    4   -0.04506      0.99941     2.03384    0.01180     3.04506
      C    5   -0.02924      0.99953     2.02117    0.00854     3.02924
      C    6   -0.13089      0.99958     2.12256    0.00875     3.13089
      C    7   -0.02663      0.99959     2.01794    0.00910     3.02663
      C    8   -0.12109      0.99951     2.11348    0.00810     3.12109
      C    9    0.01081      0.99944     1.97917    0.01058     2.98919
      C   10    0.01823      0.99949     1.96625    0.01602     2.98177
      C   11    0.36060      0.99963     1.61459    0.02518     2.63940
      O   12   -0.29513      0.99987     3.28925    0.00602     4.29513
      N   13   -0.33424      0.99963     2.82596    0.00865     3.83424
      C   14    0.40508      0.99972     1.57089    0.02430     2.59492
      O   15   -0.32354      0.99987     3.31803    0.00564     4.32354
      N   16   -0.32217      0.99965     2.81259    0.00993     3.82217
      H   17    0.10795      0.00000     0.38984    0.00221     0.39205
      H   18    0.11476      0.00000     0.38431    0.00093     0.38524
      H   19    0.09828      0.00000     0.40018    0.00154     0.40172
      H   20    0.09065      0.00000     0.40834    0.00101     0.40935
      H   21    0.08519      0.00000     0.41337    0.00144     0.41481
      H   22    0.09333      0.00000     0.40526    0.00141     0.40667
      H   23    0.20263      0.00000     0.29568    0.00169     0.29737
      H   24    0.20142      0.00000     0.29713    0.00145     0.29858
 =======================================================================
   * Total *    0.00000     15.99401    39.80630    0.19970    56.00000

 Normal termination of Gaussian 16 at Thu Dec 10 21:37:44 2020.
