 Gaussian 16, Revision A.03,

 -----------------------------------------------------------
 # opt freq B3LYP/6-31G(d) empiricaldispersion=gd3bj scf=xqc
 -----------------------------------------------------------

 -------------------------------
 CID_154454736_JID_5414_neutraal
 -------------------------------
 Symbolic Z-matrix:
 Charge =  0 Multiplicity = 1

 SCF Done:  E(RB3LYP) =  -745.669640405     A.U. after   14 cycles
 SCF Done:  E(RB3LYP) =  -745.676573614     A.U. after   12 cycles
 SCF Done:  E(RB3LYP) =  -745.679360979     A.U. after   12 cycles
 SCF Done:  E(RB3LYP) =  -745.681348542     A.U. after   13 cycles
 SCF Done:  E(RB3LYP) =  -745.683021420     A.U. after   12 cycles
 SCF Done:  E(RB3LYP) =  -745.683917733     A.U. after   12 cycles
 SCF Done:  E(RB3LYP) =  -745.684425162     A.U. after   12 cycles
 SCF Done:  E(RB3LYP) =  -745.684615300     A.U. after   12 cycles
 SCF Done:  E(RB3LYP) =  -745.684675784     A.U. after   11 cycles
 SCF Done:  E(RB3LYP) =  -745.684751046     A.U. after   11 cycles
 SCF Done:  E(RB3LYP) =  -745.684776223     A.U. after    9 cycles
 SCF Done:  E(RB3LYP) =  -745.684780438     A.U. after    9 cycles
 SCF Done:  E(RB3LYP) =  -745.684782100     A.U. after    8 cycles
 SCF Done:  E(RB3LYP) =  -745.684782882     A.U. after    8 cycles
 SCF Done:  E(RB3LYP) =  -745.684782938     A.U. after    7 cycles
 Optimization completed.
    -- Stationary point found.
 Normal termination of Gaussian 16 at Thu Dec 10 15:57:24 2020.

 --------------------------------------------------------------------
 #N Geom=AllCheck Guess=TCheck SCRF=Check GenChk RB3LYP/6-31G(d) Freq
 --------------------------------------------------------------------

 Structure from the checkpoint file:  "JID_5414.chk"
 -------------------------------
 CID_154454736_JID_5414_neutraal
 -------------------------------
 Charge =  0 Multiplicity = 1

 SCF Done:  E(RB3LYP) =  -745.684782938     A.U. after    1 cycles

  Exact polarizability: 146.859  -5.533 139.625  -2.510   3.274  82.977
 Approx polarizability: 211.823  -8.691 214.214  -3.720   8.828 118.923

                      1                      2                      3
                      A                      A                      A
 Frequencies --     41.7040                77.4766                82.5518
 Red. masses --      3.6335                 3.6813                 2.4058
 Frc consts  --      0.0037                 0.0130                 0.0097
 IR Inten    --      1.1156                 2.8713                 7.4847

                      4                      5                      6
                      A                      A                      A
 Frequencies --     93.6049                99.6647               146.6279
 Red. masses --      3.1103                 3.0620                 3.2580
 Frc consts  --      0.0161                 0.0179                 0.0413
 IR Inten    --      3.7203                 0.0111                 1.5424

                      7                      8                      9
                      A                      A                      A
 Frequencies --    150.6322               175.1644               181.2361
 Red. masses --      1.9382                 1.1892                 2.0190
 Frc consts  --      0.0259                 0.0215                 0.0391
 IR Inten    --      2.1239                 2.2690                 1.4577

                     10                     11                     12
                      A                      A                      A
 Frequencies --    211.5735               227.7381               236.8532
 Red. masses --      2.4146                 2.3303                 2.0055
 Frc consts  --      0.0637                 0.0712                 0.0663
 IR Inten    --     20.1480                 9.3933                27.8891

                     13                     14                     15
                      A                      A                      A
 Frequencies --    259.3205               275.6527               304.9702
 Red. masses --      2.0831                 1.3969                 4.7147
 Frc consts  --      0.0825                 0.0625                 0.2584
 IR Inten    --     38.1273                 0.1135                 1.0016

                     16                     17                     18
                      A                      A                      A
 Frequencies --    332.4794               341.3610               352.4566
 Red. masses --      4.4988                 3.7225                 5.0111
 Frc consts  --      0.2930                 0.2556                 0.3668
 IR Inten    --      2.2900                 0.5019                 1.1152

                     19                     20                     21
                      A                      A                      A
 Frequencies --    396.8280               471.1925               502.9031
 Red. masses --      3.8759                 3.5423                 4.8333
 Frc consts  --      0.3596                 0.4634                 0.7202
 IR Inten    --     14.0631                10.7478                 2.3310

                     22                     23                     24
                      A                      A                      A
 Frequencies --    535.8086               574.0739               589.5734
 Red. masses --      3.6473                 5.5803                 5.1006
 Frc consts  --      0.6169                 1.0835                 1.0446
 IR Inten    --      5.0275                10.5326                 3.2478

                     25                     26                     27
                      A                      A                      A
 Frequencies --    595.1426               674.2179               749.9152
 Red. masses --      4.2310                 6.4224                 4.7717
 Frc consts  --      0.8830                 1.7201                 1.5811
 IR Inten    --      3.5545                18.0239                 1.9530

                     28                     29                     30
                      A                      A                      A
 Frequencies --    764.0169               768.6669               813.2478
 Red. masses --      5.5257                 1.3036                 5.3629
 Frc consts  --      1.9004                 0.4538                 2.0898
 IR Inten    --      0.8871                53.9961                14.7377

                     31                     32                     33
                      A                      A                      A
 Frequencies --    862.6319               897.4683               950.9671
 Red. masses --      1.4462                 2.7819                 1.3387
 Frc consts  --      0.6341                 1.3202                 0.7133
 IR Inten    --      0.3140                89.0197                 4.9059

                     34                     35                     36
                      A                      A                      A
 Frequencies --    978.5256               979.9912              1026.5930
 Red. masses --      1.3626                 3.0859                 6.8142
 Frc consts  --      0.7687                 1.7461                 4.2312
 IR Inten    --      9.0634                87.9558                 2.2045

                     37                     38                     39
                      A                      A                      A
 Frequencies --   1049.2117              1077.8454              1094.1392
 Red. masses --      5.1999                 6.6295                 2.4266
 Frc consts  --      3.3726                 4.5378                 1.7116
 IR Inten    --     10.8961                52.7566                25.0795

                     40                     41                     42
                      A                      A                      A
 Frequencies --   1109.6273              1157.1145              1164.4916
 Red. masses --      4.1344                 3.7115                 1.8086
 Frc consts  --      2.9993                 2.9279                 1.4450
 IR Inten    --     50.1049               229.2325                17.8223

                     43                     44                     45
                      A                      A                      A
 Frequencies --   1180.0732              1184.8261              1187.0615
 Red. masses --      1.5812                 1.3091                 1.7719
 Frc consts  --      1.2974                 1.0827                 1.4710
 IR Inten    --      8.9462                14.8040                96.5827

                     46                     47                     48
                      A                      A                      A
 Frequencies --   1194.4215              1201.3271              1217.2608
 Red. masses --      1.4010                 1.0974                 1.6502
 Frc consts  --      1.1776                 0.9332                 1.4406
 IR Inten    --     33.5051                 5.1654                26.4519

                     49                     50                     51
                      A                      A                      A
 Frequencies --   1223.5401              1230.1781              1271.2193
 Red. masses --      1.5179                 1.5262                 2.8210
 Frc consts  --      1.3388                 1.3608                 2.6860
 IR Inten    --     24.1775                15.9296                61.8161

                     52                     53                     54
                      A                      A                      A
 Frequencies --   1303.2364              1334.8633              1363.2378
 Red. masses --      3.3689                 1.6757                 7.2162
 Frc consts  --      3.3712                 1.7592                 7.9014
 IR Inten    --    173.3794                97.0889                11.2573

                     55                     56                     57
                      A                      A                      A
 Frequencies --   1373.5006              1487.7749              1490.6196
 Red. masses --      1.2278                 1.3670                 1.2501
 Frc consts  --      1.3647                 1.7828                 1.6365
 IR Inten    --    105.1341                29.4208                19.4848

                     58                     59                     60
                      A                      A                      A
 Frequencies --   1496.1499              1510.7314              1514.7866
 Red. masses --      1.1568                 1.6637                 1.0649
 Frc consts  --      1.5257                 2.2372                 1.4397
 IR Inten    --      4.2677                 2.9124                 0.5321

                     61                     62                     63
                      A                      A                      A
 Frequencies --   1516.9296              1522.0463              1532.2927
 Red. masses --      1.0562                 1.0489                 1.1715
 Frc consts  --      1.4320                 1.4316                 1.6206
 IR Inten    --      1.9483                 4.5569                69.9711

                     64                     65                     66
                      A                      A                      A
 Frequencies --   1534.2475              1537.7899              1544.0963
 Red. masses --      1.1074                 1.0694                 1.0629
 Frc consts  --      1.5358                 1.4900                 1.4931
 IR Inten    --      4.7534                 5.6966                 5.0121

                     67                     68                     69
                      A                      A                      A
 Frequencies --   1550.9670              1644.7888              1663.2088
 Red. masses --      1.8864                 6.2788                 5.7644
 Frc consts  --      2.6736                10.0080                 9.3951
 IR Inten    --     45.1588                16.5768                49.7734

                     70                     71                     72
                      A                      A                      A
 Frequencies --   3024.9527              3038.1175              3061.0369
 Red. masses --      1.0351                 1.0318                 1.0284
 Frc consts  --      5.5803                 5.6111                 5.6776
 IR Inten    --     57.4513                43.4346                58.5577

                     73                     74                     75
                      A                      A                      A
 Frequencies --   3084.2014              3098.5057              3135.3080
 Red. masses --      1.1064                 1.1059                 1.1063
 Frc consts  --      6.2008                 6.2555                 6.4075
 IR Inten    --     40.7859                34.1325                38.0197

                     76                     77                     78
                      A                      A                      A
 Frequencies --   3143.7506              3146.9216              3160.2835
 Red. masses --      1.1027                 1.1070                 1.0994
 Frc consts  --      6.4211                 6.4590                 6.4696
 IR Inten    --     30.9685                29.9687                21.9982

                     79                     80                     81
                      A                      A                      A
 Frequencies --   3188.6736              3206.6982              3226.4454
 Red. masses --      1.0865                 1.0922                 1.0921
 Frc consts  --      6.5087                 6.6172                 6.6985
 IR Inten    --      4.9095                23.7296                11.3254

                     82                     83                     84
                      A                      A                      A
 Frequencies --   3232.7063              3488.0062              3753.0118
 Red. masses --      1.0918                 1.0747                 1.0680
 Frc consts  --      6.7227                 7.7038                 8.8629
 IR Inten    --      9.2255                 3.0492                30.0286

 - Thermochemistry -
 -------------------
 Temperature   298.150 Kelvin.  Pressure   1.00000 Atm.
 Atom     1 has atomic number  6 and mass  12.00000

 Molecular mass:   213.10011 amu.
 Principal axes and moments of inertia in atomic units:
                           1         2         3
     Eigenvalues --  2086.328043414.453034449.77413
           X            0.99998   0.00563  -0.00382
           Y           -0.00567   0.99993  -0.01017
           Z            0.00376   0.01019   0.99994
 This molecule is an asymmetric top.
 Rotational symmetry number  1.
 Warning -- assumption of classical behavior for rotation
           may cause significant error
 Rotational temperatures (Kelvin)      0.04152     0.02537     0.01946
 Rotational constants (GHZ):           0.86503     0.52856     0.40558
 Zero-point vibrational energy     653011.8 (Joules/Mol)
                                  156.07358 (Kcal/Mol)
 Warning -- explicit consideration of  25 degrees of freedom as
           vibrations may cause significant error
 Vibrational temperatures:     60.00   111.47   118.77   134.68   143.40
          (Kelvin)            210.96   216.73   252.02   260.76   304.41
                              327.66   340.78   373.10   396.60   438.78
                              478.36   491.14   507.11   570.95   677.94
                              723.57   770.91   825.96   848.26   856.28
                              970.05  1078.96  1099.25  1105.94  1170.08
                             1241.13  1291.26  1368.23  1407.88  1409.99
                             1477.04  1509.58  1550.78  1574.22  1596.51
                             1664.83  1675.44  1697.86  1704.70  1707.92
                             1718.51  1728.44  1751.37  1760.40  1769.95
                             1829.00  1875.07  1920.57  1961.40  1976.16
                             2140.58  2144.67  2152.63  2173.61  2179.44
                             2182.52  2189.89  2204.63  2207.44  2212.54
                             2221.61  2231.50  2366.48  2392.99  4352.23
                             4371.17  4404.15  4437.48  4458.06  4511.01
                             4523.16  4527.72  4546.94  4587.79  4613.72
                             4642.14  4651.14  5018.46  5399.75

 Zero-point correction=                           0.248719 (Hartree/Particle)
 Thermal correction to Energy=                    0.264549
 Thermal correction to Enthalpy=                  0.265493
 Thermal correction to Gibbs Free Energy=         0.206036
 Sum of electronic and zero-point Energies=           -745.436064
 Sum of electronic and thermal Energies=              -745.420234
 Sum of electronic and thermal Enthalpies=            -745.419290
 Sum of electronic and thermal Free Energies=         -745.478747

                     E (Thermal)             CV                S
                      KCal/Mol        Cal/Mol-Kelvin    Cal/Mol-Kelvin
 Total                  166.007             58.198            125.138
 Electronic               0.000              0.000              0.000
 Translational            0.889              2.981             41.973
 Rotational               0.889              2.981             31.828
 Vibrational            164.229             52.236             51.337
 Vibration     1          0.594              1.981              5.176
 Vibration     2          0.599              1.964              3.954
 Vibration     3          0.600              1.961              3.829
 Vibration     4          0.603              1.954              3.583
 Vibration     5          0.604              1.949              3.461
 Vibration     6          0.617              1.906              2.716
 Vibration     7          0.618              1.902              2.664
 Vibration     8          0.627              1.873              2.379
 Vibration     9          0.630              1.865              2.316
 Vibration    10          0.643              1.823              2.030
 Vibration    11          0.651              1.799              1.897
 Vibration    12          0.656              1.784              1.826
 Vibration    13          0.668              1.747              1.666
 Vibration    14          0.677              1.718              1.560
 Vibration    15          0.696              1.664              1.389
 Vibration    16          0.714              1.611              1.248
 Vibration    17          0.721              1.593              1.206
 Vibration    18          0.729              1.570              1.155
 Vibration    19          0.763              1.477              0.974
 Vibration    20          0.828              1.314              0.734
 Vibration    21          0.858              1.244              0.651
 Vibration    22          0.891              1.171              0.574
 Vibration    23          0.930              1.087              0.496
 Vibration    24          0.947              1.054              0.468
 Vibration    25          0.953              1.042              0.458

 Optimization completed.
    -- Stationary point found.
 Normal termination of Gaussian 16 at Thu Dec 10 16:07:23 2020.

 ----------------------------------------------------------------------
 # B3LYP/6-311++G(d,p) empiricaldispersion=gd3bj scf=xqc pop=npa geom=c
 heck
 ----------------------------------------------------------------------

 ---------------------------------------
 CID_154454736_JID_5414_Energie_neutraal
 ---------------------------------------
 Structure from the checkpoint file:  "JID_5414.chk"
 Charge =  0 Multiplicity = 1

 SCF Done:  E(RB3LYP) =  -745.909335851     A.U. after   15 cycles
 Normal termination of Gaussian 16 at Thu Dec 10 16:11:47 2020.

 ----------------------------------------------------------------------
 # B3LYP/6-311++G(d,p) empiricaldispersion=gd3bj scf=xqc pop=npa geom=c
 heck
 ----------------------------------------------------------------------

 -------------------------------------
 CID_154454736_JID_5414_Energie_kation
 -------------------------------------
 Structure from the checkpoint file:  "JID_5414.chk"
 Charge =  1 Multiplicity = 2

 SCF Done:  E(UB3LYP) =  -745.617267771     A.U. after   23 cycles
 Normal termination of Gaussian 16 at Thu Dec 10 16:22:17 2020.
 Gaussian 16:  ES64L-G16RevA.03 25-Dec-2016

 ----------------------------------------------------------------------
 # B3LYP/6-311++G(d,p) empiricaldispersion=gd3bj scf=xqc pop=npa geom=c
 heck
 ----------------------------------------------------------------------

 ------------------------------------
 CID_154454736_JID_5414_Energie_anion
 ------------------------------------
 Structure from the checkpoint file:  "JID_5414.chk"
 Charge = -1 Multiplicity = 2

                         Standard orientation:
 ---------------------------------------------------------------------
 Center     Atomic      Atomic             Coordinates (Angstroms)
 Number     Number       Type             X           Y           Z
 ---------------------------------------------------------------------
      1          6           0        1.936110    2.736351    0.196874
      2          8           0        0.977214    1.697933    0.111732
      3          6           0        1.415790    0.421797   -0.063115
      4          6           0        2.771147    0.078598   -0.113682
      5          6           0        3.154274   -1.257478   -0.247443
      6          6           0        2.194190   -2.259771   -0.318235
      7          6           0        0.841642   -1.913532   -0.268049
      8          6           0        0.428383   -0.585415   -0.166897
      9          6           0       -1.050794   -0.194983   -0.133190
     10          7           0       -1.866378   -1.403176   -0.375130
     11          8           0       -3.244829   -0.994109   -0.460597
     12          8           0       -1.445013    0.350131    1.102914
     13          6           0       -1.081131   -0.399075    2.252261
     14          8           0       -1.261433    0.758996   -1.139116
     15          6           0       -2.085519    1.884039   -0.851227
     16          1           0        1.364269    3.657316    0.320473
     17          1           0        2.540347    2.803301   -0.717170
     18          1           0        2.601898    2.603616    1.060053
     19          1           0        3.533289    0.844970   -0.043806
     20          1           0        4.211692   -1.504434   -0.284799
     21          1           0        2.485937   -3.301732   -0.405435
     22          1           0        0.088859   -2.692990   -0.294173
     23          1           0       -1.670611   -1.695814   -1.332742
     24          1           0       -3.587274   -1.251649    0.409146
     25          1           0       -1.408521   -1.442914    2.174468
     26          1           0        0.002903   -0.381303    2.417806
     27          1           0       -1.583485    0.082328    3.094678
     28          1           0       -3.083103    1.581151   -0.523572
     29          1           0       -1.624556    2.526427   -0.094996
     30          1           0       -2.159058    2.427151   -1.797264
 ---------------------------------------------------------------------

 SCF Done:  E(UB3LYP) =  -745.895147612     A.U. after   33 cycles
 SCF Done:  E(UB3LYP) =  -745.895147612     a.u. after    1 cycles

 The electronic state is 2-A.
 Alpha  occ. eigenvalues --  -19.05705 -19.05509 -19.03647 -19.02552 -14.25991
 Alpha  occ. eigenvalues --  -10.21234 -10.14350 -10.12107 -10.11436 -10.10416
 Alpha  occ. eigenvalues --  -10.08741 -10.08283 -10.08256 -10.07681 -10.07493
 Alpha  occ. eigenvalues --   -1.00059  -0.97377  -0.95362  -0.91560  -0.76835
 Alpha  occ. eigenvalues --   -0.74030  -0.67018  -0.65471  -0.62088  -0.60183
 Alpha  occ. eigenvalues --   -0.59013  -0.53348  -0.50393  -0.48557  -0.44955
 Alpha  occ. eigenvalues --   -0.43274  -0.42377  -0.41104  -0.39042  -0.38540
 Alpha  occ. eigenvalues --   -0.37289  -0.36879  -0.35662  -0.34484  -0.33938
 Alpha  occ. eigenvalues --   -0.33249  -0.32186  -0.31429  -0.31250  -0.28369
 Alpha  occ. eigenvalues --   -0.28272  -0.26727  -0.24528  -0.23722  -0.23134
 Alpha  occ. eigenvalues --   -0.22572  -0.21547  -0.19313  -0.18469  -0.16430
 Alpha  occ. eigenvalues --   -0.14287  -0.13079   0.04316
 Alpha virt. eigenvalues --    0.05997   0.06611   0.07199   0.08143   0.08345
 Alpha virt. eigenvalues --    0.08625   0.09149   0.09807   0.10148   0.10720
 Alpha virt. eigenvalues --    0.10851   0.11367   0.12482   0.13021   0.13989

  Beta  occ. eigenvalues --  -19.05681 -19.05500 -19.03643 -19.02548 -14.25978
  Beta  occ. eigenvalues --  -10.21233 -10.14349 -10.12055 -10.11407 -10.10409
  Beta  occ. eigenvalues --  -10.08741 -10.08279 -10.08241 -10.07664 -10.07483
  Beta  occ. eigenvalues --   -1.00041  -0.97356  -0.95327  -0.91553  -0.76817
  Beta  occ. eigenvalues --   -0.73993  -0.66989  -0.65446  -0.62054  -0.60123
  Beta  occ. eigenvalues --   -0.58981  -0.53322  -0.50351  -0.48527  -0.44916
  Beta  occ. eigenvalues --   -0.43251  -0.42343  -0.41079  -0.38988  -0.38511
  Beta  occ. eigenvalues --   -0.37257  -0.36844  -0.35642  -0.34455  -0.33913
  Beta  occ. eigenvalues --   -0.33220  -0.32156  -0.31403  -0.31230  -0.28335
  Beta  occ. eigenvalues --   -0.28251  -0.26699  -0.24507  -0.23690  -0.23112
  Beta  occ. eigenvalues --   -0.22551  -0.21524  -0.19291  -0.18453  -0.16419
  Beta  occ. eigenvalues --   -0.14266  -0.13068
  Beta virt. eigenvalues --    0.06480   0.07020   0.07295   0.07473   0.08456
  Beta virt. eigenvalues --    0.08904   0.09009   0.09238   0.10144   0.10826
  Beta virt. eigenvalues --    0.11189   0.11341   0.11598   0.12678   0.13123

 Mulliken charges and spin densities:
               1          2
     1  C    1.155012  -1.406796
     2  O   -0.188051   0.045307
     3  C   -0.654390   0.442932
     4  C   -0.322764   0.104113
     5  C    1.332175  -1.781624
     6  C    0.759690  -1.239420
     7  C   -1.144475   0.679702
     8  C    0.459214   0.431066
     9  C   -0.327974   0.081761
    10  N   -0.279268  -0.120665
    11  O   -0.084932   0.007058
    12  O   -0.140558   0.012509
    13  C    0.573102  -0.826830
    14  O    0.021298  -0.003473
    15  C   -0.012860  -0.245405
    16  H   -0.404636   0.576090
    17  H   -0.223924   0.380093
    18  H   -0.444056   0.594948
    19  H   -0.445245   0.638471
    20  H   -0.606617   0.776053
    21  H   -0.257931   0.426345
    22  H    0.077498   0.107773
    23  H    0.190764   0.093481
    24  H    0.002666   0.265213
    25  H   -0.150561   0.320402
    26  H    0.127079   0.028364
    27  H   -0.289187   0.434571
    28  H    0.089180   0.069168
    29  H    0.101232   0.054606
    30  H    0.088519   0.054189
 Sum of Mulliken charges =  -1.00000   1.00000

 Dipole moment (field-independent basis, Debye):
    X=             -4.2946    Y=             -1.6147    Z=             -1.6546  Tot=              4.8773
 Quadrupole moment (field-independent basis, Debye-Ang):
   XX=           -161.5828   YY=           -137.1294   ZZ=           -122.4102
   XY=             -8.1674   XZ=              1.2825   YZ=             -1.4913

 Summary of Natural Population Analysis:

                                       Natural Population
                Natural  -----------------------------------------------
    Atom  No    Charge         Core      Valence    Rydberg      Total
 -----------------------------------------------------------------------
      C    1   -0.09997      0.99959     2.09124    0.00914     3.09997
      O    2   -0.26739      0.99985     3.25662    0.01091     4.26739
      C    3    0.17630      0.99935     1.80974    0.01462     2.82370
      C    4   -0.14089      0.99952     2.13173    0.00964     3.14089
      C    5   -0.08673      0.99957     2.07684    0.01032     3.08673
      C    6   -0.11735      0.99956     2.10733    0.01047     3.11735
      C    7   -0.09248      0.99952     2.08351    0.00945     3.09248
      C    8   -0.06568      0.99941     2.05334    0.01293     3.06568
      C    9    0.37359      0.99954     1.60110    0.02578     2.62641
      N   10   -0.19475      0.99968     2.68146    0.01362     3.69475
      O   11   -0.29515      0.99991     3.28738    0.00786     4.29515
      O   12   -0.30459      0.99985     3.29439    0.01034     4.30459
      C   13   -0.10264      0.99959     2.09340    0.00965     3.10264
      O   14   -0.30544      0.99985     3.29613    0.00946     4.30544
      C   15   -0.09769      0.99958     2.08998    0.00813     3.09769
      H   16    0.09489      0.00000     0.40377    0.00134     0.40511
      H   17    0.08579      0.00000     0.41238    0.00183     0.41421
      H   18    0.08711      0.00000     0.41060    0.00229     0.41289
      H   19    0.11007      0.00000     0.38778    0.00215     0.38993
      H   20    0.10257      0.00000     0.39586    0.00157     0.39743
      H   21    0.10120      0.00000     0.39785    0.00096     0.39880
      H   22    0.10785      0.00000     0.39056    0.00160     0.39215
      H   23    0.17271      0.00000     0.32473    0.00256     0.32729
      H   24    0.23258      0.00000     0.26349    0.00393     0.26742
      H   25    0.08639      0.00000     0.41157    0.00204     0.41361
      H   26    0.08689      0.00000     0.41167    0.00145     0.41311
      H   27    0.09119      0.00000     0.40769    0.00112     0.40881
      H   28    0.08867      0.00000     0.40984    0.00149     0.41133
      H   29    0.08868      0.00000     0.40961    0.00171     0.41132
      H   30    0.08430      0.00000     0.41474    0.00096     0.41570
 =======================================================================
   * Total *    0.00000     14.99437    41.80633    0.19929    57.00000

 Normal termination of Gaussian 16 at Thu Dec 10 16:38:33 2020.
