 Gaussian 16, Revision A.03,

 -----------------------------------------------------------
 # opt freq B3LYP/6-31G(d) empiricaldispersion=gd3bj scf=xqc
 -----------------------------------------------------------

 ------------------------------
 CID_88452538_JID_8790_neutraal
 ------------------------------
 Symbolic Z-matrix:
 Charge =  0 Multiplicity = 1

 SCF Done:  E(RB3LYP) =  -784.575579590     A.U. after   15 cycles
 SCF Done:  E(RB3LYP) =  -784.594813385     A.U. after   13 cycles
 SCF Done:  E(RB3LYP) =  -784.595798256     A.U. after   13 cycles
 SCF Done:  E(RB3LYP) =  -784.591296721     A.U. after   14 cycles
 SCF Done:  E(RB3LYP) =  -784.595595515     A.U. after   13 cycles
 SCF Done:  E(RB3LYP) =  -784.596403421     A.U. after   10 cycles
 SCF Done:  E(RB3LYP) =  -784.596394118     A.U. after   11 cycles
 SCF Done:  E(RB3LYP) =  -784.595424470     A.U. after   13 cycles
 SCF Done:  E(RB3LYP) =  -784.596660315     A.U. after   11 cycles
 SCF Done:  E(RB3LYP) =  -784.596689801     A.U. after   11 cycles
 SCF Done:  E(RB3LYP) =  -784.596697010     A.U. after    8 cycles
 SCF Done:  E(RB3LYP) =  -784.596697175     A.U. after    7 cycles
 SCF Done:  E(RB3LYP) =  -784.596697340     A.U. after    8 cycles
 SCF Done:  E(RB3LYP) =  -784.596697402     A.U. after    7 cycles
 SCF Done:  E(RB3LYP) =  -784.596697423     A.U. after    6 cycles
 Optimization completed.
    -- Stationary point found.
 Normal termination of Gaussian 16 at Fri Dec 11 21:15:12 2020.

 --------------------------------------------------------------------
 #N Geom=AllCheck Guess=TCheck SCRF=Check GenChk RB3LYP/6-31G(d) Freq
 --------------------------------------------------------------------

 Structure from the checkpoint file:  "JID_8790.chk"
 ------------------------------
 CID_88452538_JID_8790_neutraal
 ------------------------------
 Charge =  0 Multiplicity = 1

 SCF Done:  E(RB3LYP) =  -784.596697423     A.U. after    1 cycles

  Exact polarizability: 179.943  29.953 146.300  -4.153  -5.932 140.696
 Approx polarizability: 257.515  49.022 223.780 -16.568 -15.724 256.279

                      1                      2                      3
                      A                      A                      A
 Frequencies --     22.4029                33.9967                37.6053
 Red. masses --      5.9210                 4.4547                 5.1772
 Frc consts  --      0.0018                 0.0030                 0.0043
 IR Inten    --      0.4795                 0.7437                 0.4422

                      4                      5                      6
                      A                      A                      A
 Frequencies --     70.6627                84.1386                98.9312
 Red. masses --      5.0110                 4.9373                 5.4098
 Frc consts  --      0.0147                 0.0206                 0.0312
 IR Inten    --      0.7316                 1.4323                 1.2274

                      7                      8                      9
                      A                      A                      A
 Frequencies --    146.6035               190.2147               200.1167
 Red. masses --      4.6833                 4.8834                 4.5357
 Frc consts  --      0.0593                 0.1041                 0.1070
 IR Inten    --      0.4076                 0.9893                 0.4364

                     10                     11                     12
                      A                      A                      A
 Frequencies --    233.4504               274.4252               312.1462
 Red. masses --      4.4335                 5.0042                 5.2104
 Frc consts  --      0.1424                 0.2220                 0.2991
 IR Inten    --      1.2794                 1.4776                 0.8112

                     13                     14                     15
                      A                      A                      A
 Frequencies --    340.5079               376.2655               412.8492
 Red. masses --      4.7368                 1.4015                 2.3499
 Frc consts  --      0.3236                 0.1169                 0.2360
 IR Inten    --      1.4232               104.7311                88.7006

                     16                     17                     18
                      A                      A                      A
 Frequencies --    424.4080               446.3322               485.3137
 Red. masses --      3.6739                 2.7568                 3.4347
 Frc consts  --      0.3899                 0.3236                 0.4766
 IR Inten    --      1.7348                 1.6268                 3.4797

                     19                     20                     21
                      A                      A                      A
 Frequencies --    519.1395               525.3352               549.4251
 Red. masses --      4.2715                 3.5448                 4.8936
 Frc consts  --      0.6783                 0.5764                 0.8704
 IR Inten    --      1.8516                 0.2147                 1.2100

                     22                     23                     24
                      A                      A                      A
 Frequencies --    568.6716               597.8519               605.5109
 Red. masses --      6.6204                 1.3428                 5.2949
 Frc consts  --      1.2614                 0.2828                 1.1438
 IR Inten    --     16.4127                44.0953                10.0244

                     25                     26                     27
                      A                      A                      A
 Frequencies --    639.9057               641.6254               653.0438
 Red. masses --      2.1101                 2.0577                 5.2070
 Frc consts  --      0.5091                 0.4991                 1.3083
 IR Inten    --     17.1157                21.7385                 0.5832

                     28                     29                     30
                      A                      A                      A
 Frequencies --    689.8518               737.2109               748.1972
 Red. masses --      3.2638                 4.9126                 3.0611
 Frc consts  --      0.9151                 1.5730                 1.0096
 IR Inten    --     13.0616                 0.1690                 0.7216

                     31                     32                     33
                      A                      A                      A
 Frequencies --    780.5419               784.4104               787.9765
 Red. masses --      1.4883                 2.2156                 2.2997
 Frc consts  --      0.5342                 0.8032                 0.8413
 IR Inten    --     19.6080                29.9105                22.8966

                     34                     35                     36
                      A                      A                      A
 Frequencies --    832.7160               876.4087               879.5466
 Red. masses --      3.6452                 2.1053                 1.3347
 Frc consts  --      1.4893                 0.9527                 0.6083
 IR Inten    --     11.9513                12.4377                 1.4948

                     37                     38                     39
                      A                      A                      A
 Frequencies --    892.5422               903.6012               928.8603
 Red. masses --      2.4381                 2.9237                 3.6573
 Frc consts  --      1.1443                 1.4065                 1.8591
 IR Inten    --     13.6743                31.1484                 1.6379

                     40                     41                     42
                      A                      A                      A
 Frequencies --    948.9046               971.7161               979.5478
 Red. masses --      1.3966                 1.3828                 1.2474
 Frc consts  --      0.7409                 0.7693                 0.7052
 IR Inten    --      2.0314                 0.2537                 0.3585

                     43                     44                     45
                      A                      A                      A
 Frequencies --    995.7640              1009.2132              1034.4260
 Red. masses --      1.2701                 6.7096                 2.3794
 Frc consts  --      0.7420                 4.0264                 1.5001
 IR Inten    --      0.0307                 4.6150                13.5218

                     46                     47                     48
                      A                      A                      A
 Frequencies --   1064.7990              1072.0490              1076.5260
 Red. masses --      3.8030                 2.0831                 2.0599
 Frc consts  --      2.5405                 1.4106                 1.4065
 IR Inten    --     80.4191                 1.2094                11.4760

                     49                     50                     51
                      A                      A                      A
 Frequencies --   1129.4852              1132.3062              1177.5847
 Red. masses --      1.7365                 1.8307                 1.1247
 Frc consts  --      1.3052                 1.3829                 0.9189
 IR Inten    --     30.5043                38.5750                10.6327

                     52                     53                     54
                      A                      A                      A
 Frequencies --   1190.7684              1207.0738              1233.4737
 Red. masses --      1.1206                 1.6709                 1.4340
 Frc consts  --      0.9361                 1.4344                 1.2855
 IR Inten    --      2.8817                30.4862                 4.8583

                     55                     56                     57
                      A                      A                      A
 Frequencies --   1253.5006              1265.5979              1310.6594
 Red. masses --      2.5221                 1.4594                 3.9665
 Frc consts  --      2.3348                 1.3773                 4.0146
 IR Inten    --     44.8064                 0.2994               333.0595

                     58                     59                     60
                      A                      A                      A
 Frequencies --   1317.3919              1328.5308              1334.4748
 Red. masses --      1.4670                 1.6555                 1.9064
 Frc consts  --      1.5001                 1.7215                 2.0003
 IR Inten    --      8.5460                33.3894                20.1723

                     61                     62                     63
                      A                      A                      A
 Frequencies --   1345.6591              1368.1189              1387.7548
 Red. masses --      3.7681                 3.3950                 1.3917
 Frc consts  --      4.0201                 3.7440                 1.5791
 IR Inten    --     77.3218                 2.4933                10.7418

                     64                     65                     66
                      A                      A                      A
 Frequencies --   1442.8654              1478.6270              1499.9326
 Red. masses --      1.2136                 2.3939                 2.2125
 Frc consts  --      1.4886                 3.0837                 2.9327
 IR Inten    --     58.0604               182.9043                22.5243

                     67                     68                     69
                      A                      A                      A
 Frequencies --   1511.0388              1518.7866              1543.4636
 Red. masses --      1.1816                 2.1294                 2.6358
 Frc consts  --      1.5896                 2.8940                 3.6996
 IR Inten    --      9.0365               113.9975                36.0603

                     70                     71                     72
                      A                      A                      A
 Frequencies --   1633.9929              1641.5827              1655.3358
 Red. masses --      6.3794                 6.0037                 5.8163
 Frc consts  --     10.0353                 9.5322                 9.3901
 IR Inten    --     38.4117                40.7584               116.8005

                     73                     74                     75
                      A                      A                      A
 Frequencies --   1670.0283              2239.2797              3069.3869
 Red. masses --      6.3651                 5.9448                 1.0805
 Frc consts  --     10.4593                17.5633                 5.9976
 IR Inten    --      4.9183                 1.8967                10.7047

                     76                     77                     78
                      A                      A                      A
 Frequencies --   3083.2470              3141.4002              3178.8632
 Red. masses --      1.0688                 1.0992                 1.0894
 Frc consts  --      5.9862                 6.3913                 6.4859
 IR Inten    --     33.1916                11.9392                20.7080

                     79                     80                     81
                      A                      A                      A
 Frequencies --   3187.8438              3197.8193              3199.4500
 Red. masses --      1.0858                 1.0898                 1.0890
 Frc consts  --      6.5010                 6.5658                 6.5678
 IR Inten    --      0.5316                10.6347                11.7868

                     82                     83                     84
                      A                      A                      A
 Frequencies --   3209.9053              3220.7697              3222.5304
 Red. masses --      1.0940                 1.0961                 1.0948
 Frc consts  --      6.6414                 6.6989                 6.6987
 IR Inten    --     25.3973                10.8595                20.1604

                     85                     86                     87
                      A                      A                      A
 Frequencies --   3233.0595              3497.3623              3712.8435
 Red. masses --      1.0952                 1.1607                 1.0656
 Frc consts  --      6.7451                 8.3645                 8.6551
 IR Inten    --      3.2492                45.0731                19.6529

 - Thermochemistry -
 -------------------
 Temperature   298.150 Kelvin.  Pressure   1.00000 Atm.
 Atom     1 has atomic number  6 and mass  12.00000

 Molecular mass:   239.09463 amu.
 Principal axes and moments of inertia in atomic units:
                           1         2         3
     Eigenvalues --  2925.350845472.853116769.85871
           X            0.99981   0.01960   0.00018
           Y           -0.01960   0.99981  -0.00062
           Z           -0.00019   0.00062   1.00000
 This molecule is an asymmetric top.
 Rotational symmetry number  1.
 Warning -- assumption of classical behavior for rotation
           may cause significant error
 Rotational temperatures (Kelvin)      0.02961     0.01583     0.01279
 Rotational constants (GHZ):           0.61693     0.32976     0.26658
 Zero-point vibrational energy     642738.5 (Joules/Mol)
                                  153.61819 (Kcal/Mol)
 Warning -- explicit consideration of  24 degrees of freedom as
           vibrations may cause significant error
 Vibrational temperatures:     32.23    48.91    54.11   101.67   121.06
          (Kelvin)            142.34   210.93   273.68   287.92   335.88
                              394.84   449.11   489.91   541.36   594.00
                              610.63   642.17   698.26   746.93   755.84
                              790.50   818.19   860.18   871.20   920.68
                              923.16   939.58   992.54  1060.68  1076.49
                             1123.03  1128.59  1133.72  1198.09  1260.96
                             1265.47  1284.17  1300.08  1336.42  1365.26
                             1398.08  1409.35  1432.68  1452.03  1488.31
                             1532.01  1542.44  1548.88  1625.08  1629.14
                             1694.28  1713.25  1736.71  1774.69  1803.51
                             1820.91  1885.75  1895.43  1911.46  1920.01
                             1936.10  1968.42  1996.67  2075.96  2127.41
                             2158.07  2174.05  2185.20  2220.70  2350.95
                             2361.87  2381.66  2402.80  3221.82  4416.16
                             4436.10  4519.77  4573.68  4586.60  4600.95
                             4603.29  4618.34  4633.97  4636.50  4651.65
                             5031.92  5341.95

 Zero-point correction=                           0.244806 (Hartree/Particle)
 Thermal correction to Energy=                    0.260478
 Thermal correction to Enthalpy=                  0.261422
 Thermal correction to Gibbs Free Energy=         0.199834
 Sum of electronic and zero-point Energies=           -784.351891
 Sum of electronic and thermal Energies=              -784.336220
 Sum of electronic and thermal Enthalpies=            -784.335275
 Sum of electronic and thermal Free Energies=         -784.396864

                     E (Thermal)             CV                S
                      KCal/Mol        Cal/Mol-Kelvin    Cal/Mol-Kelvin
 Total                  163.452             60.651            129.624
 Electronic               0.000              0.000              0.000
 Translational            0.889              2.981             42.316
 Rotational               0.889              2.981             33.049
 Vibrational            161.675             54.689             54.258
 Vibration     1          0.593              1.985              6.409
 Vibration     2          0.594              1.983              5.581
 Vibration     3          0.594              1.982              5.381
 Vibration     4          0.598              1.968              4.135
 Vibration     5          0.601              1.960              3.792
 Vibration     6          0.604              1.950              3.475
 Vibration     7          0.617              1.906              2.716
 Vibration     8          0.634              1.853              2.226
 Vibration     9          0.638              1.840              2.132
 Vibration    10          0.654              1.790              1.852
 Vibration    11          0.677              1.721              1.568
 Vibration    12          0.700              1.651              1.351
 Vibration    13          0.720              1.595              1.210
 Vibration    14          0.747              1.521              1.054
 Vibration    15          0.777              1.442              0.917
 Vibration    16          0.786              1.417              0.877
 Vibration    17          0.806              1.369              0.807
 Vibration    18          0.841              1.283              0.696
 Vibration    19          0.874              1.208              0.612
 Vibration    20          0.880              1.194              0.598
 Vibration    21          0.905              1.141              0.545
 Vibration    22          0.925              1.099              0.507
 Vibration    23          0.956              1.036              0.453
 Vibration    24          0.964              1.020              0.440

 Optimization completed.
    -- Stationary point found.
 Normal termination of Gaussian 16 at Fri Dec 11 21:27:36 2020.

 ----------------------------------------------------------------------
 # B3LYP/6-311++G(d,p) empiricaldispersion=gd3bj scf=xqc pop=npa geom=c
 heck
 ----------------------------------------------------------------------

 --------------------------------------
 CID_88452538_JID_8790_Energie_neutraal
 --------------------------------------
 Structure from the checkpoint file:  "JID_8790.chk"
 Charge =  0 Multiplicity = 1

 SCF Done:  E(RB3LYP) =  -784.815821978     A.U. after   15 cycles
 Normal termination of Gaussian 16 at Fri Dec 11 21:33:14 2020.

 ----------------------------------------------------------------------
 # B3LYP/6-311++G(d,p) empiricaldispersion=gd3bj scf=xqc pop=npa geom=c
 heck
 ----------------------------------------------------------------------

 ------------------------------------
 CID_88452538_JID_8790_Energie_kation
 ------------------------------------
 Structure from the checkpoint file:  "JID_8790.chk"
 Charge =  1 Multiplicity = 2

 SCF Done:  E(UB3LYP) =  -784.513291153     A.U. after   29 cycles
 Normal termination of Gaussian 16 at Fri Dec 11 21:48:35 2020.
 Gaussian 16:  ES64L-G16RevA.03 25-Dec-2016

 ----------------------------------------------------------------------
 # B3LYP/6-311++G(d,p) empiricaldispersion=gd3bj scf=xqc pop=npa geom=c
 heck
 ----------------------------------------------------------------------

 -----------------------------------
 CID_88452538_JID_8790_Energie_anion
 -----------------------------------
 Structure from the checkpoint file:  "JID_8790.chk"
 Charge = -1 Multiplicity = 2

                         Standard orientation:
 ---------------------------------------------------------------------
 Center     Atomic      Atomic             Coordinates (Angstroms)
 Number     Number       Type             X           Y           Z
 ---------------------------------------------------------------------
      1          6           0        1.336926   -2.671021    1.757327
      2          6           0        1.553891   -2.390596    0.603720
      3          6           0        1.832796   -2.014192   -0.789395
      4          6           0        0.928325   -0.846616   -1.264971
      5          6           0        1.204280    0.435318   -0.521720
      6          6           0        2.287251    1.245639   -0.890744
      7          6           0        2.606620    2.404997   -0.182830
      8          6           0        1.835228    2.780587    0.916014
      9          6           0        0.746102    1.996754    1.295045
     10          6           0        0.445878    0.841325    0.582950
     11          8           0       -0.596635    0.046790    1.056367
     12          6           0       -1.795886    0.071261    0.407415
     13          6           0       -2.770346   -0.822568    0.876623
     14          6           0       -4.001683   -0.816622    0.239365
     15          6           0       -4.218014    0.062483   -0.829402
     16          6           0       -3.173012    0.896952   -1.207191
     17          7           0       -1.973660    0.909350   -0.603456
     18          8           0        3.213455   -1.721845   -0.986935
     19          1           0        1.143864   -2.914030    2.777177
     20          1           0        1.635169   -2.874349   -1.439030
     21          1           0        1.133652   -0.702501   -2.330768
     22          1           0       -0.116918   -1.147622   -1.167517
     23          1           0        2.879662    0.957172   -1.754638
     24          1           0        3.451772    3.012508   -0.492749
     25          1           0        2.072427    3.681948    1.473359
     26          1           0        0.122182    2.264202    2.141445
     27          1           0       -2.540075   -1.484714    1.703215
     28          1           0       -4.787094   -1.491511    0.567534
     29          1           0       -5.167743    0.094722   -1.352461
     30          1           0       -3.289489    1.594980   -2.033751
     31          1           0        3.433535   -0.998021   -0.376300
 ---------------------------------------------------------------------

 SCF Done:  E(UB3LYP) =  -784.806598254     A.U. after   33 cycles
 SCF Done:  E(UB3LYP) =  -784.806598254     a.u. after    1 cycles

 The electronic state is 2-A.
 Alpha  occ. eigenvalues --  -19.05046 -19.03173 -14.18499 -10.15000 -10.14840
 Alpha  occ. eigenvalues --  -10.12601 -10.08573 -10.07579 -10.07437 -10.07303
 Alpha  occ. eigenvalues --  -10.07301 -10.07023 -10.06947 -10.06934 -10.06890
 Alpha  occ. eigenvalues --  -10.06637 -10.05978 -10.05739  -0.97786  -0.93632
 Alpha  occ. eigenvalues --   -0.82427  -0.75654  -0.69678  -0.68797  -0.66201
 Alpha  occ. eigenvalues --   -0.66005  -0.62787  -0.61550  -0.55465  -0.53461
 Alpha  occ. eigenvalues --   -0.51991  -0.50229  -0.47637  -0.45852  -0.43822
 Alpha  occ. eigenvalues --   -0.41463  -0.40212  -0.38940  -0.38483  -0.37160
 Alpha  occ. eigenvalues --   -0.36460  -0.34836  -0.33538  -0.32808  -0.31380
 Alpha  occ. eigenvalues --   -0.30738  -0.30282  -0.29603  -0.28395  -0.26408
 Alpha  occ. eigenvalues --   -0.26298  -0.25550  -0.25224  -0.24601  -0.22466
 Alpha  occ. eigenvalues --   -0.20414  -0.18115  -0.17706  -0.17452  -0.15674
 Alpha  occ. eigenvalues --   -0.15225  -0.13913  -0.12495   0.04716
 Alpha virt. eigenvalues --    0.06866   0.07087   0.07543   0.07782   0.08443
 Alpha virt. eigenvalues --    0.08758   0.08842   0.09111   0.09959   0.10438
 Alpha virt. eigenvalues --    0.10576   0.10754   0.11306   0.11551   0.12378

  Beta  occ. eigenvalues --  -19.05051 -19.03170 -14.18364 -10.15020 -10.14811
  Beta  occ. eigenvalues --  -10.12602 -10.08437 -10.07572 -10.07344 -10.07321
  Beta  occ. eigenvalues --  -10.07299 -10.06925 -10.06924 -10.06891 -10.06858
  Beta  occ. eigenvalues --  -10.06468 -10.06019 -10.05651  -0.97778  -0.93622
  Beta  occ. eigenvalues --   -0.82206  -0.75528  -0.69583  -0.68521  -0.66094
  Beta  occ. eigenvalues --   -0.65898  -0.62664  -0.61445  -0.55369  -0.53313
  Beta  occ. eigenvalues --   -0.51813  -0.50107  -0.47503  -0.45819  -0.43709
  Beta  occ. eigenvalues --   -0.41435  -0.40126  -0.38850  -0.38417  -0.37056
  Beta  occ. eigenvalues --   -0.36387  -0.34757  -0.33459  -0.32715  -0.31200
  Beta  occ. eigenvalues --   -0.30573  -0.30186  -0.29555  -0.28288  -0.26289
  Beta  occ. eigenvalues --   -0.26185  -0.25420  -0.25079  -0.24458  -0.22258
  Beta  occ. eigenvalues --   -0.20362  -0.18072  -0.17594  -0.16623  -0.15493
  Beta  occ. eigenvalues --   -0.14777  -0.13608  -0.12137
  Beta virt. eigenvalues --    0.06842   0.07317   0.07828   0.07912   0.08573
  Beta virt. eigenvalues --    0.08854   0.09083   0.09182   0.09699   0.10067
  Beta virt. eigenvalues --    0.10521   0.10700   0.10890   0.11412   0.11619

 Mulliken charges and spin densities:
               1          2
     1  C   -0.719009   0.409219
     2  C    1.535186  -0.976449
     3  C   -0.863898  -0.175826
     4  C    0.578264  -1.061660
     5  C    0.638164   0.738966
     6  C   -0.520561   0.304312
     7  C   -0.325954   0.067280
     8  C   -0.066848  -0.216952
     9  C    0.124837   0.057922
    10  C   -0.608681  -0.253092
    11  O    0.127719  -0.021049
    12  C   -0.254668  -0.597918
    13  C   -1.037890   1.455584
    14  C    0.618309  -0.968891
    15  C    0.782964  -0.881395
    16  C   -0.447350   0.383612
    17  N    0.115119   0.067993
    18  O   -0.200879  -0.002592
    19  H   -0.012915   0.178481
    20  H   -0.351285   0.589795
    21  H   -0.104427   0.320904
    22  H    0.248461  -0.112367
    23  H    0.060353   0.108426
    24  H    0.038547   0.101948
    25  H    0.110669   0.014346
    26  H    0.104599   0.033118
    27  H   -0.035713   0.198143
    28  H   -0.532415   0.690371
    29  H   -0.270380   0.424211
    30  H    0.008728   0.144925
    31  H    0.260954  -0.021366
 Sum of Mulliken charges =  -1.00000   1.00000

 Dipole moment (field-independent basis, Debye):
    X=              4.1534    Y=              2.9843    Z=              2.6858  Tot=              5.7767
 Quadrupole moment (field-independent basis, Debye-Ang):
   XX=           -171.7866   YY=           -139.8025   ZZ=           -127.8007
   XY=              2.3239   XZ=              2.8853   YZ=             -2.0938

 Summary of Natural Population Analysis:

                                       Natural Population
                Natural  -----------------------------------------------
    Atom  No    Charge         Core      Valence    Rydberg      Total
 -----------------------------------------------------------------------
      C    1   -0.11204      0.99928     2.10886    0.00389     3.11204
      C    2   -0.01014      0.99936     2.00149    0.00930     3.01014
      C    3    0.03126      0.99949     1.95377    0.01548     2.96874
      C    4   -0.20186      0.99958     2.19099    0.01129     3.20186
      C    5   -0.02029      0.99944     2.00944    0.01141     3.02029
      C    6   -0.09835      0.99953     2.08858    0.01024     3.09835
      C    7   -0.11488      0.99957     2.10566    0.00965     3.11488
      C    8   -0.08565      0.99957     2.07649    0.00959     3.08565
      C    9   -0.10819      0.99950     2.10065    0.00804     3.10819
      C   10    0.16442      0.99928     1.82138    0.01492     2.83558
      O   11   -0.27641      0.99983     3.26525    0.01132     4.27641
      C   12    0.26154      0.99943     1.72131    0.01772     2.73846
      C   13   -0.12747      0.99951     2.11803    0.00993     3.12747
      C   14   -0.05232      0.99957     2.04263    0.01012     3.05232
      C   15   -0.15091      0.99956     2.14184    0.00952     3.15091
      C   16    0.05268      0.99959     1.93322    0.01451     2.94732
      N   17   -0.24636      0.99965     2.73685    0.00985     3.74636
      O   18   -0.36271      0.99990     3.35675    0.00606     4.36271
      H   19    0.10892      0.00000     0.38997    0.00111     0.39108
      H   20    0.10471      0.00000     0.39287    0.00242     0.39529
      H   21    0.10836      0.00000     0.39016    0.00148     0.39164
      H   22    0.11615      0.00000     0.38212    0.00173     0.38385
      H   23    0.10210      0.00000     0.39694    0.00096     0.39790
      H   24    0.09691      0.00000     0.40229    0.00080     0.40309
      H   25    0.09541      0.00000     0.40379    0.00079     0.40459
      H   26    0.10298      0.00000     0.39582    0.00120     0.39702
      H   27    0.10550      0.00000     0.39325    0.00125     0.39450
      H   28    0.09807      0.00000     0.40059    0.00133     0.40193
      H   29    0.10117      0.00000     0.39780    0.00102     0.39883
      H   30    0.08548      0.00000     0.41354    0.00097     0.41452
      H   31    0.23189      0.00000     0.26515    0.00295     0.26811
 =======================================================================
   * Total *    0.00000     17.99164    44.79749    0.21086    63.00000

 Normal termination of Gaussian 16 at Fri Dec 11 22:06:41 2020.
