 Gaussian 16, Revision A.03,

 -----------------------------------------------------------
 # opt freq B3LYP/6-31G(d) empiricaldispersion=gd3bj scf=xqc
 -----------------------------------------------------------

 ------------------------------
 CID_131380608_JID_544_neutraal
 ------------------------------
 Symbolic Z-matrix:
 Charge =  0 Multiplicity = 1

 SCF Done:  E(RB3LYP) =  -471.031420879     A.U. after   15 cycles
 SCF Done:  E(RB3LYP) =  -471.036205113     A.U. after   13 cycles
 SCF Done:  E(RB3LYP) =  -471.036876796     A.U. after   12 cycles
 SCF Done:  E(RB3LYP) =  -471.037226810     A.U. after   12 cycles
 SCF Done:  E(RB3LYP) =  -471.037694755     A.U. after   13 cycles
 SCF Done:  E(RB3LYP) =  -471.037765450     A.U. after   13 cycles
 SCF Done:  E(RB3LYP) =  -471.038189530     A.U. after   12 cycles
 SCF Done:  E(RB3LYP) =  -471.038342667     A.U. after   12 cycles
 SCF Done:  E(RB3LYP) =  -471.038352491     A.U. after   11 cycles
 SCF Done:  E(RB3LYP) =  -471.038378296     A.U. after   10 cycles
 SCF Done:  E(RB3LYP) =  -471.038379704     A.U. after    9 cycles
 SCF Done:  E(RB3LYP) =  -471.038379965     A.U. after    8 cycles
 SCF Done:  E(RB3LYP) =  -471.038380189     A.U. after    8 cycles
 Optimization completed.
    -- Stationary point found.
 Normal termination of Gaussian 16 at Tue Dec  8 12:17:33 2020.

 --------------------------------------------------------------------
 #N Geom=AllCheck Guess=TCheck SCRF=Check GenChk RB3LYP/6-31G(d) Freq
 --------------------------------------------------------------------

 Structure from the checkpoint file:  "JID_544.chk"
 ------------------------------
 CID_131380608_JID_544_neutraal
 ------------------------------
 Charge =  0 Multiplicity = 1

 SCF Done:  E(RB3LYP) =  -471.038380189     A.U. after    1 cycles

  Exact polarizability:  90.299  -4.287  74.352   2.407  -3.706  52.163
 Approx polarizability: 134.938  -8.883 126.073   2.384  -8.044  88.606

                      1                      2                      3
                      A                      A                      A
 Frequencies --     83.2332                99.6621               212.6113
 Red. masses --      5.4443                 7.7001                 4.7729
 Frc consts  --      0.0222                 0.0451                 0.1271
 IR Inten    --      4.8766                 2.7185                 6.1900

                      4                      5                      6
                      A                      A                      A
 Frequencies --    247.9133               272.2724               389.0980
 Red. masses --      2.8399                 6.0360                 6.5919
 Frc consts  --      0.1028                 0.2636                 0.5880
 IR Inten    --      0.9199                 3.3490                 1.5815

                      7                      8                      9
                      A                      A                      A
 Frequencies --    476.7023               518.4941               611.7058
 Red. masses --      6.9161                 4.6205                 7.1975
 Frc consts  --      0.9260                 0.7319                 1.5868
 IR Inten    --      5.2653                15.0718                13.8131

                     10                     11                     12
                      A                      A                      A
 Frequencies --    631.1376               667.3262               686.4199
 Red. masses --      6.6941                 2.6911                 3.8642
 Frc consts  --      1.5710                 0.7061                 1.0727
 IR Inten    --      1.9168                67.1873                28.1232

                     13                     14                     15
                      A                      A                      A
 Frequencies --    764.8368               848.1747               870.8101
 Red. masses --      4.6605                10.4942                 6.4929
 Frc consts  --      1.6063                 4.4480                 2.9009
 IR Inten    --     11.9642                22.8717                 1.1383

                     16                     17                     18
                      A                      A                      A
 Frequencies --    893.6049               934.5963               976.3632
 Red. masses --      1.2858                 5.3906                 3.0648
 Frc consts  --      0.6050                 2.7742                 1.7214
 IR Inten    --     10.9149                13.7360                16.3922

                     19                     20                     21
                      A                      A                      A
 Frequencies --    991.5915              1055.4691              1074.8972
 Red. masses --      2.5801                 1.6765                 5.6418
 Frc consts  --      1.4947                 1.1004                 3.8406
 IR Inten    --     10.3227                 5.9869                28.3203

                     22                     23                     24
                      A                      A                      A
 Frequencies --   1145.9247              1198.8594              1212.0595
 Red. masses --      5.1778                 1.1442                 1.3578
 Frc consts  --      4.0060                 0.9689                 1.1752
 IR Inten    --     15.7334                 1.9252                 5.0848

                     25                     26                     27
                      A                      A                      A
 Frequencies --   1242.7670              1330.5400              1350.1006
 Red. masses --      1.2186                 1.8220                 1.1937
 Frc consts  --      1.1089                 1.9005                 1.2820
 IR Inten    --      1.1663                 6.5917                 0.9405

                     28                     29                     30
                      A                      A                      A
 Frequencies --   1397.8904              1433.9353              1461.0324
 Red. masses --      4.0568                 3.3139                 1.7259
 Frc consts  --      4.6707                 4.0147                 2.1706
 IR Inten    --     13.2240                27.4338                28.1187

                     31                     32                     33
                      A                      A                      A
 Frequencies --   1528.8796              1549.0432              1679.4413
 Red. masses --      4.9961                 1.0990                 8.0327
 Frc consts  --      6.8806                 1.5537                13.3487
 IR Inten    --     25.0880                 1.7324                 8.6676

                     34                     35                     36
                      A                      A                      A
 Frequencies --   2357.9757              3009.8322              3055.8425
 Red. masses --     12.6393                 1.0709                 1.0839
 Frc consts  --     41.4051                 5.7157                 5.9636
 IR Inten    --      1.6367                52.4581                12.0440

                     37                     38                     39
                      A                      A                      A
 Frequencies --   3082.2309              3264.8362              3555.0781
 Red. masses --      1.0935                 1.0960                 1.0758
 Frc consts  --      6.1205                 6.8832                 8.0109
 IR Inten    --     29.5961                 2.0909                 4.8325

 - Thermochemistry -
 -------------------
 Temperature   298.150 Kelvin.  Pressure   1.00000 Atm.
 Atom     1 has atomic number  6 and mass  12.00000

 Molecular mass:   135.04326 amu.
 Principal axes and moments of inertia in atomic units:
                           1         2         3
     Eigenvalues --   741.800751489.863181959.12011
           X            0.99987   0.00323   0.01564
           Y           -0.00282   0.99965  -0.02621
           Z           -0.01572   0.02616   0.99953
 This molecule is an asymmetric top.
 Rotational symmetry number  1.
 Warning -- assumption of classical behavior for rotation
           may cause significant error
 Rotational temperatures (Kelvin)      0.11676     0.05814     0.04421
 Rotational constants (GHZ):           2.43292     1.21135     0.92120
 Zero-point vibrational energy     288079.8 (Joules/Mol)
                                   68.85274 (Kcal/Mol)
 Warning -- explicit consideration of   9 degrees of freedom as
           vibrations may cause significant error
 Vibrational temperatures:    119.75   143.39   305.90   356.69   391.74
          (Kelvin)            559.83   685.87   746.00   880.11   908.07
                              960.13   987.61  1100.43  1220.33  1252.90
                             1285.70  1344.68  1404.77  1426.68  1518.58
                             1546.54  1648.73  1724.89  1743.88  1788.06
                             1914.35  1942.49  2011.25  2063.11  2102.10
                             2199.72  2228.73  2416.34  3392.60  4330.48
                             4396.68  4434.64  4697.37  5114.96

 Zero-point correction=                           0.109724 (Hartree/Particle)
 Thermal correction to Energy=                    0.117431
 Thermal correction to Enthalpy=                  0.118375
 Thermal correction to Gibbs Free Energy=         0.076709
 Sum of electronic and zero-point Energies=           -470.928656
 Sum of electronic and thermal Energies=              -470.920949
 Sum of electronic and thermal Enthalpies=            -470.920005
 Sum of electronic and thermal Free Energies=         -470.961671

                     E (Thermal)             CV                S
                      KCal/Mol        Cal/Mol-Kelvin    Cal/Mol-Kelvin
 Total                   73.689             28.656             87.693
 Electronic               0.000              0.000              0.000
 Translational            0.889              2.981             40.614
 Rotational               0.889              2.981             29.161
 Vibrational             71.912             22.695             17.918
 Vibration     1          0.600              1.961              3.813
 Vibration     2          0.604              1.949              3.461
 Vibration     3          0.644              1.822              2.021
 Vibration     4          0.662              1.766              1.745
 Vibration     5          0.675              1.724              1.582
 Vibration     6          0.757              1.493              1.004
 Vibration     7          0.833              1.302              0.719
 Vibration     8          0.873              1.209              0.613
 Vibration     9          0.971              1.007              0.430

                           ! Non-Optimized Parameters !
 Normal termination of Gaussian 16 at Tue Dec  8 12:22:25 2020.

 ----------------------------------------------------------------------
 # B3LYP/6-311++G(d,p) empiricaldispersion=gd3bj scf=xqc pop=npa geom=c
 heck
 ----------------------------------------------------------------------

 --------------------------------------
 CID_131380608_JID_544_Energie_neutraal
 --------------------------------------
 Structure from the checkpoint file:  "JID_544.chk"
 Charge =  0 Multiplicity = 1

 SCF Done:  E(RB3LYP) =  -471.167669321     A.U. after   15 cycles
 Normal termination of Gaussian 16 at Tue Dec  8 12:23:56 2020.

 ----------------------------------------------------------------------
 # B3LYP/6-311++G(d,p) empiricaldispersion=gd3bj scf=xqc pop=npa geom=c
 heck
 ----------------------------------------------------------------------

 ------------------------------------
 CID_131380608_JID_544_Energie_kation
 ------------------------------------
 Structure from the checkpoint file:  "JID_544.chk"
 Charge =  1 Multiplicity = 2

 SCF Done:  E(UB3LYP) =  -470.819406439     A.U. after   24 cycles
 Normal termination of Gaussian 16 at Tue Dec  8 12:27:27 2020.
 Gaussian 16:  ES64L-G16RevA.03 25-Dec-2016

 ----------------------------------------------------------------------
 # B3LYP/6-311++G(d,p) empiricaldispersion=gd3bj scf=xqc pop=npa geom=c
 heck
 ----------------------------------------------------------------------

 -----------------------------------
 CID_131380608_JID_544_Energie_anion
 -----------------------------------
 Structure from the checkpoint file:  "JID_544.chk"
 Charge = -1 Multiplicity = 2

                         Standard orientation:
 ---------------------------------------------------------------------
 Center     Atomic      Atomic             Coordinates (Angstroms)
 Number     Number       Type             X           Y           Z
 ---------------------------------------------------------------------
      1          6           0        0.018609    1.880688   -0.322615
      2          6           0       -0.937289    0.732487   -0.218900
      3          6           0       -0.332092   -0.320443    0.371666
      4          6           0        1.100019   -0.057859    0.736229
      5          7           0        1.128833    1.417833    0.564289
      6          6           0        2.036056   -0.772669   -0.163445
      7          7           0        2.799404   -1.270810   -0.882197
      8          8           0       -1.127306   -1.384807    0.468223
      9          7           0       -2.374988   -1.016922   -0.099390
     10          6           0       -2.237161    0.232843   -0.498842
     11          1           0       -0.379532    2.825658    0.062936
     12          1           0        0.339202    2.048472   -1.362329
     13          1           0        1.345244   -0.329082    1.770820
     14          1           0        2.038177    1.738812    0.246955
     15          1           0       -3.086239    0.713604   -0.967635
 ---------------------------------------------------------------------

 SCF Done:  E(UB3LYP) =  -471.158749870     A.U. after   33 cycles
 SCF Done:  E(UB3LYP) =  -471.158749870     a.u. after    1 cycles

 The electronic state is 2-A.
 Alpha  occ. eigenvalues --  -19.09042 -14.23663 -14.21066 -14.21053 -10.15694
 Alpha  occ. eigenvalues --  -10.11893 -10.10742 -10.10038 -10.09257 -10.06680
 Alpha  occ. eigenvalues --   -1.02541  -0.83906  -0.80123  -0.75620  -0.68212
 Alpha  occ. eigenvalues --   -0.65498  -0.54996  -0.50651  -0.47907  -0.44054
 Alpha  occ. eigenvalues --   -0.41125  -0.35520  -0.35144  -0.34049  -0.32077
 Alpha  occ. eigenvalues --   -0.30938  -0.29777  -0.26958  -0.26402  -0.23731
 Alpha  occ. eigenvalues --   -0.23078  -0.19553  -0.19181  -0.15105  -0.13401
 Alpha  occ. eigenvalues --    0.05156
 Alpha virt. eigenvalues --    0.07335   0.08235   0.09179   0.10267   0.10760
 Alpha virt. eigenvalues --    0.11672   0.12786   0.13317   0.14078   0.15273
 Alpha virt. eigenvalues --    0.15746   0.16043   0.17529   0.17898   0.18287

  Beta  occ. eigenvalues --  -19.08884 -14.23386 -14.21006 -14.21001 -10.15689
  Beta  occ. eigenvalues --  -10.11764 -10.10724 -10.09982 -10.09190 -10.06705
  Beta  occ. eigenvalues --   -1.02242  -0.83811  -0.80018  -0.75280  -0.67999
  Beta  occ. eigenvalues --   -0.65389  -0.54806  -0.50452  -0.47707  -0.43861
  Beta  occ. eigenvalues --   -0.40983  -0.35145  -0.35010  -0.33605  -0.31947
  Beta  occ. eigenvalues --   -0.30833  -0.29648  -0.26865  -0.26264  -0.23567
  Beta  occ. eigenvalues --   -0.22969  -0.19191  -0.18327  -0.14531  -0.13025
  Beta virt. eigenvalues --    0.07954   0.08915   0.09131   0.10048   0.10885
  Beta virt. eigenvalues --    0.11435   0.12338   0.13223   0.13417   0.14197
  Beta virt. eigenvalues --    0.15477   0.15897   0.16122   0.17732   0.18071

 Mulliken charges and spin densities:
               1          2
     1  C    4.334410  -4.989980
     2  C   -1.701754   2.250420
     3  C    0.155327  -0.462679
     4  C   -0.640240   1.100956
     5  N   -0.305385   0.164982
     6  C    0.314694  -0.582707
     7  N   -0.300364  -0.006438
     8  O   -0.008412   0.039179
     9  N   -0.270096   0.136886
    10  C   -0.664268   0.399428
    11  H   -0.585278   0.775211
    12  H   -0.764223   0.960720
    13  H    0.083484   0.162929
    14  H   -0.281108   0.516202
    15  H   -0.366786   0.534890
 Sum of Mulliken charges =  -1.00000   1.00000

 Dipole moment (field-independent basis, Debye):
    X=             -0.9691    Y=             -3.4613    Z=              3.9068  Tot=              5.3087
 Quadrupole moment (field-independent basis, Debye-Ang):
   XX=            -98.0145   YY=           -101.6146   ZZ=            -79.9828
   XY=             -3.7510   XZ=              4.0932   YZ=              2.6947

 Summary of Natural Population Analysis:

                                       Natural Population
                Natural  -----------------------------------------------
    Atom  No    Charge         Core      Valence    Rydberg      Total
 -----------------------------------------------------------------------
      C    1   -0.08258      0.99960     2.07166    0.01132     3.08258
      C    2   -0.08555      0.99936     2.07496    0.01123     3.08555
      C    3    0.18796      0.99927     1.79679    0.01599     2.81204
      C    4   -0.07391      0.99948     2.06233    0.01210     3.07391
      N    5   -0.32513      0.99977     2.81357    0.01178     3.82513
      C    6    0.15299      0.99963     1.82916    0.01822     2.84701
      N    7   -0.17602      0.99979     2.66476    0.01146     3.67602
      O    8   -0.15480      0.99984     3.14647    0.00849     4.15480
      N    9   -0.04851      0.99972     2.53650    0.01229     3.54851
      C   10    0.00362      0.99960     1.98170    0.01508     2.99638
      H   11    0.10042      0.00000     0.39635    0.00323     0.39958
      H   12    0.09729      0.00000     0.39670    0.00602     0.40271
      H   13    0.11413      0.00000     0.38426    0.00160     0.38587
      H   14    0.18635      0.00000     0.30700    0.00666     0.31365
      H   15    0.10375      0.00000     0.39489    0.00136     0.39625
 =======================================================================
   * Total *   -0.00000      9.99606    24.85711    0.14683    35.00000

 Normal termination of Gaussian 16 at Tue Dec  8 12:39:32 2020.
