 Gaussian 16, Revision A.03,

 -----------------------------------------------------------
 # opt freq B3LYP/6-31G(d) empiricaldispersion=gd3bj scf=xqc
 -----------------------------------------------------------

 -----------------------------
 CID_89209419_JID_437_neutraal
 -----------------------------
 Symbolic Z-matrix:
 Charge =  0 Multiplicity = 1

 SCF Done:  E(RB3LYP) =  -409.176638411     A.U. after   13 cycles
 SCF Done:  E(RB3LYP) =  -409.179325379     A.U. after   11 cycles
 SCF Done:  E(RB3LYP) =  -409.180187090     A.U. after   11 cycles
 SCF Done:  E(RB3LYP) =  -409.181789193     A.U. after   13 cycles
 SCF Done:  E(RB3LYP) =  -409.182468190     A.U. after   11 cycles
 SCF Done:  E(RB3LYP) =  -409.182991708     A.U. after   11 cycles
 SCF Done:  E(RB3LYP) =  -409.183028846     A.U. after   10 cycles
 SCF Done:  E(RB3LYP) =  -409.183043642     A.U. after    9 cycles
 SCF Done:  E(RB3LYP) =  -409.183049581     A.U. after    9 cycles
 SCF Done:  E(RB3LYP) =  -409.183050195     A.U. after    7 cycles
 SCF Done:  E(RB3LYP) =  -409.183050471     A.U. after    7 cycles
 SCF Done:  E(RB3LYP) =  -409.183050535     A.U. after    6 cycles
 Optimization completed.
    -- Stationary point found.

 1\1\GINC-NODE352\FOpt\RB3LYP\6-31G(d)\C9H19N1\VSC10255\08-Dec-2020\0\\
 # opt freq B3LYP/6-31G(d) empiricaldispersion=gd3bj scf=xqc\\CID_89209
 419_JID_437_neutraal\\0,1\C,1.129267888,-0.28689328,0.135126815\C,0.34
 24619124,-1.296824521,0.975527374\C,0.5034298333,-1.1062582295,2.49160
 8375\C,0.0585429306,0.2608703406,3.0335370238\C,-1.4030195334,0.620399
 7636,2.7176146632\N,-2.3981508411,-0.3663122094,3.1466486247\C,-2.4808
 932539,-0.702218291,4.5166589142\C,-2.5474380157,-1.9881400657,4.91136
 01744\C,-2.796403291,-2.5246145652,6.2910161389\C,-2.5783503551,0.4869

 Normal termination of Gaussian 16 at Tue Dec  8 10:56:17 2020.

 --------------------------------------------------------------------
 #N Geom=AllCheck Guess=TCheck SCRF=Check GenChk RB3LYP/6-31G(d) Freq
 --------------------------------------------------------------------

 Structure from the checkpoint file:  "JID_437.chk"
 -----------------------------
 CID_89209419_JID_437_neutraal
 -----------------------------
 Charge =  0 Multiplicity = 1

 SCF Done:  E(RB3LYP) =  -409.183050535     A.U. after    1 cycles

  Exact polarizability: 123.295  10.842 106.846  -5.119   1.939  81.635
 Approx polarizability: 145.972  19.100 159.936  -7.667   2.017 121.522

                      1                      2                      3
                      A                      A                      A
 Frequencies --     40.9260                54.9397                69.0639
 Red. masses --      3.4602                 2.8402                 2.6512
 Frc consts  --      0.0034                 0.0051                 0.0075
 IR Inten    --      0.0504                 0.2984                 0.7167

                      4                      5                      6
                      A                      A                      A
 Frequencies --     95.4539               118.0868               150.1753
 Red. masses --      2.1841                 1.1321                 1.3679
 Frc consts  --      0.0117                 0.0093                 0.0182
 IR Inten    --      0.2269                 0.1856                 1.0415

                      7                      8                      9
                      A                      A                      A
 Frequencies --    174.9606               195.3215               235.2142
 Red. masses --      1.5416                 2.0875                 1.7364
 Frc consts  --      0.0278                 0.0469                 0.0566
 IR Inten    --      0.1677                 1.3056                 1.3944

                     10                     11                     12
                      A                      A                      A
 Frequencies --    277.0356               301.3310               339.8584
 Red. masses --      1.7847                 2.2189                 2.3157
 Frc consts  --      0.0807                 0.1187                 0.1576
 IR Inten    --      0.2748                 0.2515                 0.7621

                     13                     14                     15
                      A                      A                      A
 Frequencies --    377.2798               429.2920               461.5691
 Red. masses --      2.0087                 1.9857                 2.3279
 Frc consts  --      0.1685                 0.2156                 0.2922
 IR Inten    --      0.5248                 2.0395                 7.4829

                     16                     17                     18
                      A                      A                      A
 Frequencies --    493.3221               526.8287               596.5621
 Red. masses --      2.7620                 2.3695                 2.5465
 Frc consts  --      0.3960                 0.3875                 0.5339
 IR Inten    --      4.0943                 1.2918                15.9370

                     19                     20                     21
                      A                      A                      A
 Frequencies --    716.0045               729.3908               771.6208
 Red. masses --      1.2257                 1.5401                 1.8219
 Frc consts  --      0.3702                 0.4827                 0.6391
 IR Inten    --     50.7944                23.8441                 3.8824

                     22                     23                     24
                      A                      A                      A
 Frequencies --    809.0393               840.2698               846.2688
 Red. masses --      2.1701                 1.3782                 1.7214
 Frc consts  --      0.8369                 0.5733                 0.7264
 IR Inten    --      3.9440                57.7957                 2.0182

                     25                     26                     27
                      A                      A                      A
 Frequencies --    903.1102               925.4067               980.3020
 Red. masses --      2.0806                 1.5363                 1.6226
 Frc consts  --      0.9998                 0.7751                 0.9187
 IR Inten    --     12.8462                 1.2474                 4.7859

                     28                     29                     30
                      A                      A                      A
 Frequencies --   1011.8554              1018.7112              1058.6767
 Red. masses --      1.7242                 1.4925                 1.4915
 Frc consts  --      1.0401                 0.9126                 0.9849
 IR Inten    --      0.8216                 6.1001                 3.0237

                     31                     32                     33
                      A                      A                      A
 Frequencies --   1067.1433              1069.7854              1083.4320
 Red. masses --      1.9057                 1.4310                 1.4888
 Frc consts  --      1.2787                 0.9649                 1.0296
 IR Inten    --      7.1739                 0.4443                 0.3837

                     34                     35                     36
                      A                      A                      A
 Frequencies --   1103.1707              1135.5543              1148.6395
 Red. masses --      2.1305                 2.0617                 2.0684
 Frc consts  --      1.5276                 1.5664                 1.6079
 IR Inten    --      2.5679                 1.8490                 4.0774

                     37                     38                     39
                      A                      A                      A
 Frequencies --   1182.5272              1234.7121              1261.2171
 Red. masses --      2.5828                 1.3137                 1.4266
 Frc consts  --      2.1280                 1.1800                 1.3370
 IR Inten    --     16.4248                 7.3058                19.5119

                     40                     41                     42
                      A                      A                      A
 Frequencies --   1289.9840              1313.7183              1341.9481
 Red. masses --      1.9213                 1.1850                 1.1259
 Frc consts  --      1.8837                 1.2049                 1.1946
 IR Inten    --    106.9346                 1.5686                 3.7021

                     43                     44                     45
                      A                      A                      A
 Frequencies --   1384.5617              1385.8787              1403.6635
 Red. masses --      1.4626                 1.3330                 1.4428
 Frc consts  --      1.6520                 1.5084                 1.6749
 IR Inten    --      1.3550                12.1813                 1.0773

                     46                     47                     48
                      A                      A                      A
 Frequencies --   1414.9816              1423.7334              1442.0007
 Red. masses --      1.4087                 1.3357                 1.4343
 Frc consts  --      1.6617                 1.5952                 1.7572
 IR Inten    --      0.2850                 4.5960                28.7006

                     49                     50                     51
                      A                      A                      A
 Frequencies --   1444.1199              1454.6929              1506.2037
 Red. masses --      1.2827                 1.2550                 1.0721
 Frc consts  --      1.5761                 1.5647                 1.4330
 IR Inten    --      0.4852                 6.2897                 3.9682

                     52                     53                     54
                      A                      A                      A
 Frequencies --   1509.6795              1513.9302              1514.8019
 Red. masses --      1.0498                 1.1123                 1.0868
 Frc consts  --      1.4097                 1.5020                 1.4693
 IR Inten    --      0.3902                 5.8040                 6.5883

                     55                     56                     57
                      A                      A                      A
 Frequencies --   1518.4083              1524.9611              1526.2708
 Red. masses --      1.0625                 1.0849                 1.0962
 Frc consts  --      1.4433                 1.4865                 1.5045
 IR Inten    --      7.4937                 3.1477                 2.5534

                     58                     59                     60
                      A                      A                      A
 Frequencies --   1534.5089              1535.9265              1538.2059
 Red. masses --      1.0642                 1.0956                 1.0998
 Frc consts  --      1.4765                 1.5227                 1.5331
 IR Inten    --      9.9524                 3.2828                21.0620

                     61                     62                     63
                      A                      A                      A
 Frequencies --   1542.7486              1748.8542              3021.9894
 Red. masses --      1.0791                 5.5700                 1.0416
 Frc consts  --      1.5132                10.0372                 5.6047
 IR Inten    --      2.4973                62.4882                75.3528

                     64                     65                     66
                      A                      A                      A
 Frequencies --   3028.7911              3033.3964              3040.3015
 Red. masses --      1.0658                 1.0618                 1.0583
 Frc consts  --      5.7604                 5.7563                 5.7638
 IR Inten    --     27.0850                13.4107                16.5960

                     67                     68                     69
                      A                      A                      A
 Frequencies --   3046.5233              3048.4252              3057.8893
 Red. masses --      1.0416                 1.0435                 1.1003
 Frc consts  --      5.6958                 5.7136                 6.0617
 IR Inten    --     26.6643                15.3752                35.2493

                     70                     71                     72
                      A                      A                      A
 Frequencies --   3062.7355              3062.8819              3071.6354
 Red. masses --      1.0929                 1.0751                 1.0893
 Frc consts  --      6.0400                 5.9425                 6.0555
 IR Inten    --     39.1389                 7.0277                40.8894

                     73                     74                     75
                      A                      A                      A
 Frequencies --   3082.8934              3096.1707              3102.9774
 Red. masses --      1.0989                 1.0993                 1.1042
 Frc consts  --      6.1537                 6.2087                 6.2641
 IR Inten    --     94.6132                26.3951                44.7676

                     76                     77                     78
                      A                      A                      A
 Frequencies --   3110.1973              3114.6533              3116.6604
 Red. masses --      1.1018                 1.0875                 1.1020
 Frc consts  --      6.2795                 6.2158                 6.3067
 IR Inten    --     50.5022                10.3654                43.6438

                     79                     80                     81
                      A                      A                      A
 Frequencies --   3131.4688              3166.2702              3531.9922
 Red. masses --      1.0940                 1.0948                 1.0740
 Frc consts  --      6.3210                 6.4669                 7.8939
 IR Inten    --     49.3317                24.6870                 0.2909

 - Thermochemistry -
 -------------------
 Temperature   298.150 Kelvin.  Pressure   1.00000 Atm.
 Atom     1 has atomic number  6 and mass  12.00000

 Molecular mass:   141.15175 amu.
 Principal axes and moments of inertia in atomic units:
                           1         2         3
     Eigenvalues --   748.509863032.164473366.61770
           X            0.99997   0.00245  -0.00735
           Y           -0.00227   0.99970   0.02436
           Z            0.00741  -0.02434   0.99968
 This molecule is an asymmetric top.
 Rotational symmetry number  1.
 Warning -- assumption of classical behavior for rotation
           may cause significant error
 Rotational temperatures (Kelvin)      0.11572     0.02857     0.02573
 Rotational constants (GHZ):           2.41111     0.59520     0.53607
 Zero-point vibrational energy     709240.2 (Joules/Mol)
                                  169.51246 (Kcal/Mol)
 Warning -- explicit consideration of  18 degrees of freedom as
           vibrations may cause significant error
 Vibrational temperatures:     58.88    79.05    99.37   137.34   169.90
          (Kelvin)            216.07   251.73   281.02   338.42   398.59
                              433.55   488.98   542.82   617.66   664.09
                              709.78   757.99   858.32  1030.17  1049.43
                             1110.19  1164.03  1208.96  1217.59  1299.37
                             1331.45  1410.44  1455.83  1465.70  1523.20
                             1535.38  1539.18  1558.82  1587.22  1633.81
                             1652.64  1701.39  1776.48  1814.61  1856.00
                             1890.15  1930.76  1992.08  1993.97  2019.56
                             2035.84  2048.43  2074.72  2077.77  2092.98
                             2167.09  2172.09  2178.21  2179.46  2184.65
                             2194.08  2195.96  2207.82  2209.86  2213.14
                             2219.67  2516.21  4347.97  4357.75  4364.38
                             4374.32  4383.27  4386.00  4399.62  4406.59
                             4406.80  4419.40  4435.60  4454.70  4464.49
                             4474.88  4481.29  4484.18  4505.49  4555.56
                             5081.75

 Zero-point correction=                           0.270135 (Hartree/Particle)
 Thermal correction to Energy=                    0.282989
 Thermal correction to Enthalpy=                  0.283933
 Thermal correction to Gibbs Free Energy=         0.230587
 Sum of electronic and zero-point Energies=           -408.912915
 Sum of electronic and thermal Energies=              -408.900062
 Sum of electronic and thermal Enthalpies=            -408.899117
 Sum of electronic and thermal Free Energies=         -408.952463

                     E (Thermal)             CV                S
                      KCal/Mol        Cal/Mol-Kelvin    Cal/Mol-Kelvin
 Total                  177.578             46.650            112.276
 Electronic               0.000              0.000              0.000
 Translational            0.889              2.981             40.745
 Rotational               0.889              2.981             30.414
 Vibrational            175.801             40.688             41.116
 Vibration     1          0.594              1.981              5.214
 Vibration     2          0.596              1.976              4.631
 Vibration     3          0.598              1.969              4.180
 Vibration     4          0.603              1.952              3.545
 Vibration     5          0.608              1.934              3.131
 Vibration     6          0.618              1.902              2.670
 Vibration     7          0.627              1.873              2.382
 Vibration     8          0.636              1.846              2.177
 Vibration     9          0.655              1.787              1.839
 Vibration    10          0.678              1.716              1.552
 Vibration    11          0.693              1.671              1.409
 Vibration    12          0.720              1.596              1.213
 Vibration    13          0.748              1.519              1.050
 Vibration    14          0.791              1.406              0.861
 Vibration    15          0.819              1.335              0.762
 Vibration    16          0.849              1.265              0.675
 Vibration    17          0.882              1.191              0.594
 Vibration    18          0.954              1.039              0.456

                           ! Non-Optimized Parameters !

 1\1\GINC-NODE352\Freq\RB3LYP\6-31G(d)\C9H19N1\VSC10255\08-Dec-2020\0\\
 #N Geom=AllCheck Guess=TCheck SCRF=Check GenChk RB3LYP/6-31G(d) Freq\\
 CID_89209419_JID_437_neutraal\\0,1\C,1.129267888,-0.28689328,0.1351268
 15\C,0.3424619124,-1.296824521,0.975527374\C,0.5034298333,-1.106258229
 5,2.491608375\C,0.0585429306,0.2608703406,3.0335370238\C,-1.4030195334
 ,0.6203997636,2.7176146632\N,-2.3981508411,-0.3663122094,3.1466486247\
 C,-2.4808932539,-0.702218291,4.5166589142\C,-2.5474380157,-1.988140065
 7,4.9113601744\C,-2.796403291,-2.5246145652,6.2910161389\C,-2.57835035

 Normal termination of Gaussian 16 at Tue Dec  8 11:03:06 2020.

 ----------------------------------------------------------------------
 # B3LYP/6-311++G(d,p) empiricaldispersion=gd3bj scf=xqc pop=npa geom=c
 heck
 ----------------------------------------------------------------------

 -------------------------------------
 CID_89209419_JID_437_Energie_neutraal
 -------------------------------------
 Structure from the checkpoint file:  "JID_437.chk"
 Charge =  0 Multiplicity = 1

 SCF Done:  E(RB3LYP) =  -409.302042567     A.U. after   13 cycles
 Normal termination of Gaussian 16 at Tue Dec  8 11:06:06 2020.

 ----------------------------------------------------------------------
 # B3LYP/6-311++G(d,p) empiricaldispersion=gd3bj scf=xqc pop=npa geom=c
 heck
 ----------------------------------------------------------------------

 -----------------------------------
 CID_89209419_JID_437_Energie_kation
 -----------------------------------
 Structure from the checkpoint file:  "JID_437.chk"
 Charge =  1 Multiplicity = 2

 SCF Done:  E(UB3LYP) =  -409.032972987     A.U. after   19 cycles
 Normal termination of Gaussian 16 at Tue Dec  8 11:11:57 2020.
 Gaussian 16:  ES64L-G16RevA.03 25-Dec-2016

 ----------------------------------
 CID_89209419_JID_437_Energie_anion
 ----------------------------------
 Structure from the checkpoint file:  "JID_437.chk"
 Charge = -1 Multiplicity = 2

                         Standard orientation:
 ---------------------------------------------------------------------
 Center     Atomic      Atomic             Coordinates (Angstroms)
 Number     Number       Type             X           Y           Z
 ---------------------------------------------------------------------
      1          6           0        3.959367   -0.169079   -0.089635
      2          6           0        2.681580   -0.974086   -0.343650
      3          6           0        1.598789   -0.780191    0.729055
      4          6           0        1.103718    0.662941    0.910512
      5          6           0        0.545790    1.305166   -0.370697
      6          7           0       -0.524359    0.554529   -1.033481
      7          6           0       -1.710806    0.279205   -0.317138
      8          6           0       -2.249873   -0.954981   -0.318779
      9          6           0       -3.570946   -1.392322    0.244015
     10          6           0       -2.328303    1.487213    0.339537
     11          1           0        3.772869    0.910055   -0.125414
     12          1           0        4.726380   -0.395933   -0.838320
     13          1           0        4.377201   -0.398929    0.898325
     14          1           0        2.281917   -0.713981   -1.333907
     15          1           0        2.931677   -2.041732   -0.395462
     16          1           0        0.738889   -1.420422    0.494598
     17          1           0        1.987599   -1.138603    1.691960
     18          1           0        0.320151    0.662998    1.678956
     19          1           0        1.912469    1.298579    1.295161
     20          1           0        0.177396    2.311480   -0.144325
     21          1           0        1.344575    1.434768   -1.109284
     22          1           0       -0.159611   -0.291098   -1.461753
     23          1           0       -1.682178   -1.740925   -0.821461
     24          1           0       -4.219335   -1.814466   -0.537059
     25          1           0       -3.440304   -2.180032    0.999327
     26          1           0       -4.123151   -0.577017    0.719354
     27          1           0       -1.733657    1.833473    1.194019
     28          1           0       -2.383834    2.316938   -0.374931
     29          1           0       -3.334432    1.279947    0.705271
 ---------------------------------------------------------------------

 SCF Done:  E(UB3LYP) =  -409.285450952     A.U. after   30 cycles

 The electronic state is 2-A.
 Alpha  occ. eigenvalues --  -14.20581 -10.09775 -10.09103 -10.06220 -10.06205
 Alpha  occ. eigenvalues --  -10.06204 -10.05889 -10.05865 -10.05410 -10.04981
 Alpha  occ. eigenvalues --   -0.81964  -0.70083  -0.67699  -0.63402  -0.61839
 Alpha  occ. eigenvalues --   -0.58173  -0.54445  -0.50709  -0.45533  -0.44281
 Alpha  occ. eigenvalues --   -0.39323  -0.37111  -0.36027  -0.34745  -0.32748
 Alpha  occ. eigenvalues --   -0.31600  -0.30943  -0.30076  -0.29641  -0.28413
 Alpha  occ. eigenvalues --   -0.28128  -0.27061  -0.26375  -0.25584  -0.24254
 Alpha  occ. eigenvalues --   -0.22706  -0.22151  -0.21527  -0.18342  -0.09557
 Alpha  occ. eigenvalues --    0.04594
 Alpha virt. eigenvalues --    0.06501   0.07242   0.08017   0.08588   0.08976
 Alpha virt. eigenvalues --    0.09993   0.10299   0.10542   0.11029   0.11407
 Alpha virt. eigenvalues --    0.12251   0.12648   0.13250   0.13609   0.13690

  Beta  occ. eigenvalues --  -14.20576 -10.09776 -10.09085 -10.06182 -10.06180
  Beta  occ. eigenvalues --  -10.06175 -10.05873 -10.05850 -10.05371 -10.04972
  Beta  occ. eigenvalues --   -0.81949  -0.70048  -0.67667  -0.63358  -0.61787
  Beta  occ. eigenvalues --   -0.58120  -0.54384  -0.50639  -0.45470  -0.44239
  Beta  occ. eigenvalues --   -0.39291  -0.37076  -0.35989  -0.34705  -0.32704
  Beta  occ. eigenvalues --   -0.31562  -0.30909  -0.30042  -0.29599  -0.28378
  Beta  occ. eigenvalues --   -0.28092  -0.27010  -0.26342  -0.25553  -0.24219
  Beta  occ. eigenvalues --   -0.22668  -0.22117  -0.21488  -0.18321  -0.09541
  Beta virt. eigenvalues --    0.06683   0.07412   0.07931   0.08533   0.09037
  Beta virt. eigenvalues --    0.09603   0.10425   0.10675   0.11026   0.11439
  Beta virt. eigenvalues --    0.11819   0.12541   0.13030   0.13459   0.13924

 Mulliken charges and spin densities:
               1          2
     1  C    1.479780  -2.121356
     2  C   -0.698440   0.605874
     3  C   -0.167454  -0.205730
     4  C    0.476545  -0.488285
     5  C   -0.091154  -0.409349
     6  N   -0.054499   0.149122
     7  C   -1.182680   1.114753
     8  C   -0.197654   0.415470
     9  C    0.876078  -1.632564
    10  C    1.432664  -2.107583
    11  H   -0.236289   0.370623
    12  H   -0.395383   0.531164
    13  H   -0.142103   0.279755
    14  H    0.118817  -0.018832
    15  H   -0.504094   0.660838
    16  H    0.208301  -0.045554
    17  H   -0.403264   0.553057
    18  H    0.000988   0.110052
    19  H   -0.032433   0.205552
    20  H    0.144897   0.010978
    21  H   -0.293539   0.491319
    22  H   -0.065898   0.297194
    23  H   -0.191911   0.317912
    24  H   -0.096823   0.223326
    25  H   -0.126189   0.268233
    26  H   -0.296353   0.422946
    27  H   -0.349666   0.509024
    28  H   -0.243844   0.413819
    29  H    0.031598   0.078242
 Sum of Mulliken charges =  -1.00000   1.00000

 Dipole moment (field-independent basis, Debye):
    X=             -1.6989    Y=              0.5903    Z=             -0.4838  Tot=              1.8624
 Quadrupole moment (field-independent basis, Debye-Ang):
   XX=           -148.6775   YY=           -106.8824   ZZ=            -99.1308
   XY=              4.6321   XZ=              2.8265   YZ=              0.8090

 Summary of Natural Population Analysis:

                                       Natural Population
                Natural  -----------------------------------------------
    Atom  No    Charge         Core      Valence    Rydberg      Total
 -----------------------------------------------------------------------
      C    1   -0.28702      0.99967     2.28209    0.00526     3.28702
      C    2   -0.19205      0.99964     2.18396    0.00844     3.19205
      C    3   -0.19353      0.99962     2.18481    0.00910     3.19353
      C    4   -0.20029      0.99962     2.19255    0.00812     3.20029
      C    5   -0.08967      0.99961     2.07857    0.01150     3.08967
      N    6   -0.32732      0.99970     2.81607    0.01154     3.82732
      C    7    0.08939      0.99946     1.89881    0.01234     2.91061
      C    8   -0.13644      0.99947     2.12829    0.00867     3.13644
      C    9   -0.29221      0.99966     2.28803    0.00453     3.29221
      C   10   -0.30517      0.99962     2.29991    0.00565     3.30517
      H   11    0.09550      0.00000     0.40325    0.00125     0.40450
      H   12    0.09958      0.00000     0.39912    0.00130     0.40042
      H   13    0.09614      0.00000     0.40257    0.00129     0.40386
      H   14    0.08947      0.00000     0.40906    0.00147     0.41053
      H   15    0.09728      0.00000     0.40134    0.00138     0.40272
      H   16    0.09852      0.00000     0.39961    0.00187     0.40148
      H   17    0.09675      0.00000     0.40209    0.00116     0.40325
      H   18    0.09871      0.00000     0.39998    0.00131     0.40129
      H   19    0.09782      0.00000     0.40091    0.00126     0.40218
      H   20    0.09562      0.00000     0.40311    0.00127     0.40438
      H   21    0.09546      0.00000     0.40328    0.00126     0.40454
      H   22    0.17708      0.00000     0.31923    0.00369     0.32292
      H   23    0.08849      0.00000     0.41016    0.00135     0.41151
      H   24    0.09616      0.00000     0.40216    0.00169     0.40384
      H   25    0.09857      0.00000     0.39970    0.00173     0.40143
      H   26    0.09876      0.00000     0.40007    0.00117     0.40124
      H   27    0.10443      0.00000     0.39411    0.00147     0.39557
      H   28    0.10494      0.00000     0.39369    0.00137     0.39506
      H   29    0.10503      0.00000     0.39399    0.00098     0.39497
 =======================================================================
   * Total *    0.00000      9.99608    29.89051    0.11341    40.00000

 Normal termination of Gaussian 16 at Tue Dec  8 11:19:27 2020.
