 Gaussian 16, Revision A.03,

 -----------------------------------------------------------
 # opt freq B3LYP/6-31G(d) empiricaldispersion=gd3bj scf=xqc
 -----------------------------------------------------------

 -------------------------------
 CID_131116469_JID_4197_neutraal
 -------------------------------
 Symbolic Z-matrix:
 Charge =  0 Multiplicity = 1

 SCF Done:  E(RB3LYP) =  -609.700141685     A.U. after   14 cycles
 SCF Done:  E(RB3LYP) =  -609.708652632     A.U. after   12 cycles
 SCF Done:  E(RB3LYP) =  -609.710357890     A.U. after   12 cycles
 SCF Done:  E(RB3LYP) =  -609.710699678     A.U. after   11 cycles
 SCF Done:  E(RB3LYP) =  -609.710756637     A.U. after   10 cycles
 SCF Done:  E(RB3LYP) =  -609.710777821     A.U. after   10 cycles
 SCF Done:  E(RB3LYP) =  -609.710782335     A.U. after    9 cycles
 SCF Done:  E(RB3LYP) =  -609.710785617     A.U. after    9 cycles
 SCF Done:  E(RB3LYP) =  -609.710788327     A.U. after    9 cycles
 SCF Done:  E(RB3LYP) =  -609.710790474     A.U. after    9 cycles
 SCF Done:  E(RB3LYP) =  -609.710792062     A.U. after    9 cycles
 SCF Done:  E(RB3LYP) =  -609.710792483     A.U. after    8 cycles
 SCF Done:  E(RB3LYP) =  -609.710792568     A.U. after    7 cycles
 SCF Done:  E(RB3LYP) =  -609.710792598     A.U. after    6 cycles
 Optimization completed.
    -- Stationary point found.
 Normal termination of Gaussian 16 at Sun Dec 13 16:00:42 2020.

 --------------------------------------------------------------------
 #N Geom=AllCheck Guess=TCheck SCRF=Check GenChk RB3LYP/6-31G(d) Freq
 --------------------------------------------------------------------

 Structure from the checkpoint file:  "JID_4197.chk"
 -------------------------------
 CID_131116469_JID_4197_neutraal
 -------------------------------
 Charge =  0 Multiplicity = 1

 SCF Done:  E(RB3LYP) =  -609.710792598     A.U. after    1 cycles

  Exact polarizability: 166.288   0.405 130.219  -7.181   1.467  91.834
 Approx polarizability: 213.463  -2.770 203.897 -16.057   0.534 141.954

 ******    1 imaginary frequencies (negative Signs) ******

                      1                      2                      3
                      A                      A                      A
 Frequencies --    -85.2540                37.3175                69.7389
 Red. masses --      1.2293                 3.5909                 3.2054
 Frc consts  --      0.0053                 0.0029                 0.0092
 IR Inten    --      0.3260                 0.9231                 2.7075

                      4                      5                      6
                      A                      A                      A
 Frequencies --     96.5600               152.1107               160.9603
 Red. masses --      3.3816                 2.1399                 2.4152
 Frc consts  --      0.0186                 0.0292                 0.0369
 IR Inten    --      2.6754                 5.2343                 1.8955

                      7                      8                      9
                      A                      A                      A
 Frequencies --    178.3061               232.8816               238.7725
 Red. masses --      1.1859                 2.5760                 2.1538
 Frc consts  --      0.0222                 0.0823                 0.0723
 IR Inten    --      1.2630                 2.1468                14.2489

                     10                     11                     12
                      A                      A                      A
 Frequencies --    257.8123               275.5275               291.5076
 Red. masses --      2.4943                 2.2145                 1.6559
 Frc consts  --      0.0977                 0.0990                 0.0829
 IR Inten    --     13.2819                11.5642                16.8975

                     13                     14                     15
                      A                      A                      A
 Frequencies --    326.4321               352.1784               364.5999
 Red. masses --      3.3543                 3.8383                 2.6259
 Frc consts  --      0.2106                 0.2805                 0.2057
 IR Inten    --      2.1765                 0.7822                 9.6355

                     16                     17                     18
                      A                      A                      A
 Frequencies --    431.5264               444.7555               486.0735
 Red. masses --      3.0065                 2.5560                 3.9482
 Frc consts  --      0.3299                 0.2979                 0.5496
 IR Inten    --      3.6055                 5.2666                 0.0755

                     19                     20                     21
                      A                      A                      A
 Frequencies --    565.4383               599.5488               615.3835
 Red. masses --      3.5715                 5.8042                 3.7792
 Frc consts  --      0.6728                 1.2293                 0.8432
 IR Inten    --      3.5726                 3.5538                 3.3184

                     22                     23                     24
                      A                      A                      A
 Frequencies --    624.3107               706.5370               714.8172
 Red. masses --      5.3775                 1.9697                 2.0215
 Frc consts  --      1.2349                 0.5793                 0.6086
 IR Inten    --     12.4352                11.6477                16.4027

                     25                     26                     27
                      A                      A                      A
 Frequencies --    732.1574               797.4794               838.8464
 Red. masses --      3.2959                 1.9366                 1.9841
 Frc consts  --      1.0410                 0.7257                 0.8226
 IR Inten    --     10.3825                 1.9848                76.3684

                     28                     29                     30
                      A                      A                      A
 Frequencies --    856.1638               866.2191               935.8602
 Red. masses --      1.5567                 2.2980                 2.3780
 Frc consts  --      0.6723                 1.0159                 1.2271
 IR Inten    --     67.3387                85.6861                 1.9852

                     31                     32                     33
                      A                      A                      A
 Frequencies --    949.0241               989.2737              1015.5657
 Red. masses --      2.2561                 2.0291                 2.4014
 Frc consts  --      1.1972                 1.1700                 1.4593
 IR Inten    --     11.3809                 8.3179                16.6944

                     34                     35                     36
                      A                      A                      A
 Frequencies --   1021.8538              1045.0719              1082.3163
 Red. masses --      3.0832                 1.7422                 1.8896
 Frc consts  --      1.8968                 1.1211                 1.3042
 IR Inten    --     18.6385                18.1054                 2.8477

                     37                     38                     39
                      A                      A                      A
 Frequencies --   1087.5324              1092.9155              1107.4155
 Red. masses --      1.5672                 1.7112                 1.6655
 Frc consts  --      1.0921                 1.2043                 1.2034
 IR Inten    --      5.5577                 0.6225                 7.4992

                     40                     41                     42
                      A                      A                      A
 Frequencies --   1134.3047              1159.5087              1186.7808
 Red. masses --      1.4554                 1.2863                 4.5715
 Frc consts  --      1.1033                 1.0189                 3.7936
 IR Inten    --      3.2925                 0.0596                12.0440

                     43                     44                     45
                      A                      A                      A
 Frequencies --   1198.2671              1225.7242              1234.7989
 Red. masses --      2.4826                 2.0343                 1.1715
 Frc consts  --      2.1002                 1.8008                 1.0524
 IR Inten    --      2.0898                 8.7252                 1.8743

                     46                     47                     48
                      A                      A                      A
 Frequencies --   1273.2697              1299.4201              1331.5109
 Red. masses --      1.3415                 1.6797                 1.8932
 Frc consts  --      1.2814                 1.6710                 1.9776
 IR Inten    --     44.7349                46.4069                26.0755

                     49                     50                     51
                      A                      A                      A
 Frequencies --   1361.4650              1363.4177              1389.8645
 Red. masses --      2.4465                 1.6435                 1.6247
 Frc consts  --      2.6718                 1.8000                 1.8491
 IR Inten    --     18.8383                33.1040                 6.4187

                     52                     53                     54
                      A                      A                      A
 Frequencies --   1407.9839              1433.1878              1443.1060
 Red. masses --      1.6811                 3.6387                 1.4428
 Frc consts  --      1.9635                 4.4036                 1.7704
 IR Inten    --     23.5694                20.4494                 1.1032

                     55                     56                     57
                      A                      A                      A
 Frequencies --   1445.0502              1481.9008              1492.0364
 Red. masses --      1.5062                 1.6628                 2.1413
 Frc consts  --      1.8530                 2.1514                 2.8086
 IR Inten    --     12.2349                37.3244                54.5471

                     58                     59                     60
                      A                      A                      A
 Frequencies --   1501.5694              1504.5094              1508.5744
 Red. masses --      1.0485                 1.0958                 1.0461
 Frc consts  --      1.3929                 1.4614                 1.4027
 IR Inten    --      5.1992                 1.4333                 7.9375

                     61                     62                     63
                      A                      A                      A
 Frequencies --   1521.3971              1524.0130              1536.2682
 Red. masses --      1.0653                 1.0754                 1.1035
 Frc consts  --      1.4528                 1.4716                 1.5344
 IR Inten    --      3.5290                 0.3572                24.2062

                     64                     65                     66
                      A                      A                      A
 Frequencies --   1551.8332              1565.1697              1647.3098
 Red. masses --      1.1570                 6.9660                 3.2377
 Frc consts  --      1.6417                10.0544                 5.1765
 IR Inten    --      3.9766               199.0602                 5.0795

                     67                     68                     69
                      A                      A                      A
 Frequencies --   1686.4213              1764.1627              2926.2868
 Red. masses --      1.3518                 6.7545                 1.0743
 Frc consts  --      2.2651                12.3857                 5.4199
 IR Inten    --     57.3369                 1.1884                56.8942

                     70                     71                     72
                      A                      A                      A
 Frequencies --   2978.6807              3020.9303              3026.8470
 Red. masses --      1.0740                 1.0629                 1.0386
 Frc consts  --      5.6143                 5.7152                 5.6064
 IR Inten    --     46.0982                48.3732                38.5181

                     73                     74                     75
                      A                      A                      A
 Frequencies --   3055.4649              3057.4264              3069.3668
 Red. masses --      1.0968                 1.0346                 1.0935
 Frc consts  --      6.0330                 5.6984                 6.0695
 IR Inten    --     41.5399                86.6171                12.4268

                     76                     77                     78
                      A                      A                      A
 Frequencies --   3072.3980              3116.9974              3123.1908
 Red. masses --      1.0918                 1.1060                 1.0994
 Frc consts  --      6.0721                 6.3312                 6.3182
 IR Inten    --     24.7397                22.2524                23.0351

                     79                     80                     81
                      A                      A                      A
 Frequencies --   3126.2878              3154.5056              3155.1509
 Red. masses --      1.0899                 1.0897                 1.1030
 Frc consts  --      6.2761                 6.3891                 6.4692
 IR Inten    --     21.2305                44.0696                12.6014

                     82                     83                     84
                      A                      A                      A
 Frequencies --   3267.1444              3485.1513              3586.8635
 Red. masses --      1.0971                 1.0501                 1.0937
 Frc consts  --      6.8998                 7.5150                 8.2901
 IR Inten    --      4.0396                 3.1071                 4.0632

 - Thermochemistry -
 -------------------
 Temperature   298.150 Kelvin.  Pressure   1.00000 Atm.
 Atom     1 has atomic number  6 and mass  12.00000

 Molecular mass:   192.13750 amu.
 Principal axes and moments of inertia in atomic units:
                           1         2         3
     Eigenvalues --  1315.699114428.233855173.50893
           X            0.99996   0.00906   0.00107
           Y           -0.00907   0.99992   0.00923
           Z           -0.00099  -0.00924   0.99996
 This molecule is an asymmetric top.
 Rotational symmetry number  1.
 Warning -- assumption of classical behavior for rotation
           may cause significant error
 Rotational temperatures (Kelvin)      0.06583     0.01956     0.01674
 Rotational constants (GHZ):           1.37170     0.40755     0.34884
    1 imaginary frequencies ignored.
 Zero-point vibrational energy     682088.6 (Joules/Mol)
                                  163.02309 (Kcal/Mol)
 Warning -- explicit consideration of  20 degrees of freedom as
           vibrations may cause significant error
 Vibrational temperatures:     53.69   100.34   138.93   218.85   231.59
          (Kelvin)            256.54   335.06   343.54   370.93   396.42
                              419.41   469.66   506.71   524.58   620.87
                              639.90   699.35   813.54   862.62   885.40
                              898.24  1016.55  1028.46  1053.41  1147.39
                             1206.91  1231.83  1246.30  1346.49  1365.43
                             1423.34  1461.17  1470.22  1503.63  1557.21
                             1564.72  1572.46  1593.32  1632.01  1668.27
                             1707.51  1724.04  1763.54  1776.60  1831.95
                             1869.58  1915.75  1958.84  1961.65  1999.70
                             2025.77  2062.04  2076.31  2079.10  2132.12
                             2146.71  2160.42  2164.65  2170.50  2188.95
                             2192.71  2210.35  2232.74  2251.93  2370.11
                             2426.38  2538.24  4210.27  4285.66  4346.44
                             4354.96  4396.13  4398.95  4416.13  4420.50
                             4484.66  4493.57  4498.03  4538.63  4539.56
                             4700.69  5014.36  5160.70

 Zero-point correction=                           0.259794 (Hartree/Particle)
 Thermal correction to Energy=                    0.272934
 Thermal correction to Enthalpy=                  0.273878
 Thermal correction to Gibbs Free Energy=         0.220130
 Sum of electronic and zero-point Energies=           -609.450999
 Sum of electronic and thermal Energies=              -609.437859
 Sum of electronic and thermal Enthalpies=            -609.436915
 Sum of electronic and thermal Free Energies=         -609.490663

                     E (Thermal)             CV                S
                      KCal/Mol        Cal/Mol-Kelvin    Cal/Mol-Kelvin
 Total                  171.268             50.642            113.122
 Electronic               0.000              0.000              0.000
 Translational            0.889              2.981             41.665
 Rotational               0.889              2.981             31.778
 Vibrational            169.491             44.681             39.679
 Vibration     1          0.594              1.982              5.397
 Vibration     2          0.598              1.969              4.161
 Vibration     3          0.603              1.952              3.523
 Vibration     4          0.619              1.900              2.646
 Vibration     5          0.622              1.890              2.538
 Vibration     6          0.629              1.869              2.346
 Vibration     7          0.654              1.791              1.857
 Vibration     8          0.657              1.781              1.812
 Vibration     9          0.667              1.750              1.677
 Vibration    10          0.677              1.719              1.561
 Vibration    11          0.687              1.690              1.465
 Vibration    12          0.710              1.623              1.278
 Vibration    13          0.729              1.571              1.156
 Vibration    14          0.738              1.545              1.102
 Vibration    15          0.793              1.402              0.854
 Vibration    16          0.804              1.372              0.812
 Vibration    17          0.842              1.281              0.694
 Vibration    18          0.921              1.106              0.513
 Vibration    19          0.958              1.033              0.450
 Vibration    20          0.975              0.999              0.424

                           ! Non-Optimized Parameters !
 Normal termination of Gaussian 16 at Sun Dec 13 16:08:52 2020.

 ----------------------------------------------------------------------
 # B3LYP/6-311++G(d,p) empiricaldispersion=gd3bj scf=xqc pop=npa geom=c
 heck
 ----------------------------------------------------------------------

 ---------------------------------------
 CID_131116469_JID_4197_Energie_neutraal
 ---------------------------------------
 Structure from the checkpoint file:  "JID_4197.chk"
 Charge =  0 Multiplicity = 1

 SCF Done:  E(RB3LYP) =  -609.881066085     A.U. after   14 cycles
 Normal termination of Gaussian 16 at Sun Dec 13 16:12:33 2020.

 ----------------------------------------------------------------------
 # B3LYP/6-311++G(d,p) empiricaldispersion=gd3bj scf=xqc pop=npa geom=c
 heck
 ----------------------------------------------------------------------

 -------------------------------------
 CID_131116469_JID_4197_Energie_kation
 -------------------------------------
 Structure from the checkpoint file:  "JID_4197.chk"
 Charge =  1 Multiplicity = 2

 SCF Done:  E(UB3LYP) =  -609.625672721     A.U. after   23 cycles
 Normal termination of Gaussian 16 at Sun Dec 13 16:21:01 2020.
 Gaussian 16:  ES64L-G16RevA.03 25-Dec-2016

 ----------------------------------------------------------------------
 # B3LYP/6-311++G(d,p) empiricaldispersion=gd3bj scf=xqc pop=npa geom=c
 heck
 ----------------------------------------------------------------------

 ------------------------------------
 CID_131116469_JID_4197_Energie_anion
 ------------------------------------
 Structure from the checkpoint file:  "JID_4197.chk"
 Charge = -1 Multiplicity = 2

                         Standard orientation:
 ---------------------------------------------------------------------
 Center     Atomic      Atomic             Coordinates (Angstroms)
 Number     Number       Type             X           Y           Z
 ---------------------------------------------------------------------
      1          6           0        3.739151    1.300463    1.024632
      2          6           0        2.810756    0.302935    0.388635
      3          6           0        3.236714   -0.748862   -0.318122
      4          6           0        2.302834   -1.768521   -0.913588
      5          6           0        0.907583   -1.665263   -0.296641
      6          7           0        0.497812   -0.261626   -0.280513
      7          6           0        1.338590    0.549697    0.610070
      8          6           0       -0.874626   -0.024517   -0.119508
      9          7           0       -1.737871   -0.936542    0.338607
     10          7           0       -2.943276   -0.327319    0.293839
     11          6           0       -2.861029    0.957558   -0.172740
     12          6           0       -1.530045    1.190614   -0.462046
     13          7           0       -0.882822    2.344154   -0.950605
     14          6           0       -4.123070   -1.046092    0.712601
     15          1           0        4.787733    1.031283    0.864476
     16          1           0        3.567516    1.367147    2.108039
     17          1           0        3.577800    2.309415    0.620559
     18          1           0        4.305412   -0.890321   -0.475923
     19          1           0        2.698615   -2.780920   -0.754461
     20          1           0        2.237890   -1.629629   -2.002889
     21          1           0        0.912641   -2.089774    0.722058
     22          1           0        0.172877   -2.229373   -0.875356
     23          1           0        1.105002    1.607250    0.438112
     24          1           0        1.092719    0.351812    1.672297
     25          1           0       -3.737077    1.582051   -0.274452
     26          1           0       -0.129294    2.074808   -1.579948
     27          1           0       -1.517809    2.960209   -1.448913
     28          1           0       -4.260651   -1.943628    0.100834
     29          1           0       -4.040073   -1.344995    1.762781
     30          1           0       -4.991356   -0.394081    0.593741
 ---------------------------------------------------------------------

 SCF Done:  E(UB3LYP) =  -609.867207210     A.U. after   33 cycles
 SCF Done:  E(UB3LYP) =  -609.867207210     a.u. after    1 cycles

 The electronic state is 2-A.
 Alpha  occ. eigenvalues --  -14.27734 -14.22026 -14.21630 -14.21018 -10.10900
 Alpha  occ. eigenvalues --  -10.10869 -10.10223 -10.09775 -10.09230 -10.09131
 Alpha  occ. eigenvalues --  -10.08446 -10.07905 -10.07714 -10.07132  -0.94269
 Alpha  occ. eigenvalues --   -0.84676  -0.80015  -0.73729  -0.70774  -0.67602
 Alpha  occ. eigenvalues --   -0.66469  -0.60376  -0.59318  -0.55032  -0.52667
 Alpha  occ. eigenvalues --   -0.48819  -0.46492  -0.42965  -0.41852  -0.39359
 Alpha  occ. eigenvalues --   -0.38708  -0.37575  -0.36980  -0.35942  -0.35292
 Alpha  occ. eigenvalues --   -0.34272  -0.33281  -0.31743  -0.30632  -0.30393
 Alpha  occ. eigenvalues --   -0.30025  -0.29362  -0.28020  -0.27921  -0.25117
 Alpha  occ. eigenvalues --   -0.23412  -0.21874  -0.19293  -0.17131  -0.14847
 Alpha  occ. eigenvalues --   -0.12104  -0.09103   0.04240
 Alpha virt. eigenvalues --    0.05709   0.06720   0.07291   0.08210   0.08436
 Alpha virt. eigenvalues --    0.09380   0.09622   0.09783   0.10452   0.10923
 Alpha virt. eigenvalues --    0.11218   0.11972   0.12501   0.12719   0.13275

  Beta  occ. eigenvalues --  -14.27728 -14.22022 -14.21621 -14.20976 -10.10899
  Beta  occ. eigenvalues --  -10.10829 -10.10212 -10.09771 -10.09227 -10.09105
  Beta  occ. eigenvalues --  -10.08447 -10.07898 -10.07692 -10.07121  -0.94257
  Beta  occ. eigenvalues --   -0.84667  -0.79956  -0.73710  -0.70754  -0.67586
  Beta  occ. eigenvalues --   -0.66432  -0.60341  -0.59280  -0.54997  -0.52639
  Beta  occ. eigenvalues --   -0.48771  -0.46463  -0.42918  -0.41827  -0.39316
  Beta  occ. eigenvalues --   -0.38652  -0.37549  -0.36952  -0.35920  -0.35254
  Beta  occ. eigenvalues --   -0.34253  -0.33257  -0.31712  -0.30596  -0.30364
  Beta  occ. eigenvalues --   -0.29997  -0.29333  -0.28003  -0.27897  -0.25098
  Beta  occ. eigenvalues --   -0.23392  -0.21843  -0.19273  -0.17111  -0.14833
  Beta  occ. eigenvalues --   -0.12079  -0.09077
  Beta virt. eigenvalues --    0.06120   0.06994   0.07397   0.07735   0.08499
  Beta virt. eigenvalues --    0.09118   0.09626   0.09787   0.10114   0.10766
  Beta virt. eigenvalues --    0.11205   0.11429   0.12074   0.12633   0.13028

 Mulliken charges and spin densities:
               1          2
     1  C    0.973095  -1.639078
     2  C   -0.337608   1.305123
     3  C    0.196095  -0.386788
     4  C    0.391266  -1.037363
     5  C   -0.067857  -0.113516
     6  N    0.310678   0.027509
     7  C   -1.089611   0.202715
     8  C    0.962544  -1.640056
     9  N   -0.683017   0.449436
    10  N    0.357771  -0.139652
    11  C   -0.616094   0.334258
    12  C    0.420168  -0.227661
    13  N   -0.438474   0.063143
    14  C    0.887046  -1.187004
    15  H   -0.243063   0.389672
    16  H   -0.012113   0.158273
    17  H   -0.048510   0.207249
    18  H   -0.317266   0.465786
    19  H    0.086599   0.046093
    20  H    0.007512   0.136119
    21  H    0.117486   0.019664
    22  H    0.125005   0.057915
    23  H    0.226580  -0.029863
    24  H    0.102562   0.050459
    25  H   -1.205283   1.387075
    26  H    0.055924   0.201181
    27  H   -0.313739   0.570926
    28  H   -0.189559   0.354390
    29  H   -0.084992   0.252799
    30  H   -0.573144   0.721193
 Sum of Mulliken charges =  -1.00000   1.00000

 Dipole moment (field-independent basis, Debye):
    X=              5.5248    Y=             -3.7181    Z=              1.0127  Tot=              6.7360
 Quadrupole moment (field-independent basis, Debye-Ang):
   XX=           -184.4142   YY=           -127.9469   ZZ=           -113.5870
   XY=              5.8688   XZ=             -2.7757   YZ=              5.4865

 Summary of Natural Population Analysis:

                                       Natural Population
                Natural  -----------------------------------------------
    Atom  No    Charge         Core      Valence    Rydberg      Total
 -----------------------------------------------------------------------
      C    1   -0.29224      0.99963     2.28768    0.00493     3.29224
      C    2   -0.01292      0.99949     2.00285    0.01058     3.01292
      C    3   -0.09948      0.99945     2.08992    0.01011     3.09948
      C    4   -0.20408      0.99961     2.19654    0.00793     3.20408
      C    5   -0.08063      0.99963     2.07126    0.00974     3.08063
      N    6   -0.27254      0.99966     2.76036    0.01252     3.77254
      C    7   -0.09598      0.99955     2.08566    0.01076     3.09598
      C    8    0.15654      0.99950     1.82736    0.01660     2.84346
      N    9   -0.17345      0.99969     2.66311    0.01066     3.67345
      N   10   -0.10826      0.99969     2.59625    0.01233     3.60826
      C   11   -0.02797      0.99950     2.01637    0.01210     3.02797
      C   12    0.02502      0.99943     1.96335    0.01221     2.97498
      N   13   -0.40612      0.99973     2.89536    0.01102     3.90612
      C   14   -0.16956      0.99964     2.16126    0.00866     3.16956
      H   15    0.10263      0.00000     0.39625    0.00111     0.39737
      H   16    0.10080      0.00000     0.39785    0.00135     0.39920
      H   17    0.10246      0.00000     0.39601    0.00152     0.39754
      H   18    0.09419      0.00000     0.40464    0.00117     0.40581
      H   19    0.09788      0.00000     0.40075    0.00137     0.40212
      H   20    0.10113      0.00000     0.39718    0.00169     0.39887
      H   21    0.08432      0.00000     0.41406    0.00162     0.41568
      H   22    0.10521      0.00000     0.39342    0.00137     0.39479
      H   23    0.10950      0.00000     0.38821    0.00229     0.39050
      H   24    0.08900      0.00000     0.40962    0.00138     0.41100
      H   25    0.10627      0.00000     0.39061    0.00312     0.39373
      H   26    0.18413      0.00000     0.31328    0.00259     0.31587
      H   27    0.18555      0.00000     0.31103    0.00342     0.31445
      H   28    0.09858      0.00000     0.39995    0.00148     0.40142
      H   29    0.09677      0.00000     0.40197    0.00126     0.40323
      H   30    0.10326      0.00000     0.39468    0.00206     0.39674
 =======================================================================
   * Total *   -0.00000     13.99418    37.82685    0.17897    52.00000

 Normal termination of Gaussian 16 at Sun Dec 13 16:33:03 2020.
