 Gaussian 16, Revision A.03,

 -----------------------------------------------------------
 # opt freq B3LYP/6-31G(d) empiricaldispersion=gd3bj scf=xqc
 -----------------------------------------------------------

 ------------------------------
 CID_63572455_JID_2015_neutraal
 ------------------------------
 Symbolic Z-matrix:
 Charge =  0 Multiplicity = 1

 SCF Done:  E(RB3LYP) =  -591.668677860     A.U. after   14 cycles
 SCF Done:  E(RB3LYP) =  -591.675066766     A.U. after   12 cycles
 SCF Done:  E(RB3LYP) =  -591.667440755     A.U. after   13 cycles
 SCF Done:  E(RB3LYP) =  -591.676238039     A.U. after   13 cycles
 SCF Done:  E(RB3LYP) =  -591.677334964     A.U. after   13 cycles
 SCF Done:  E(RB3LYP) =  -591.674922549     A.U. after   13 cycles
 SCF Done:  E(RB3LYP) =  -591.676288993     A.U. after   12 cycles
 SCF Done:  E(RB3LYP) =  -591.678720018     A.U. after   10 cycles
 SCF Done:  E(RB3LYP) =  -591.679819208     A.U. after   12 cycles
 SCF Done:  E(RB3LYP) =  -591.680105458     A.U. after   12 cycles
 SCF Done:  E(RB3LYP) =  -591.686117430     A.U. after   10 cycles
 SCF Done:  E(RB3LYP) =  -591.686129051     A.U. after   10 cycles
 SCF Done:  E(RB3LYP) =  -591.686134777     A.U. after   10 cycles
 SCF Done:  E(RB3LYP) =  -591.686135514     A.U. after    8 cycles
 SCF Done:  E(RB3LYP) =  -591.686135740     A.U. after    8 cycles
 Optimization completed.
    -- Stationary point found.
 Normal termination of Gaussian 16 at Wed Dec  9 17:21:20 2020.

 --------------------------------------------------------------------
 #N Geom=AllCheck Guess=TCheck SCRF=Check GenChk RB3LYP/6-31G(d) Freq
 --------------------------------------------------------------------

 Structure from the checkpoint file:  "JID_2015.chk"
 ------------------------------
 CID_63572455_JID_2015_neutraal
 ------------------------------
 Charge =  0 Multiplicity = 1

 SCF Done:  E(RB3LYP) =  -591.686135740     A.U. after    1 cycles

  Exact polarizability: 103.642   3.151  98.793  -2.791   3.669  97.919
 Approx polarizability: 131.604   1.837 141.553  -6.173  12.348 148.464

                      1                      2                      3
                      A                      A                      A
 Frequencies --     32.4849                58.0479                69.5627
 Red. masses --      3.8922                 3.3307                 6.2700
 Frc consts  --      0.0024                 0.0066                 0.0179
 IR Inten    --      0.7320                 0.9264                 2.1055

                      4                      5                      6
                      A                      A                      A
 Frequencies --     84.2248               129.5873               150.2177
 Red. masses --      2.1072                 4.5503                 4.2022
 Frc consts  --      0.0088                 0.0450                 0.0559
 IR Inten    --      0.7631                 2.4950                 5.5667

                      7                      8                      9
                      A                      A                      A
 Frequencies --    174.5196               188.8814               223.3891
 Red. masses --      3.9947                 3.6720                 1.8347
 Frc consts  --      0.0717                 0.0772                 0.0539
 IR Inten    --      3.9712                 6.3908                 6.1976

                     10                     11                     12
                      A                      A                      A
 Frequencies --    262.8609               281.7125               312.6677
 Red. masses --      1.5374                 2.8683                 2.4509
 Frc consts  --      0.0626                 0.1341                 0.1412
 IR Inten    --      3.4046                 8.4098                18.7446

                     13                     14                     15
                      A                      A                      A
 Frequencies --    336.7073               412.1137               441.8431
 Red. masses --      2.1609                 1.5424                 1.9719
 Frc consts  --      0.1443                 0.1543                 0.2268
 IR Inten    --      5.4298               116.7130                14.0717

                     16                     17                     18
                      A                      A                      A
 Frequencies --    456.9279               471.7418               520.1373
 Red. masses --      2.0179                 2.3406                 3.8749
 Frc consts  --      0.2482                 0.3069                 0.6177
 IR Inten    --     39.5089                 0.3731                13.8445

                     19                     20                     21
                      A                      A                      A
 Frequencies --    565.8129               573.7328               646.6020
 Red. masses --      2.6348                 3.2314                 1.9948
 Frc consts  --      0.4970                 0.6267                 0.4914
 IR Inten    --      0.5039                27.8208                 9.9344

                     22                     23                     24
                      A                      A                      A
 Frequencies --    730.6373               748.7956               753.8534
 Red. masses --      1.8039                 1.2363                 1.9765
 Frc consts  --      0.5674                 0.4084                 0.6618
 IR Inten    --     22.8580                81.5864                90.7324

                     25                     26                     27
                      A                      A                      A
 Frequencies --    782.9321               814.3813               890.1850
 Red. masses --      2.8752                 1.1799                 2.1628
 Frc consts  --      1.0384                 0.4611                 1.0098
 IR Inten    --      4.8802                 4.2541                10.3126

                     28                     29                     30
                      A                      A                      A
 Frequencies --    922.5638               936.1416               991.1647
 Red. masses --      2.1017                 2.0661                 1.7341
 Frc consts  --      1.0539                 1.0668                 1.0038
 IR Inten    --      3.0090                 0.2368                69.1493

                     31                     32                     33
                      A                      A                      A
 Frequencies --   1003.0635              1024.4980              1058.7952
 Red. masses --      1.9714                 2.2562                 2.4767
 Frc consts  --      1.1686                 1.3953                 1.6358
 IR Inten    --     12.6093                16.5223                21.4261

                     34                     35                     36
                      A                      A                      A
 Frequencies --   1083.0674              1091.9431              1101.9555
 Red. masses --      3.4687                 2.5791                 2.2820
 Frc consts  --      2.3973                 1.8119                 1.6327
 IR Inten    --     40.3646                77.3653                15.2503

                     37                     38                     39
                      A                      A                      A
 Frequencies --   1140.2788              1154.6550              1190.5495
 Red. masses --      1.7722                 2.1329                 1.8639
 Frc consts  --      1.3577                 1.6755                 1.5565
 IR Inten    --      6.1598                45.2396                 5.9186

                     40                     41                     42
                      A                      A                      A
 Frequencies --   1211.8574              1237.1805              1252.2376
 Red. masses --      1.3759                 1.3534                 1.4910
 Frc consts  --      1.1905                 1.2205                 1.3775
 IR Inten    --     17.7407                19.6025                16.0625

                     43                     44                     45
                      A                      A                      A
 Frequencies --   1303.1753              1330.6581              1342.2006
 Red. masses --      1.2913                 1.5936                 1.2152
 Frc consts  --      1.2920                 1.6625                 1.2898
 IR Inten    --     12.6891                19.6896                 9.9393

                     46                     47                     48
                      A                      A                      A
 Frequencies --   1361.2686              1365.8724              1390.9040
 Red. masses --      1.2913                 1.2274                 1.2831
 Frc consts  --      1.4098                 1.3492                 1.4625
 IR Inten    --     24.0935                24.3647                 0.5748

                     49                     50                     51
                      A                      A                      A
 Frequencies --   1404.3449              1412.8612              1427.8101
 Red. masses --      1.2299                 1.3565                 1.2935
 Frc consts  --      1.4291                 1.5954                 1.5537
 IR Inten    --     14.4936                19.9978                 2.6432

                     52                     53                     54
                      A                      A                      A
 Frequencies --   1432.5790              1449.5381              1481.2189
 Red. masses --      1.8062                 1.3148                 1.3880
 Frc consts  --      2.1840                 1.6277                 1.7942
 IR Inten    --     58.6471                 9.2726                22.2034

                     55                     56                     57
                      A                      A                      A
 Frequencies --   1491.9712              1496.0830              1513.8574
 Red. masses --      1.3757                 1.1990                 1.0833
 Frc consts  --      1.8042                 1.5812                 1.4627
 IR Inten    --     37.7067                43.1086                 7.5850

                     58                     59                     60
                      A                      A                      A
 Frequencies --   1520.8768              1528.7878              1535.9615
 Red. masses --      1.0545                 1.0645                 1.0769
 Frc consts  --      1.4371                 1.4658                 1.4969
 IR Inten    --      1.5476                 5.2201                15.1173

                     61                     62                     63
                      A                      A                      A
 Frequencies --   1542.6572              1560.3691              1706.2041
 Red. masses --      1.0979                 1.0952                 1.1487
 Frc consts  --      1.5394                 1.5711                 1.9702
 IR Inten    --     23.1427                 2.3041                27.5689

                     64                     65                     66
                      A                      A                      A
 Frequencies --   1779.4285              2958.0436              3009.8750
 Red. masses --      6.1834                 1.0731                 1.0702
 Frc consts  --     11.5355                 5.5321                 5.7121
 IR Inten    --    224.1180                78.6971                44.6758

                     67                     68                     69
                      A                      A                      A
 Frequencies --   3035.1760              3037.8517              3054.7956
 Red. masses --      1.0657                 1.0662                 1.0359
 Frc consts  --      5.7844                 5.7974                 5.6956
 IR Inten    --     41.8952                40.6546                16.8771

                     70                     71                     72
                      A                      A                      A
 Frequencies --   3063.8274              3085.8505              3092.5375
 Red. masses --      1.0677                 1.0881                 1.0971
 Frc consts  --      5.9050                 6.1048                 6.1821
 IR Inten    --     21.0359                15.7244                32.5232

                     73                     74                     75
                      A                      A                      A
 Frequencies --   3099.1612              3111.8416              3122.7442
 Red. masses --      1.1001                 1.0967                 1.1024
 Frc consts  --      6.2253                 6.2572                 6.3337
 IR Inten    --     18.7349                39.3952                36.6592

                     76                     77                     78
                      A                      A                      A
 Frequencies --   3131.6451              3154.2246              3442.8951
 Red. masses --      1.1013                 1.0954                 1.0490
 Frc consts  --      6.3635                 6.4209                 7.3259
 IR Inten    --     39.7742                 8.2412                22.4308

                     79                     80                     81
                      A                      A                      A
 Frequencies --   3499.4626              3503.7300              3550.9597
 Red. masses --      1.0752                 1.0640                 1.0958
 Frc consts  --      7.7581                 7.6960                 8.1410
 IR Inten    --     14.4738               125.8118                10.8640

 - Thermochemistry -
 -------------------
 Temperature   298.150 Kelvin.  Pressure   1.00000 Atm.
 Atom     1 has atomic number  6 and mass  12.00000

 Molecular mass:   175.13208 amu.
 Principal axes and moments of inertia in atomic units:
                           1         2         3
     Eigenvalues --  1493.463502761.213392942.23854
           X            0.99985   0.01732  -0.00085
           Y           -0.01733   0.99973  -0.01538
           Z            0.00058   0.01539   0.99988
 This molecule is an asymmetric top.
 Rotational symmetry number  1.
 Warning -- assumption of classical behavior for rotation
           may cause significant error
 Rotational temperatures (Kelvin)      0.05800     0.03137     0.02944
 Rotational constants (GHZ):           1.20843     0.65360     0.61339
 Zero-point vibrational energy     680960.8 (Joules/Mol)
                                  162.75354 (Kcal/Mol)
 Warning -- explicit consideration of  20 degrees of freedom as
           vibrations may cause significant error
 Vibrational temperatures:     46.74    83.52   100.09   121.18   186.45
          (Kelvin)            216.13   251.09   271.76   321.41   378.20
                              405.32   449.86   484.45   592.94   635.71
                              657.42   678.73   748.36   814.08   825.47
                              930.32  1051.22  1077.35  1084.63  1126.46
                             1171.71  1280.78  1327.36  1346.90  1426.06
                             1443.18  1474.02  1523.37  1558.29  1571.06
                             1585.47  1640.61  1661.29  1712.94  1743.59
                             1780.03  1801.69  1874.98  1914.52  1931.13
                             1958.56  1965.19  2001.20  2020.54  2032.79
                             2054.30  2061.16  2085.56  2131.14  2146.61
                             2152.53  2178.10  2188.20  2199.58  2209.91
                             2219.54  2245.02  2454.85  2560.20  4255.96
                             4330.54  4366.94  4370.79  4395.17  4408.16
                             4439.85  4449.47  4459.00  4477.25  4492.93
                             4505.74  4538.23  4953.56  5034.95  5041.09
                             5109.04

 Zero-point correction=                           0.259364 (Hartree/Particle)
 Thermal correction to Energy=                    0.272990
 Thermal correction to Enthalpy=                  0.273934
 Thermal correction to Gibbs Free Energy=         0.218688
 Sum of electronic and zero-point Energies=           -591.426771
 Sum of electronic and thermal Energies=              -591.413146
 Sum of electronic and thermal Enthalpies=            -591.412202
 Sum of electronic and thermal Free Energies=         -591.467448

                     E (Thermal)             CV                S
                      KCal/Mol        Cal/Mol-Kelvin    Cal/Mol-Kelvin
 Total                  171.304             50.183            116.276
 Electronic               0.000              0.000              0.000
 Translational            0.889              2.981             41.388
 Rotational               0.889              2.981             30.874
 Vibrational            169.526             44.222             44.014
 Vibration     1          0.594              1.983              5.672
 Vibration     2          0.596              1.974              4.522
 Vibration     3          0.598              1.969              4.166
 Vibration     4          0.601              1.960              3.790
 Vibration     5          0.612              1.924              2.952
 Vibration     6          0.618              1.902              2.669
 Vibration     7          0.627              1.874              2.386
 Vibration     8          0.633              1.855              2.239
 Vibration     9          0.649              1.805              1.931
 Vibration    10          0.670              1.741              1.643
 Vibration    11          0.681              1.707              1.523
 Vibration    12          0.701              1.650              1.348
 Vibration    13          0.717              1.602              1.228
 Vibration    14          0.776              1.444              0.919
 Vibration    15          0.802              1.379              0.821
 Vibration    16          0.815              1.346              0.775
 Vibration    17          0.829              1.313              0.733
 Vibration    18          0.875              1.205              0.610
 Vibration    19          0.922              1.105              0.512
 Vibration    20          0.930              1.088              0.497

                           ! Non-Optimized Parameters !
 Normal termination of Gaussian 16 at Wed Dec  9 17:28:57 2020.

 ----------------------------------------------------------------------
 # B3LYP/6-311++G(d,p) empiricaldispersion=gd3bj scf=xqc pop=npa geom=c
 heck
 ----------------------------------------------------------------------

 --------------------------------------
 CID_63572455_JID_2015_Energie_neutraal
 --------------------------------------
 Structure from the checkpoint file:  "JID_2015.chk"
 Charge =  0 Multiplicity = 1

 SCF Done:  E(RB3LYP) =  -591.878842821     A.U. after   14 cycles
 Normal termination of Gaussian 16 at Wed Dec  9 17:32:22 2020.

 ----------------------------------------------------------------------
 # B3LYP/6-311++G(d,p) empiricaldispersion=gd3bj scf=xqc pop=npa geom=c
 heck
 ----------------------------------------------------------------------

 ------------------------------------
 CID_63572455_JID_2015_Energie_kation
 ------------------------------------
 Structure from the checkpoint file:  "JID_2015.chk"
 Charge =  1 Multiplicity = 2

 SCF Done:  E(UB3LYP) =  -591.575701896     A.U. after   22 cycles
 Normal termination of Gaussian 16 at Wed Dec  9 17:39:02 2020.
 Gaussian 16:  ES64L-G16RevA.03 25-Dec-2016

 ----------------------------------------------------------------------
 # B3LYP/6-311++G(d,p) empiricaldispersion=gd3bj scf=xqc pop=npa geom=c
 heck
 ----------------------------------------------------------------------

 -----------------------------------
 CID_63572455_JID_2015_Energie_anion
 -----------------------------------
 Structure from the checkpoint file:  "JID_2015.chk"
 Charge = -1 Multiplicity = 2

                         Standard orientation:
 ---------------------------------------------------------------------
 Center     Atomic      Atomic             Coordinates (Angstroms)
 Number     Number       Type             X           Y           Z
 ---------------------------------------------------------------------
      1          6           0        3.049619   -0.467820   -1.177267
      2          6           0        2.434318    0.812619   -0.614919
      3          7           0        1.206744    0.567482    0.149287
      4          6           0        0.252228    1.685805    0.132413
      5          6           0       -0.968696    1.412887   -0.764254
      6          6           0       -2.008785    0.595765   -0.015531
      7          8           0       -2.471404    0.977010    1.055440
      8          7           0       -2.462311   -0.572939   -0.576446
      9          7           0       -1.718284   -1.284420   -1.535646
     10          6           0        1.407743   -0.055639    1.461075
     11          6           0        0.353006   -1.157019    1.656265
     12          8           0        0.295333   -1.942785    0.470238
     13          1           0        3.304077   -1.184077   -0.389637
     14          1           0        3.967789   -0.237158   -1.729148
     15          1           0        2.348306   -0.958600   -1.860754
     16          1           0        3.181177    1.361242   -0.012318
     17          1           0        2.168653    1.465292   -1.452921
     18          1           0       -0.110683    1.886200    1.145984
     19          1           0        0.757988    2.597882   -0.209539
     20          1           0       -1.455206    2.368158   -0.997907
     21          1           0       -0.668436    0.932266   -1.696327
     22          1           0       -3.065138   -1.094221    0.057269
     23          1           0       -1.234714   -2.048640   -1.062018
     24          1           0       -2.357554   -1.657913   -2.233006
     25          1           0        2.400319   -0.515185    1.474965
     26          1           0        1.368993    0.675624    2.283303
     27          1           0        0.626558   -1.811966    2.490430
     28          1           0       -0.623858   -0.706825    1.882410
     29          1           0        0.500659   -1.276332   -0.223264
 ---------------------------------------------------------------------

 SCF Done:  E(UB3LYP) =  -591.864030555     A.U. after   33 cycles
 SCF Done:  E(UB3LYP) =  -591.864030555     a.u. after    1 cycles

 The electronic state is 2-A.
 Alpha  occ. eigenvalues --  -19.01398 -18.98747 -14.25613 -14.22913 -14.21433
 Alpha  occ. eigenvalues --  -10.16794 -10.11424 -10.10231 -10.10083 -10.09762
 Alpha  occ. eigenvalues --  -10.07077 -10.05966  -0.94281  -0.92088  -0.87408
 Alpha  occ. eigenvalues --   -0.82844  -0.69609  -0.67533  -0.66116  -0.61462
 Alpha  occ. eigenvalues --   -0.55137  -0.53273  -0.48339  -0.45921  -0.42980
 Alpha  occ. eigenvalues --   -0.41747  -0.40235  -0.40003  -0.38009  -0.36968
 Alpha  occ. eigenvalues --   -0.36058  -0.34443  -0.33636  -0.32588  -0.30658
 Alpha  occ. eigenvalues --   -0.29359  -0.28252  -0.27283  -0.26637  -0.25765
 Alpha  occ. eigenvalues --   -0.25511  -0.24379  -0.23113  -0.18137  -0.17561
 Alpha  occ. eigenvalues --   -0.16348  -0.15463  -0.12972   0.04602
 Alpha virt. eigenvalues --    0.06333   0.07349   0.07666   0.09019   0.09373
 Alpha virt. eigenvalues --    0.09919   0.10621   0.10712   0.11347   0.11766
 Alpha virt. eigenvalues --    0.12390   0.13319   0.13791   0.14225   0.14903

  Beta  occ. eigenvalues --  -19.01391 -18.98731 -14.25599 -14.22850 -14.21414
  Beta  occ. eigenvalues --  -10.16772 -10.11416 -10.10220 -10.10072 -10.09735
  Beta  occ. eigenvalues --  -10.07064 -10.05935  -0.94241  -0.92075  -0.87349
  Beta  occ. eigenvalues --   -0.82812  -0.69506  -0.67491  -0.66081  -0.61420
  Beta  occ. eigenvalues --   -0.55094  -0.53213  -0.48279  -0.45870  -0.42895
  Beta  occ. eigenvalues --   -0.41679  -0.40193  -0.39959  -0.37971  -0.36936
  Beta  occ. eigenvalues --   -0.36023  -0.34400  -0.33593  -0.32560  -0.30625
  Beta  occ. eigenvalues --   -0.29305  -0.28208  -0.27238  -0.26581  -0.25739
  Beta  occ. eigenvalues --   -0.25476  -0.24338  -0.23095  -0.18079  -0.17550
  Beta  occ. eigenvalues --   -0.16286  -0.15437  -0.12869
  Beta virt. eigenvalues --    0.06974   0.07750   0.07855   0.08172   0.09506
  Beta virt. eigenvalues --    0.09857   0.10466   0.10755   0.10978   0.11726
  Beta virt. eigenvalues --    0.12368   0.12941   0.13681   0.13993   0.14368

 Mulliken charges and spin densities:
               1          2
     1  C    0.678830  -1.166346
     2  C    0.291790  -0.510919
     3  N   -0.130932   0.212299
     4  C   -0.533419   0.118047
     5  C    0.071982  -0.115235
     6  C    0.332833  -0.717997
     7  O   -0.316048   0.032968
     8  N   -0.159732   0.114851
     9  N   -0.056651  -0.397947
    10  C    0.625478  -0.962792
    11  C   -0.863646   0.506435
    12  O   -0.203735  -0.010276
    13  H   -0.154795   0.293692
    14  H   -0.532712   0.677343
    15  H   -0.090131   0.245599
    16  H   -0.277565   0.416337
    17  H   -0.348408   0.499699
    18  H    0.272509  -0.104339
    19  H   -0.371166   0.546059
    20  H   -0.046475   0.225948
    21  H    0.232878  -0.011991
    22  H   -0.000332   0.278359
    23  H    0.066046   0.191361
    24  H   -0.503237   0.794244
    25  H    0.141245   0.007184
    26  H    0.013811   0.105905
    27  H   -0.044030   0.201873
    28  H    0.186176   0.002768
    29  H    0.719438  -0.473128
 Sum of Mulliken charges =  -1.00000   1.00000

 Dipole moment (field-independent basis, Debye):
    X=             -0.1265    Y=              0.4134    Z=              4.6936  Tot=              4.7134
 Quadrupole moment (field-independent basis, Debye-Ang):
   XX=           -143.4755   YY=           -115.7198   ZZ=           -113.6050
   XY=             -7.7090   XZ=              2.7411   YZ=             -5.0837

 Summary of Natural Population Analysis:

                                       Natural Population
                Natural  -----------------------------------------------
    Atom  No    Charge         Core      Valence    Rydberg      Total
 -----------------------------------------------------------------------
      C    1   -0.29094      0.99966     2.28503    0.00625     3.29094
      C    2   -0.07621      0.99961     2.06563    0.01097     3.07621
      N    3   -0.30461      0.99971     2.78944    0.01546     3.80461
      C    4   -0.07783      0.99960     2.06716    0.01107     3.07783
      C    5   -0.23976      0.99957     2.23139    0.00880     3.23976
      C    6    0.34447      0.99967     1.63150    0.02436     2.65553
      O    7   -0.33231      0.99988     3.32688    0.00556     4.33231
      N    8   -0.23364      0.99965     2.71823    0.01575     3.73364
      N    9   -0.32408      0.99975     2.81086    0.01347     3.82408
      C   10   -0.09270      0.99961     2.08355    0.00954     3.09270
      C   11   -0.01883      0.99960     2.00775    0.01148     3.01883
      O   12   -0.38870      0.99990     3.38261    0.00619     4.38870
      H   13    0.09702      0.00000     0.40177    0.00120     0.40298
      H   14    0.10168      0.00000     0.39690    0.00142     0.39832
      H   15    0.10037      0.00000     0.39809    0.00154     0.39963
      H   16    0.08171      0.00000     0.41649    0.00180     0.41829
      H   17    0.09738      0.00000     0.40067    0.00194     0.40262
      H   18    0.09992      0.00000     0.39850    0.00157     0.40008
      H   19    0.09355      0.00000     0.40512    0.00133     0.40645
      H   20    0.11016      0.00000     0.38877    0.00107     0.38984
      H   21    0.11747      0.00000     0.38041    0.00213     0.38253
      H   22    0.18156      0.00000     0.31564    0.00280     0.31844
      H   23    0.18451      0.00000     0.31282    0.00267     0.31549
      H   24    0.17997      0.00000     0.31146    0.00857     0.32003
      H   25    0.09709      0.00000     0.40160    0.00131     0.40291
      H   26    0.08895      0.00000     0.41008    0.00097     0.41105
      H   27    0.08237      0.00000     0.41655    0.00108     0.41763
      H   28    0.08281      0.00000     0.41539    0.00180     0.41719
      H   29    0.23861      0.00000     0.25578    0.00561     0.26139
 =======================================================================
   * Total *   -0.00000     11.99620    35.82608    0.17772    48.00000

 Normal termination of Gaussian 16 at Wed Dec  9 17:48:22 2020.
