 Gaussian 16, Revision A.03,

 -----------------------------------------------------------
 # opt freq B3LYP/6-31G(d) empiricaldispersion=gd3bj scf=xqc
 -----------------------------------------------------------

 ------------------------------
 CID_28263821_JID_6116_neutraal
 ------------------------------
 Symbolic Z-matrix:
 Charge =  0 Multiplicity = 1

 SCF Done:  E(RB3LYP) =  -728.113829676     A.U. after   15 cycles
 SCF Done:  E(RB3LYP) =  -728.119512402     A.U. after   12 cycles
 SCF Done:  E(RB3LYP) =  -728.117738146     A.U. after   13 cycles
 SCF Done:  E(RB3LYP) =  -728.120196201     A.U. after   12 cycles
 SCF Done:  E(RB3LYP) =  -728.121727674     A.U. after   12 cycles
 SCF Done:  E(RB3LYP) =  -728.122887624     A.U. after   12 cycles
 SCF Done:  E(RB3LYP) =  -728.123052665     A.U. after   12 cycles
 SCF Done:  E(RB3LYP) =  -728.124899250     A.U. after   12 cycles
 SCF Done:  E(RB3LYP) =  -728.125480678     A.U. after   12 cycles
 SCF Done:  E(RB3LYP) =  -728.125572456     A.U. after   12 cycles
 SCF Done:  E(RB3LYP) =  -728.128544053     A.U. after   10 cycles
 SCF Done:  E(RB3LYP) =  -728.128547818     A.U. after    9 cycles
 SCF Done:  E(RB3LYP) =  -728.128548617     A.U. after    8 cycles
 SCF Done:  E(RB3LYP) =  -728.128548983     A.U. after    8 cycles
 SCF Done:  E(RB3LYP) =  -728.128549074     A.U. after    7 cycles
 Optimization completed.
    -- Stationary point found.
 Normal termination of Gaussian 16 at Thu Dec 10 21:29:59 2020.

 --------------------------------------------------------------------
 #N Geom=AllCheck Guess=TCheck SCRF=Check GenChk RB3LYP/6-31G(d) Freq
 --------------------------------------------------------------------

 Structure from the checkpoint file:  "JID_6116.chk"
 ------------------------------
 CID_28263821_JID_6116_neutraal
 ------------------------------
 Charge =  0 Multiplicity = 1

 SCF Done:  E(RB3LYP) =  -728.128549074     A.U. after    1 cycles

  Exact polarizability: 160.675  -4.805 154.941 -12.595   8.850 107.195
 Approx polarizability: 228.243 -11.681 239.682 -33.237  23.640 165.961

                      1                      2                      3
                      A                      A                      A
 Frequencies --     35.4122                47.7143                59.9095
 Red. masses --      4.1547                 4.1985                 4.8484
 Frc consts  --      0.0031                 0.0056                 0.0103
 IR Inten    --      1.4801                 0.1757                 1.5039

                      4                      5                      6
                      A                      A                      A
 Frequencies --     64.5968                78.9688               114.3003
 Red. masses --      3.5640                 3.9824                 3.1532
 Frc consts  --      0.0088                 0.0146                 0.0243
 IR Inten    --      0.4291                 0.7744                 0.0216

                      7                      8                      9
                      A                      A                      A
 Frequencies --    183.5927               209.8914               220.0335
 Red. masses --      3.4186                 1.3144                 2.0297
 Frc consts  --      0.0679                 0.0341                 0.0579
 IR Inten    --      0.6938                 0.2694                 1.3379

                     10                     11                     12
                      A                      A                      A
 Frequencies --    245.1409               262.5164               270.3499
 Red. masses --      1.8313                 2.3509                 1.1681
 Frc consts  --      0.0648                 0.0955                 0.0503
 IR Inten    --      3.2371                 2.7967                42.6283

                     13                     14                     15
                      A                      A                      A
 Frequencies --    278.4557               296.3343               314.6503
 Red. masses --      1.1955                 2.2937                 1.8308
 Frc consts  --      0.0546                 0.1187                 0.1068
 IR Inten    --      0.1812                 0.7903                 0.9569

                     16                     17                     18
                      A                      A                      A
 Frequencies --    339.0599               367.0467               400.9718
 Red. masses --      3.0378                 2.6837                 3.7472
 Frc consts  --      0.2058                 0.2130                 0.3550
 IR Inten    --      1.4261                 1.0382                 2.6921

                     19                     20                     21
                      A                      A                      A
 Frequencies --    419.6871               439.0272               443.5721
 Red. masses --      3.4374                 2.9962                 3.7367
 Frc consts  --      0.3567                 0.3403                 0.4332
 IR Inten    --      0.8823                12.2792                10.8928

                     22                     23                     24
                      A                      A                      A
 Frequencies --    478.3429               526.0633               541.8513
 Red. masses --      3.4199                 2.1565                 4.5880
 Frc consts  --      0.4610                 0.3516                 0.7937
 IR Inten    --      7.9659                16.2645                 4.5365

                     25                     26                     27
                      A                      A                      A
 Frequencies --    573.0266               579.6774               602.7086
 Red. masses --      2.6192                 3.6648                 4.3238
 Frc consts  --      0.5067                 0.7256                 0.9254
 IR Inten    --     22.0877                14.4831                10.9354

                     28                     29                     30
                      A                      A                      A
 Frequencies --    661.2993               691.0160               758.3465
 Red. masses --      3.1646                 4.9627                 4.4802
 Frc consts  --      0.8154                 1.3962                 1.5180
 IR Inten    --     20.0129                 7.6766                13.9285

                     31                     32                     33
                      A                      A                      A
 Frequencies --    766.5020               769.1918               792.3488
 Red. masses --      4.0879                 1.3318                 3.0157
 Frc consts  --      1.4151                 0.4642                 1.1155
 IR Inten    --     43.5468                32.3719                15.4059

                     34                     35                     36
                      A                      A                      A
 Frequencies --    831.3432               856.6180               868.1640
 Red. masses --      1.2689                 2.1974                 1.6724
 Frc consts  --      0.5167                 0.9500                 0.7426
 IR Inten    --      0.2892                17.5641                 6.9364

                     37                     38                     39
                      A                      A                      A
 Frequencies --    912.7308               925.1872               933.5575
 Red. masses --      2.5439                 1.6982                 2.1918
 Frc consts  --      1.2486                 0.8564                 1.1255
 IR Inten    --     41.2117                57.9814                43.6869

                     40                     41                     42
                      A                      A                      A
 Frequencies --    945.4554               952.7521               976.2601
 Red. masses --      1.5519                 1.5056                 1.2445
 Frc consts  --      0.8173                 0.8052                 0.6989
 IR Inten    --      1.2811                 7.6807                 0.2522

                     43                     44                     45
                      A                      A                      A
 Frequencies --    997.6624              1040.6853              1067.7615
 Red. masses --      1.7088                 1.3183                 3.5864
 Frc consts  --      1.0021                 0.8412                 2.4091
 IR Inten    --      2.3873                 3.1138                24.4576

                     46                     47                     48
                      A                      A                      A
 Frequencies --   1081.3177              1126.2235              1137.3815
 Red. masses --      2.2720                 1.9438                 1.5250
 Frc consts  --      1.5652                 1.4526                 1.1623
 IR Inten    --     23.8344                17.9519                 8.8432

                     49                     50                     51
                      A                      A                      A
 Frequencies --   1148.6197              1192.0981              1197.6206
 Red. masses --      1.7144                 2.7186                 1.1145
 Frc consts  --      1.3326                 2.2763                 0.9418
 IR Inten    --     45.3058                22.1625                11.1660

                     52                     53                     54
                      A                      A                      A
 Frequencies --   1204.2370              1241.5123              1260.7015
 Red. masses --      1.6746                 2.6109                 2.7932
 Frc consts  --      1.4308                 2.3711                 2.6157
 IR Inten    --      4.5207                29.3508               100.8988

                     55                     56                     57
                      A                      A                      A
 Frequencies --   1293.6862              1312.3535              1333.0441
 Red. masses --      3.0703                 1.5133                 2.2436
 Frc consts  --      3.0275                 1.5356                 2.3490
 IR Inten    --    127.8410                24.9800                78.0768

                     58                     59                     60
                      A                      A                      A
 Frequencies --   1335.0007              1359.4302              1399.5981
 Red. masses --      1.4766                 2.9967                 2.4340
 Frc consts  --      1.5505                 3.2629                 2.8092
 IR Inten    --     42.7732                67.8557                82.5926

                     61                     62                     63
                      A                      A                      A
 Frequencies --   1420.7972              1421.7760              1444.3327
 Red. masses --      1.2450                 1.2709                 1.2896
 Frc consts  --      1.4807                 1.5136                 1.5850
 IR Inten    --      9.6346                 5.7957                21.8327

                     64                     65                     66
                      A                      A                      A
 Frequencies --   1447.9305              1466.3711              1504.9198
 Red. masses --      1.2663                 1.6432                 2.2947
 Frc consts  --      1.5642                 2.0817                 3.0620
 IR Inten    --     17.3266                24.0262                25.9761

                     67                     68                     69
                      A                      A                      A
 Frequencies --   1512.2942              1516.5878              1522.1801
 Red. masses --      1.0533                 1.0550                 1.0551
 Frc consts  --      1.4193                 1.4297                 1.4403
 IR Inten    --      1.4470                 5.3103                 1.3306

                     70                     71                     72
                      A                      A                      A
 Frequencies --   1529.3358              1530.3690              1542.4283
 Red. masses --      1.0594                 1.0526                 1.1159
 Frc consts  --      1.4599                 1.4525                 1.5642
 IR Inten    --     10.3926                 0.8837                16.3280

                     73                     74                     75
                      A                      A                      A
 Frequencies --   1547.5763              1553.5566              1641.7527
 Red. masses --      1.1928                 2.2610                 6.3369
 Frc consts  --      1.6831                 3.2152                10.0633
 IR Inten    --     21.5104               108.3399                 1.6529

                     76                     77                     78
                      A                      A                      A
 Frequencies --   1651.5375              1661.9572              1771.0773
 Red. masses --      1.3675                 3.4968                 5.5945
 Frc consts  --      2.1977                 5.6906                10.3392
 IR Inten    --    129.3687                34.3885               269.9170

                     79                     80                     81
                      A                      A                      A
 Frequencies --   3044.9042              3052.8721              3062.9595
 Red. masses --      1.0366                 1.0677                 1.0365
 Frc consts  --      5.6627                 5.8631                 5.7291
 IR Inten    --     23.4804                43.8454                 7.6718

                     82                     83                     84
                      A                      A                      A
 Frequencies --   3065.2834              3113.3667              3120.1136
 Red. masses --      1.0432                 1.1000                 1.0989
 Frc consts  --      5.7751                 6.2822                 6.3030
 IR Inten    --     25.9072                23.5389                 6.7751

                     85                     86                     87
                      A                      A                      A
 Frequencies --   3132.3606              3133.2783              3136.3925
 Red. masses --      1.0990                 1.1004                 1.0956
 Frc consts  --      6.3529                 6.3652                 6.3499
 IR Inten    --     35.6641                23.9724                34.7142

                     88                     89                     90
                      A                      A                      A
 Frequencies --   3148.2377              3173.2471              3192.5843
 Red. masses --      1.1038                 1.1029                 1.0865
 Frc consts  --      6.4456                 6.5434                 6.5246
 IR Inten    --     28.1176                16.9548                 3.0212

                     91                     92                     93
                      A                      A                      A
 Frequencies --   3206.2107              3219.6402              3231.3147
 Red. masses --      1.0901                 1.0955                 1.0923
 Frc consts  --      6.6026                 6.6909                 6.7197
 IR Inten    --     15.5978                17.9347                 9.8012

                     94                     95                     96
                      A                      A                      A
 Frequencies --   3471.2116              3548.6908              3565.9859
 Red. masses --      1.0488                 1.0740                 1.0929
 Frc consts  --      7.4457                 7.9684                 8.1881
 IR Inten    --     10.8266                24.4864                 5.3938

 - Thermochemistry -
 -------------------
 Temperature   298.150 Kelvin.  Pressure   1.00000 Atm.
 Atom     1 has atomic number  6 and mass  12.00000

 Molecular mass:   222.13683 amu.
 Principal axes and moments of inertia in atomic units:
                           1         2         3
     Eigenvalues --  2576.461574198.989315297.25561
           X            0.99876   0.04911   0.00803
           Y           -0.04902   0.99873  -0.01191
           Z           -0.00861   0.01150   0.99990
 This molecule is an asymmetric top.
 Rotational symmetry number  1.
 Warning -- assumption of classical behavior for rotation
           may cause significant error
 Rotational temperatures (Kelvin)      0.03362     0.02063     0.01635
 Rotational constants (GHZ):           0.70047     0.42980     0.34069
 Zero-point vibrational energy     766017.0 (Joules/Mol)
                                  183.08246 (Kcal/Mol)
 Warning -- explicit consideration of  27 degrees of freedom as
           vibrations may cause significant error
 Vibrational temperatures:     50.95    68.65    86.20    92.94   113.62
          (Kelvin)            164.45   264.15   301.99   316.58   352.70
                              377.70   388.97   400.64   426.36   452.71
                              487.83   528.10   576.91   603.84   631.66
                              638.20   688.23   756.89   779.60   824.46
                              834.03   867.16   951.46   994.22  1091.09
                             1102.83  1106.70  1140.01  1196.12  1232.48
                             1249.09  1313.22  1331.14  1343.18  1360.30
                             1370.80  1404.62  1435.41  1497.31  1536.27
                             1555.77  1620.38  1636.44  1652.61  1715.16
                             1723.11  1732.63  1786.26  1813.87  1861.33
                             1888.18  1917.95  1920.77  1955.92  2013.71
                             2044.21  2045.62  2078.07  2083.25  2109.78
                             2165.24  2175.85  2182.03  2190.08  2200.37
                             2201.86  2219.21  2226.62  2235.22  2362.12
                             2376.19  2391.19  2548.19  4380.94  4392.40
                             4406.92  4410.26  4479.44  4489.15  4506.77
                             4508.09  4512.57  4529.61  4565.59  4593.42
                             4613.02  4632.34  4649.14  4994.30  5105.77
                             5130.66

 Zero-point correction=                           0.291760 (Hartree/Particle)
 Thermal correction to Energy=                    0.308234
 Thermal correction to Enthalpy=                  0.309178
 Thermal correction to Gibbs Free Energy=         0.247720
 Sum of electronic and zero-point Energies=           -727.836789
 Sum of electronic and thermal Energies=              -727.820315
 Sum of electronic and thermal Enthalpies=            -727.819371
 Sum of electronic and thermal Free Energies=         -727.880829

                     E (Thermal)             CV                S
                      KCal/Mol        Cal/Mol-Kelvin    Cal/Mol-Kelvin
 Total                  193.420             63.167            129.350
 Electronic               0.000              0.000              0.000
 Translational            0.889              2.981             42.097
 Rotational               0.889              2.981             32.416
 Vibrational            191.642             57.206             54.837
 Vibration     1          0.594              1.982              5.501
 Vibration     2          0.595              1.978              4.910
 Vibration     3          0.597              1.973              4.460
 Vibration     4          0.597              1.971              4.312
 Vibration     5          0.600              1.963              3.916
 Vibration     6          0.607              1.938              3.195
 Vibration     7          0.631              1.862              2.292
 Vibration     8          0.642              1.826              2.045
 Vibration     9          0.647              1.811              1.959
 Vibration    10          0.660              1.771              1.765
 Vibration    11          0.670              1.741              1.645
 Vibration    12          0.674              1.728              1.594
 Vibration    13          0.679              1.713              1.543
 Vibration    14          0.690              1.681              1.438
 Vibration    15          0.702              1.646              1.338
 Vibration    16          0.719              1.597              1.217
 Vibration    17          0.740              1.540              1.092
 Vibration    18          0.767              1.468              0.959
 Vibration    19          0.782              1.427              0.893
 Vibration    20          0.799              1.385              0.830
 Vibration    21          0.803              1.375              0.815
 Vibration    22          0.835              1.298              0.715
 Vibration    23          0.881              1.192              0.596
 Vibration    24          0.897              1.158              0.561
 Vibration    25          0.929              1.090              0.498
 Vibration    26          0.936              1.075              0.486
 Vibration    27          0.961              1.026              0.445

                           ! Non-Optimized Parameters !
 Normal termination of Gaussian 16 at Thu Dec 10 21:42:41 2020.

 ----------------------------------------------------------------------
 # B3LYP/6-311++G(d,p) empiricaldispersion=gd3bj scf=xqc pop=npa geom=c
 heck
 ----------------------------------------------------------------------

 --------------------------------------
 CID_28263821_JID_6116_Energie_neutraal
 --------------------------------------
 Structure from the checkpoint file:  "JID_6116.chk"
 Charge =  0 Multiplicity = 1

 SCF Done:  E(RB3LYP) =  -728.342774221     A.U. after   16 cycles
 Normal termination of Gaussian 16 at Thu Dec 10 21:48:40 2020.

 ----------------------------------------------------------------------
 # B3LYP/6-311++G(d,p) empiricaldispersion=gd3bj scf=xqc pop=npa geom=c
 heck
 ----------------------------------------------------------------------

 ------------------------------------
 CID_28263821_JID_6116_Energie_kation
 ------------------------------------
 Structure from the checkpoint file:  "JID_6116.chk"
 Charge =  1 Multiplicity = 2

 SCF Done:  E(UB3LYP) =  -728.048522157     A.U. after   26 cycles
 Normal termination of Gaussian 16 at Thu Dec 10 22:00:37 2020.
 Gaussian 16:  ES64L-G16RevA.03 25-Dec-2016

 ----------------------------------------------------------------------
 # B3LYP/6-311++G(d,p) empiricaldispersion=gd3bj scf=xqc pop=npa geom=c
 heck
 ----------------------------------------------------------------------

 -----------------------------------
 CID_28263821_JID_6116_Energie_anion
 -----------------------------------
 Structure from the checkpoint file:  "JID_6116.chk"
 Charge = -1 Multiplicity = 2

                         Standard orientation:
 ---------------------------------------------------------------------
 Center     Atomic      Atomic             Coordinates (Angstroms)
 Number     Number       Type             X           Y           Z
 ---------------------------------------------------------------------
      1          6           0       -2.196621   -2.674909    1.001506
      2          6           0       -2.317179   -2.234223   -0.451433
      3          8           0       -1.334508   -1.255015   -0.805004
      4          6           0       -1.507573    0.038912   -0.426588
      5          6           0       -2.635330    0.550164    0.223398
      6          6           0       -2.693310    1.906126    0.554460
      7          6           0       -1.644769    2.765863    0.236976
      8          6           0       -0.522424    2.255344   -0.417935
      9          6           0       -0.433730    0.902331   -0.731097
     10          7           0        0.712534    0.385474   -1.400593
     11          6           0        1.823209   -0.251622   -0.888780
     12          8           0        2.568993   -0.842698   -1.661690
     13          6           0        2.208501   -0.104061    0.605409
     14          6           0        2.828943    1.304014    0.769895
     15          6           0        1.057655   -0.299127    1.607879
     16          7           0        3.177623   -1.179079    0.861397
     17          1           0       -1.200835   -3.087471    1.188875
     18          1           0       -2.939930   -3.449690    1.220636
     19          1           0       -2.356184   -1.840624    1.690814
     20          1           0       -2.112633   -3.070665   -1.124172
     21          1           0       -3.321854   -1.859381   -0.683693
     22          1           0       -3.465341   -0.095916    0.482085
     23          1           0       -3.574168    2.285889    1.064264
     24          1           0       -1.699272    3.820148    0.488385
     25          1           0        0.306528    2.899465   -0.693213
     26          1           0        0.577389    0.116298   -2.370279
     27          1           0        2.099973    2.100532    0.591482
     28          1           0        3.204869    1.417728    1.794314
     29          1           0        3.666902    1.435567    0.076971
     30          1           0        1.496942   -0.418407    2.604858
     31          1           0        0.367636    0.544984    1.642282
     32          1           0        0.503007   -1.212062    1.379116
     33          1           0        3.747156   -1.301028    0.026012
     34          1           0        3.788602   -0.901303    1.627049
 ---------------------------------------------------------------------

 SCF Done:  E(UB3LYP) =  -728.331424294     A.U. after   33 cycles
 SCF Done:  E(UB3LYP) =  -728.331424294     a.u. after    2 cycles

 The electronic state is 2-A.
 Alpha  occ. eigenvalues --  -19.06587 -19.00533 -14.25175 -14.19891 -10.18869
 Alpha  occ. eigenvalues --  -10.14995 -10.13650 -10.13201 -10.12246 -10.08994
 Alpha  occ. eigenvalues --  -10.08716 -10.08436 -10.08031 -10.07997 -10.07255
 Alpha  occ. eigenvalues --  -10.06595  -0.98373  -0.95839  -0.84297  -0.80419
 Alpha  occ. eigenvalues --   -0.76063  -0.68770  -0.67082  -0.66023  -0.64177
 Alpha  occ. eigenvalues --   -0.60429  -0.56302  -0.55410  -0.52972  -0.50212
 Alpha  occ. eigenvalues --   -0.47229  -0.45166  -0.42840  -0.41399  -0.40422
 Alpha  occ. eigenvalues --   -0.37704  -0.37202  -0.36456  -0.36362  -0.35572
 Alpha  occ. eigenvalues --   -0.34534  -0.33995  -0.33320  -0.31398  -0.31199
 Alpha  occ. eigenvalues --   -0.29786  -0.29546  -0.29315  -0.28571  -0.27383
 Alpha  occ. eigenvalues --   -0.27067  -0.26752  -0.25727  -0.23957  -0.23443
 Alpha  occ. eigenvalues --   -0.18300  -0.18069  -0.16522  -0.15362  -0.13806
 Alpha  occ. eigenvalues --    0.04116
 Alpha virt. eigenvalues --    0.05929   0.06405   0.06673   0.07549   0.08144
 Alpha virt. eigenvalues --    0.08512   0.08678   0.08767   0.09378   0.09703
 Alpha virt. eigenvalues --    0.10260   0.10950   0.11342   0.11996   0.12444

  Beta  occ. eigenvalues --  -19.06586 -19.00531 -14.25174 -14.19884 -10.18867
  Beta  occ. eigenvalues --  -10.14987 -10.13623 -10.13200 -10.12234 -10.08987
  Beta  occ. eigenvalues --  -10.08688 -10.08416 -10.08006 -10.07980 -10.07220
  Beta  occ. eigenvalues --  -10.06584  -0.98360  -0.95836  -0.84283  -0.80409
  Beta  occ. eigenvalues --   -0.76027  -0.68728  -0.67063  -0.65984  -0.64130
  Beta  occ. eigenvalues --   -0.60403  -0.56238  -0.55386  -0.52934  -0.50153
  Beta  occ. eigenvalues --   -0.47200  -0.45131  -0.42801  -0.41380  -0.40388
  Beta  occ. eigenvalues --   -0.37653  -0.37173  -0.36417  -0.36332  -0.35545
  Beta  occ. eigenvalues --   -0.34515  -0.33962  -0.33303  -0.31378  -0.31160
  Beta  occ. eigenvalues --   -0.29746  -0.29510  -0.29292  -0.28536  -0.27351
  Beta  occ. eigenvalues --   -0.27041  -0.26720  -0.25711  -0.23924  -0.23400
  Beta  occ. eigenvalues --   -0.18281  -0.18062  -0.16492  -0.15353  -0.13758
  Beta virt. eigenvalues --    0.06123   0.06606   0.07030   0.07375   0.08034
  Beta virt. eigenvalues --    0.08346   0.08800   0.08931   0.09243   0.09566
  Beta virt. eigenvalues --    0.10076   0.10572   0.11365   0.11698   0.12249

 Mulliken charges and spin densities:
               1          2
     1  C    0.557709  -0.992595
     2  C    0.286561  -0.465444
     3  O   -0.065363  -0.012346
     4  C   -1.033371   1.084051
     5  C    0.365657  -0.476099
     6  C    1.629018  -1.847618
     7  C    1.158919  -1.551962
     8  C   -0.209507   0.186939
     9  C   -0.690030   0.631527
    10  N   -0.158921   0.016174
    11  C    0.459674  -0.579475
    12  O   -0.320692   0.009380
    13  C   -0.640486   0.477983
    14  C   -0.236746  -0.218532
    15  C   -0.148549  -0.309268
    16  N   -0.210775   0.004388
    17  H    0.045817   0.105387
    18  H   -0.516294   0.666919
    19  H   -0.076821   0.222944
    20  H   -0.187921   0.376186
    21  H   -0.295721   0.444450
    22  H   -0.375818   0.572320
    23  H   -0.858598   1.056802
    24  H   -0.596495   0.778142
    25  H   -0.115285   0.297910
    26  H    0.330708  -0.011372
    27  H   -0.057051   0.168287
    28  H   -0.101638   0.239327
    29  H    0.106333   0.080898
    30  H    0.067795   0.088382
    31  H    0.150688  -0.025174
    32  H    0.366387  -0.107881
    33  H    0.235024   0.012433
    34  H    0.135791   0.076937
 Sum of Mulliken charges =  -1.00000   1.00000

 Dipole moment (field-independent basis, Debye):
    X=              6.7083    Y=             -0.1087    Z=             -1.9880  Tot=              6.9975
 Quadrupole moment (field-independent basis, Debye-Ang):
   XX=           -175.5284   YY=           -161.3955   ZZ=           -129.3755
   XY=              3.1630   XZ=             13.5472   YZ=             -4.4901

 Summary of Natural Population Analysis:

                                       Natural Population
                Natural  -----------------------------------------------
    Atom  No    Charge         Core      Valence    Rydberg      Total
 -----------------------------------------------------------------------
      C    1   -0.30093      0.99966     2.29623    0.00504     3.30093
      C    2   -0.01117      0.99958     1.99967    0.01192     3.01117
      O    3   -0.27554      0.99986     3.26647    0.00922     4.27554
      C    4    0.16470      0.99934     1.82181    0.01415     2.83530
      C    5   -0.14004      0.99951     2.13065    0.00988     3.14004
      C    6   -0.08186      0.99957     2.07152    0.01077     3.08186
      C    7   -0.11343      0.99955     2.10312    0.01075     3.11343
      C    8   -0.09452      0.99951     2.08515    0.00986     3.09452
      C    9    0.03930      0.99942     1.94826    0.01301     2.96070
      N   10   -0.31778      0.99964     2.80749    0.01066     3.81778
      C   11    0.35902      0.99960     1.61750    0.02388     2.64098
      O   12   -0.32855      0.99987     3.32273    0.00595     4.32855
      C   13    0.01595      0.99957     1.97183    0.01265     2.98405
      C   14   -0.29000      0.99962     2.28287    0.00751     3.29000
      C   15   -0.28946      0.99962     2.28145    0.00838     3.28946
      N   16   -0.42296      0.99975     2.91345    0.00976     3.92296
      H   17    0.10101      0.00000     0.39793    0.00106     0.39899
      H   18    0.10597      0.00000     0.39227    0.00175     0.39403
      H   19    0.10318      0.00000     0.39525    0.00157     0.39682
      H   20    0.09236      0.00000     0.40646    0.00118     0.40764
      H   21    0.08717      0.00000     0.41073    0.00210     0.41283
      H   22    0.11072      0.00000     0.38642    0.00286     0.38928
      H   23    0.10630      0.00000     0.39094    0.00276     0.39370
      H   24    0.10534      0.00000     0.39275    0.00191     0.39466
      H   25    0.10542      0.00000     0.39339    0.00119     0.39458
      H   26    0.19661      0.00000     0.30079    0.00260     0.30339
      H   27    0.10449      0.00000     0.39428    0.00123     0.39551
      H   28    0.09790      0.00000     0.40102    0.00108     0.40210
      H   29    0.10129      0.00000     0.39759    0.00113     0.39871
      H   30    0.09953      0.00000     0.39963    0.00083     0.40047
      H   31    0.10534      0.00000     0.39321    0.00145     0.39466
      H   32    0.10738      0.00000     0.39095    0.00167     0.39262
      H   33    0.18774      0.00000     0.31028    0.00198     0.31226
      H   34    0.16952      0.00000     0.32902    0.00147     0.33048
 =======================================================================
   * Total *    0.00000     15.99369    43.80311    0.20320    60.00000

 Normal termination of Gaussian 16 at Thu Dec 10 22:34:14 2020.
