 Gaussian 16, Revision A.03,

 -----------------------------------------------------------
 # opt freq B3LYP/6-31G(d) empiricaldispersion=gd3bj scf=xqc
 -----------------------------------------------------------

 -----------------------------
 CID_62081518_JID_766_neutraal
 -----------------------------
 Symbolic Z-matrix:
 Charge =  0 Multiplicity = 1

 SCF Done:  E(RB3LYP) =  -437.600458688     A.U. after   14 cycles
 SCF Done:  E(RB3LYP) =  -437.605450374     A.U. after   12 cycles
 SCF Done:  E(RB3LYP) =  -437.607205345     A.U. after   11 cycles
 SCF Done:  E(RB3LYP) =  -437.608262488     A.U. after   13 cycles
 SCF Done:  E(RB3LYP) =  -437.608948981     A.U. after   11 cycles
 SCF Done:  E(RB3LYP) =  -437.609424430     A.U. after   11 cycles
 SCF Done:  E(RB3LYP) =  -437.609792128     A.U. after   12 cycles
 SCF Done:  E(RB3LYP) =  -437.610228832     A.U. after   12 cycles
 SCF Done:  E(RB3LYP) =  -437.610861341     A.U. after   12 cycles
 SCF Done:  E(RB3LYP) =  -437.611836199     A.U. after   13 cycles
 SCF Done:  E(RB3LYP) =  -437.612150600     A.U. after   10 cycles
 SCF Done:  E(RB3LYP) =  -437.612161305     A.U. after    9 cycles
 SCF Done:  E(RB3LYP) =  -437.612166887     A.U. after    9 cycles
 SCF Done:  E(RB3LYP) =  -437.612167228     A.U. after    9 cycles
 SCF Done:  E(RB3LYP) =  -437.612167312     A.U. after    7 cycles
 SCF Done:  E(RB3LYP) =  -437.612167337     A.U. after    7 cycles
 Optimization completed.
    -- Stationary point found.

 1\1\GINC-NODE121\FOpt\RB3LYP\6-31G(d)\C7H11N3\VSC10255\08-Dec-2020\0\\
 # opt freq B3LYP/6-31G(d) empiricaldispersion=gd3bj scf=xqc\\CID_62081
 518_JID_766_neutraal\\0,1\C,0.9909150623,0.064325468,0.0178294669\N,0.
 5656661873,-0.3743623459,1.3325034811\C,0.6747621659,-1.6221045451,1.8
 67696026\N,0.1642056299,-1.6901176863,3.0814091854\C,-0.3218684458,-0.
 4276987875,3.3571361972\C,-0.0866875778,0.4106210049,2.2812045266\N,-0
 .317217725,1.7778384689,2.0048408389\C,-0.955857426,-0.1545198687,4.66
 70332317\C,-0.616396252,1.0766877664,5.4851792005\C,-1.979701571,0.944

 Normal termination of Gaussian 16 at Tue Dec  8 12:51:51 2020.

 --------------------------------------------------------------------
 #N Geom=AllCheck Guess=TCheck SCRF=Check GenChk RB3LYP/6-31G(d) Freq
 --------------------------------------------------------------------

 Structure from the checkpoint file:  "JID_766.chk"
 -----------------------------
 CID_62081518_JID_766_neutraal
 -----------------------------
 Charge =  0 Multiplicity = 1

 SCF Done:  E(RB3LYP) =  -437.612167337     A.U. after    1 cycles

  Exact polarizability: 114.431  -1.495  87.626  -0.360  -1.251  58.869
 Approx polarizability: 150.687   0.946 142.594  -0.196  -1.312  87.883

                      1                      2                      3
                      A                      A                      A
 Frequencies --     56.3166                66.7687               117.9308
 Red. masses --      2.5901                 1.0725                 2.5934
 Frc consts  --      0.0048                 0.0028                 0.0213
 IR Inten    --      0.0186                 1.9013                 0.7895

                      4                      5                      6
                      A                      A                      A
 Frequencies --    164.9225               180.6086               221.1401
 Red. masses --      2.8608                 1.3156                 2.5146
 Frc consts  --      0.0458                 0.0253                 0.0725
 IR Inten    --      6.2090                33.1554                 5.2870

                      7                      8                      9
                      A                      A                      A
 Frequencies --    267.4275               301.0949               344.3578
 Red. masses --      4.0543                 2.9858                 3.5401
 Frc consts  --      0.1708                 0.1595                 0.2473
 IR Inten    --      1.7130                 5.7118                 0.1540

                     10                     11                     12
                      A                      A                      A
 Frequencies --    420.7031               488.7705               590.7846
 Red. masses --      3.4894                 3.8393                 3.0453
 Frc consts  --      0.3639                 0.5404                 0.6262
 IR Inten    --      2.2403                 8.6130                 1.9503

                     13                     14                     15
                      A                      A                      A
 Frequencies --    640.8478               717.2308               722.1346
 Red. masses --      3.3193                 3.6021                 5.9825
 Frc consts  --      0.8032                 1.0917                 1.8381
 IR Inten    --      6.4361                40.9841                 3.9196

                     16                     17                     18
                      A                      A                      A
 Frequencies --    758.6721               782.4127               792.6687
 Red. masses --      2.2524                 1.4112                 1.5307
 Frc consts  --      0.7639                 0.5090                 0.5667
 IR Inten    --     38.9396                 6.8029                84.4413

                     19                     20                     21
                      A                      A                      A
 Frequencies --    805.2205               824.5509               915.3712
 Red. masses --      1.3332                 1.5592                 3.0792
 Frc consts  --      0.5093                 0.6246                 1.5201
 IR Inten    --      4.0876                10.5180                 4.3666

                     22                     23                     24
                      A                      A                      A
 Frequencies --    928.8797              1018.2860              1062.9789
 Red. masses --      2.9558                 2.4321                 1.4064
 Frc consts  --      1.5026                 1.4858                 0.9363
 IR Inten    --      8.7856                41.7358                 8.3199

                     25                     26                     27
                      A                      A                      A
 Frequencies --   1074.1944              1083.1660              1124.1758
 Red. masses --      1.3623                 1.6769                 1.8029
 Frc consts  --      0.9262                 1.1592                 1.3425
 IR Inten    --      2.6618                 6.1347                 2.5860

                     28                     29                     30
                      A                      A                      A
 Frequencies --   1145.2687              1161.4810              1211.6739
 Red. masses --      1.1026                 1.3090                 2.0285
 Frc consts  --      0.8521                 1.0405                 1.7547
 IR Inten    --      0.6523                10.2986                10.6585

                     31                     32                     33
                      A                      A                      A
 Frequencies --   1212.3938              1223.9012              1227.6833
 Red. masses --      1.5104                 1.3727                 2.2243
 Frc consts  --      1.3081                 1.2115                 1.9752
 IR Inten    --      2.2594                 0.9421                 1.6326

                     34                     35                     36
                      A                      A                      A
 Frequencies --   1282.7118              1303.2843              1395.8712
 Red. masses --      2.4604                 2.4407                 2.7114
 Frc consts  --      2.3851                 2.4425                 3.1127
 IR Inten    --     45.8600                 8.5662                 3.0978

                     37                     38                     39
                      A                      A                      A
 Frequencies --   1429.1714              1463.1320              1473.1973
 Red. masses --      6.8048                 1.4983                 2.3601
 Frc consts  --      8.1890                 1.8898                 3.0179
 IR Inten    --     22.0424                14.9091                 5.9710

                     40                     41                     42
                      A                      A                      A
 Frequencies --   1493.5761              1512.9519              1532.3427
 Red. masses --      1.0903                 1.1114                 1.3734
 Frc consts  --      1.4330                 1.4990                 1.9000
 IR Inten    --      1.8129                27.4868                 8.4046

                     43                     44                     45
                      A                      A                      A
 Frequencies --   1546.2388              1551.4890              1622.8921
 Red. masses --      1.1007                 2.9460                 5.9710
 Frc consts  --      1.5505                 4.1781                 9.2656
 IR Inten    --      8.7974                44.9247                16.4623

                     46                     47                     48
                      A                      A                      A
 Frequencies --   1693.6997              3056.1962              3127.1002
 Red. masses --      1.1720                 1.0412                 1.0962
 Frc consts  --      1.9808                 5.7299                 6.3155
 IR Inten    --     21.6552                59.1568                20.2787

                     49                     50                     51
                      A                      A                      A
 Frequencies --   3141.8929              3153.2291              3171.5993
 Red. masses --      1.0533                 1.0559                 1.1036
 Frc consts  --      6.1261                 6.1857                 6.5408
 IR Inten    --     22.4295                18.0012                 3.1201

                     52                     53                     54
                      A                      A                      A
 Frequencies --   3186.6299              3217.3825              3235.2954
 Red. masses --      1.0899                 1.1185                 1.1152
 Frc consts  --      6.5206                 6.8218                 6.8776
 IR Inten    --      3.9190                 4.6962                28.5471

                     55                     56                     57
                      A                      A                      A
 Frequencies --   3253.1552              3486.0466              3578.6840
 Red. masses --      1.0962                 1.0524                 1.0903
 Frc consts  --      6.8349                 7.5355                 8.2270
 IR Inten    --      5.2858                 1.2317                 6.0632

 - Thermochemistry -
 -------------------
 Temperature   298.150 Kelvin.  Pressure   1.00000 Atm.
 Atom     1 has atomic number  6 and mass  12.00000

 Molecular mass:   137.09530 amu.
 Principal axes and moments of inertia in atomic units:
                           1         2         3
     Eigenvalues --   662.194471826.188502325.18133
           X            0.99999   0.00516  -0.00031
           Y           -0.00516   0.99997  -0.00497
           Z            0.00029   0.00497   0.99999
 This molecule is an asymmetric top.
 Rotational symmetry number  1.
 Warning -- assumption of classical behavior for rotation
           may cause significant error
 Rotational temperatures (Kelvin)      0.13080     0.04743     0.03725
 Rotational constants (GHZ):           2.72539     0.98826     0.77617
 Zero-point vibrational energy     469903.8 (Joules/Mol)
                                  112.30971 (Kcal/Mol)
 Warning -- explicit consideration of  12 degrees of freedom as
           vibrations may cause significant error
 Vibrational temperatures:     81.03    96.07   169.68   237.29   259.86
          (Kelvin)            318.17   384.77   433.21   495.45   605.30
                              703.23   850.01   922.04  1031.94  1038.99
                             1091.56  1125.72  1140.47  1158.53  1186.34
                             1317.02  1336.45  1465.09  1529.39  1545.53
                             1558.43  1617.44  1647.79  1671.11  1743.33
                             1744.36  1760.92  1766.36  1845.54  1875.14
                             2008.35  2056.26  2105.12  2119.60  2148.92
                             2176.80  2204.70  2224.69  2232.25  2334.98
                             2436.86  4397.18  4499.20  4520.48  4536.79
                             4563.22  4584.85  4629.10  4654.87  4680.56
                             5015.64  5148.93

 Zero-point correction=                           0.178977 (Hartree/Particle)
 Thermal correction to Energy=                    0.188977
 Thermal correction to Enthalpy=                  0.189921
 Thermal correction to Gibbs Free Energy=         0.143296
 Sum of electronic and zero-point Energies=           -437.433190
 Sum of electronic and thermal Energies=              -437.423191
 Sum of electronic and thermal Enthalpies=            -437.422247
 Sum of electronic and thermal Free Energies=         -437.468871

                     E (Thermal)             CV                S
                      KCal/Mol        Cal/Mol-Kelvin    Cal/Mol-Kelvin
 Total                  118.585             36.810             98.129
 Electronic               0.000              0.000              0.000
 Translational            0.889              2.981             40.658
 Rotational               0.889              2.981             29.421
 Vibrational            116.807             30.849             28.050
 Vibration     1          0.596              1.975              4.582
 Vibration     2          0.598              1.970              4.246
 Vibration     3          0.608              1.934              3.134
 Vibration     4          0.623              1.886              2.493
 Vibration     5          0.630              1.866              2.322
 Vibration     6          0.648              1.809              1.950
 Vibration     7          0.673              1.733              1.613
 Vibration     8          0.693              1.672              1.411
 Vibration     9          0.723              1.587              1.192
 Vibration    10          0.783              1.425              0.890
 Vibration    11          0.845              1.275              0.687
 Vibration    12          0.948              1.051              0.466

 Optimization completed.
    -- Stationary point found.

 1\1\GINC-NODE121\Freq\RB3LYP\6-31G(d)\C7H11N3\VSC10255\08-Dec-2020\0\\
 #N Geom=AllCheck Guess=TCheck SCRF=Check GenChk RB3LYP/6-31G(d) Freq\\
 CID_62081518_JID_766_neutraal\\0,1\C,0.9909150623,0.064325468,0.017829
 4669\N,0.5656661873,-0.3743623459,1.3325034811\C,0.6747621659,-1.62210
 45451,1.867696026\N,0.1642056299,-1.6901176863,3.0814091854\C,-0.32186
 84458,-0.4276987875,3.3571361972\C,-0.0866875778,0.4106210049,2.281204
 5266\N,-0.317217725,1.7778384689,2.0048408389\C,-0.955857426,-0.154519
 8687,4.6670332317\C,-0.616396252,1.0766877664,5.4851792005\C,-1.979701

 Normal termination of Gaussian 16 at Tue Dec  8 13:08:21 2020.

 ----------------------------------------------------------------------
 # B3LYP/6-311++G(d,p) empiricaldispersion=gd3bj scf=xqc pop=npa geom=c
 heck
 ----------------------------------------------------------------------

 -------------------------------------
 CID_62081518_JID_766_Energie_neutraal
 -------------------------------------
 Structure from the checkpoint file:  "JID_766.chk"
 Charge =  0 Multiplicity = 1

 SCF Done:  E(RB3LYP) =  -437.736709602     A.U. after   15 cycles
 Normal termination of Gaussian 16 at Tue Dec  8 13:12:12 2020.

 ----------------------------------------------------------------------
 # B3LYP/6-311++G(d,p) empiricaldispersion=gd3bj scf=xqc pop=npa geom=c
 heck
 ----------------------------------------------------------------------

 -----------------------------------
 CID_62081518_JID_766_Energie_kation
 -----------------------------------
 Structure from the checkpoint file:  "JID_766.chk"
 Charge =  1 Multiplicity = 2

 SCF Done:  E(UB3LYP) =  -437.456489255     A.U. after   20 cycles
 Normal termination of Gaussian 16 at Tue Dec  8 13:23:53 2020.
 Gaussian 16:  ES64L-G16RevA.03 25-Dec-2016

 ----------------------------------
 CID_62081518_JID_766_Energie_anion
 ----------------------------------
 Structure from the checkpoint file:  "JID_766.chk"
 Charge = -1 Multiplicity = 2

                         Standard orientation:
 ---------------------------------------------------------------------
 Center     Atomic      Atomic             Coordinates (Angstroms)
 Number     Number       Type             X           Y           Z
 ---------------------------------------------------------------------
      1          6           0        2.994760    0.704924    0.052297
      2          7           0        1.763096   -0.059246    0.025835
      3          6           0        1.626306   -1.414121   -0.002351
      4          7           0        0.362313   -1.786526   -0.047394
      5          6           0       -0.374177   -0.618956   -0.066307
      6          6           0        0.476018    0.472439   -0.024547
      7          7           0        0.306995    1.875483    0.016734
      8          6           0       -1.853014   -0.683715   -0.101619
      9          6           0       -2.718600    0.168115    0.807015
     10          6           0       -2.702074    0.431593   -0.674797
     11          1           0        3.372855    0.891594   -0.959781
     12          1           0        3.750990    0.155576    0.618526
     13          1           0        2.795461    1.663824    0.533456
     14          1           0        2.481068   -2.077931    0.008913
     15          1           0       -0.436478    2.151100    0.650362
     16          1           0        0.106356    2.275787   -0.897303
     17          1           0       -2.205201   -1.695688   -0.277553
     18          1           0       -3.603270   -0.285545    1.244949
     19          1           0       -2.215139    0.872006    1.465172
     20          1           0       -2.193243    1.321890   -1.031495
     21          1           0       -3.575539    0.157735   -1.259611
 ---------------------------------------------------------------------

 SCF Done:  E(UB3LYP) =  -437.723531645     A.U. after   30 cycles

 The electronic state is 2-A.
 Alpha  occ. eigenvalues --  -14.25464 -14.19891 -14.17997 -10.11003 -10.10628
 Alpha  occ. eigenvalues --  -10.09516 -10.07669 -10.07541 -10.06997 -10.06793
 Alpha  occ. eigenvalues --   -0.90749  -0.79008  -0.77365  -0.74783  -0.62094
 Alpha  occ. eigenvalues --   -0.60539  -0.52346  -0.49971  -0.47012  -0.45230
 Alpha  occ. eigenvalues --   -0.41079  -0.39046  -0.38751  -0.35632  -0.34998
 Alpha  occ. eigenvalues --   -0.34440  -0.31860  -0.29458  -0.28447  -0.26552
 Alpha  occ. eigenvalues --   -0.26199  -0.21302  -0.19913  -0.18386  -0.15485
 Alpha  occ. eigenvalues --   -0.14590  -0.09857   0.04675
 Alpha virt. eigenvalues --    0.06897   0.07825   0.08737   0.09473   0.09839
 Alpha virt. eigenvalues --    0.10853   0.11262   0.12527   0.13030   0.13711
 Alpha virt. eigenvalues --    0.13760   0.15202   0.15529   0.16120   0.16566

  Beta  occ. eigenvalues --  -14.25462 -14.19812 -14.17995 -10.10997 -10.10623
  Beta  occ. eigenvalues --  -10.09452 -10.07667 -10.07542 -10.06976 -10.06765
  Beta  occ. eigenvalues --   -0.90731  -0.78930  -0.77327  -0.74753  -0.62033
  Beta  occ. eigenvalues --   -0.60481  -0.52317  -0.49898  -0.46973  -0.45166
  Beta  occ. eigenvalues --   -0.41006  -0.38971  -0.38713  -0.35573  -0.34947
  Beta  occ. eigenvalues --   -0.34381  -0.31833  -0.29403  -0.28415  -0.26521
  Beta  occ. eigenvalues --   -0.26179  -0.21285  -0.19882  -0.18345  -0.15462
  Beta  occ. eigenvalues --   -0.14552  -0.09837
  Beta virt. eigenvalues --    0.07241   0.07836   0.08781   0.09196   0.10224
  Beta virt. eigenvalues --    0.10473   0.11003   0.11960   0.13014   0.13584
  Beta virt. eigenvalues --    0.14098   0.14141   0.15438   0.15786   0.16155

 Mulliken charges and spin densities:
               1          2
     1  C    1.639431  -2.012468
     2  N   -0.134266   0.113533
     3  C    0.533486  -0.372912
     4  N   -0.241511   0.063909
     5  C    2.619761  -2.525107
     6  C   -1.429579   1.016742
     7  N   -0.536792   0.142702
     8  C   -1.571289   1.491302
     9  C    0.369976  -0.776007
    10  C    0.462019  -0.859321
    11  H   -0.574182   0.764632
    12  H   -0.548689   0.684091
    13  H   -0.420684   0.627996
    14  H   -0.060865   0.231321
    15  H   -0.243688   0.507873
    16  H   -0.400137   0.687062
    17  H    0.091219   0.135954
    18  H    0.043149   0.081545
    19  H   -0.244004   0.369013
    20  H   -0.217194   0.351235
    21  H   -0.136161   0.276906
 Sum of Mulliken charges =  -1.00000   1.00000

 Dipole moment (field-independent basis, Debye):
    X=             -3.5580    Y=             -4.6478    Z=              0.8437  Tot=              5.9138
 Quadrupole moment (field-independent basis, Debye-Ang):
   XX=           -115.1362   YY=           -105.7109   ZZ=            -87.6801
   XY=             -2.6739   XZ=              0.1148   YZ=              2.3994

 Summary of Natural Population Analysis:

                                       Natural Population
                Natural  -----------------------------------------------
    Atom  No    Charge         Core      Valence    Rydberg      Total
 -----------------------------------------------------------------------
      C    1   -0.17676      0.99963     2.16879    0.00834     3.17676
      N    2   -0.20456      0.99963     2.69410    0.01083     3.70456
      C    3    0.10156      0.99962     1.88135    0.01746     2.89844
      N    4   -0.25876      0.99971     2.74987    0.00918     3.75876
      C    5    0.03573      0.99945     1.94820    0.01662     2.96427
      C    6    0.14491      0.99943     1.84051    0.01514     2.85509
      N    7   -0.42257      0.99974     2.91287    0.00996     3.92257
      C    8   -0.11974      0.99957     2.10930    0.01086     3.11974
      C    9   -0.19435      0.99963     2.18709    0.00763     3.19435
      C   10   -0.19553      0.99963     2.18666    0.00925     3.19553
      H   11    0.09897      0.00000     0.39836    0.00266     0.40103
      H   12    0.09898      0.00000     0.39873    0.00229     0.40102
      H   13    0.11439      0.00000     0.38323    0.00238     0.38561
      H   14    0.08902      0.00000     0.40978    0.00120     0.41098
      H   15    0.18764      0.00000     0.30789    0.00447     0.31236
      H   16    0.18907      0.00000     0.30379    0.00714     0.31093
      H   17    0.10790      0.00000     0.39024    0.00185     0.39210
      H   18    0.09793      0.00000     0.40121    0.00086     0.40207
      H   19    0.10126      0.00000     0.39747    0.00126     0.39874
      H   20    0.10623      0.00000     0.39194    0.00183     0.39377
      H   21    0.09867      0.00000     0.40051    0.00082     0.40133
 =======================================================================
   * Total *   -0.00000      9.99606    26.86191    0.14204    37.00000

 Normal termination of Gaussian 16 at Tue Dec  8 13:30:41 2020.
