 Gaussian 16, Revision A.03,

 -----------------------------------------------------------
 # opt freq B3LYP/6-31G(d) empiricaldispersion=gd3bj scf=xqc
 -----------------------------------------------------------

 -------------------------------
 CID_116593747_JID_6565_neutraal
 -------------------------------
 Symbolic Z-matrix:
 Charge =  0 Multiplicity = 1

 SCF Done:  E(RB3LYP) =  -712.061676749     A.U. after   14 cycles
 SCF Done:  E(RB3LYP) =  -712.063039459     A.U. after   13 cycles
 SCF Done:  E(RB3LYP) =  -712.064522140     A.U. after   15 cycles
 SCF Done:  E(RB3LYP) =  -712.063107045     A.U. after   14 cycles
 SCF Done:  E(RB3LYP) =  -712.067794563     A.U. after   13 cycles
 SCF Done:  E(RB3LYP) =  -712.067432487     A.U. after   13 cycles
 SCF Done:  E(RB3LYP) =  -712.068438700     A.U. after   13 cycles
 SCF Done:  E(RB3LYP) =  -712.069514020     A.U. after   12 cycles
 SCF Done:  E(RB3LYP) =  -712.069863351     A.U. after   12 cycles
 SCF Done:  E(RB3LYP) =  -712.069775097     A.U. after   13 cycles
 SCF Done:  E(RB3LYP) =  -712.070115060     A.U. after   11 cycles
 SCF Done:  E(RB3LYP) =  -712.070118714     A.U. after   10 cycles
 SCF Done:  E(RB3LYP) =  -712.070120286     A.U. after   10 cycles
 SCF Done:  E(RB3LYP) =  -712.070120549     A.U. after    8 cycles
 SCF Done:  E(RB3LYP) =  -712.070120584     A.U. after    7 cycles
 Optimization completed.
    -- Stationary point found.
 Normal termination of Gaussian 16 at Thu Dec 10 23:56:28 2020.

 --------------------------------------------------------------------
 #N Geom=AllCheck Guess=TCheck SCRF=Check GenChk RB3LYP/6-31G(d) Freq
 --------------------------------------------------------------------

 Structure from the checkpoint file:  "JID_6565.chk"
 -------------------------------
 CID_116593747_JID_6565_neutraal
 -------------------------------
 Charge =  0 Multiplicity = 1

 SCF Done:  E(RB3LYP) =  -712.070120584     A.U. after    1 cycles

  Exact polarizability: 178.265  10.649 154.772 -18.610   9.243 108.146
 Approx polarizability: 235.911  15.001 257.296 -33.620  23.716 162.927

                      1                      2                      3
                      A                      A                      A
 Frequencies --     19.1556                30.6117                34.4739
 Red. masses --      3.9399                 1.3530                 2.0823
 Frc consts  --      0.0009                 0.0007                 0.0015
 IR Inten    --      0.3071                 0.8322                 0.7272

                      4                      5                      6
                      A                      A                      A
 Frequencies --     52.5969                78.4605               117.4414
 Red. masses --      3.5712                 3.7609                 2.5008
 Frc consts  --      0.0058                 0.0136                 0.0203
 IR Inten    --      0.1647                 0.0641                20.9551

                      7                      8                      9
                      A                      A                      A
 Frequencies --    131.2491               159.6186               174.7750
 Red. masses --      3.9819                 4.4357                 3.5259
 Frc consts  --      0.0404                 0.0666                 0.0635
 IR Inten    --      3.2168                 0.7390                 1.2054

                     10                     11                     12
                      A                      A                      A
 Frequencies --    204.9553               224.8544               241.1744
 Red. masses --      2.1223                 2.8249                 2.3208
 Frc consts  --      0.0525                 0.0842                 0.0795
 IR Inten    --      2.2219                 0.4858                 1.5210

                     13                     14                     15
                      A                      A                      A
 Frequencies --    250.7027               263.9354               305.4710
 Red. masses --      3.0555                 1.6325                 1.7809
 Frc consts  --      0.1131                 0.0670                 0.0979
 IR Inten    --      4.6396                23.6208                30.7489

                     16                     17                     18
                      A                      A                      A
 Frequencies --    319.9856               351.3049               375.5429
 Red. masses --      2.4024                 1.9508                 2.8322
 Frc consts  --      0.1449                 0.1419                 0.2353
 IR Inten    --      5.2045                23.7067                 4.1984

                     19                     20                     21
                      A                      A                      A
 Frequencies --    400.2625               433.8366               469.6182
 Red. masses --      5.5885                 3.1896                 3.1720
 Frc consts  --      0.5275                 0.3537                 0.4122
 IR Inten    --      0.4841                 0.2151                 2.1185

                     22                     23                     24
                      A                      A                      A
 Frequencies --    513.8694               536.1586               554.5508
 Red. masses --      3.3593                 4.3719                 4.7852
 Frc consts  --      0.5226                 0.7405                 0.8670
 IR Inten    --      2.7729                 0.4417                11.4998

                     25                     26                     27
                      A                      A                      A
 Frequencies --    565.4317               645.7458               697.3807
 Red. masses --      2.8842                 4.2446                 4.6266
 Frc consts  --      0.5433                 1.0428                 1.3257
 IR Inten    --     10.2280                14.1060                 0.3248

                     28                     29                     30
                      A                      A                      A
 Frequencies --    707.8855               764.0962               795.2685
 Red. masses --      3.7108                 2.2703                 1.6511
 Frc consts  --      1.0956                 0.7810                 0.6152
 IR Inten    --      4.5308                31.1844                13.6542

                     31                     32                     33
                      A                      A                      A
 Frequencies --    814.4774               830.2298               862.8306
 Red. masses --      2.2009                 1.8800                 2.9355
 Frc consts  --      0.8602                 0.7635                 1.2876
 IR Inten    --      6.0041                19.3818                26.2697

                     34                     35                     36
                      A                      A                      A
 Frequencies --    913.9587               934.2303               937.3913
 Red. masses --      2.4530                 1.5561                 1.3440
 Frc consts  --      1.2073                 0.8002                 0.6958
 IR Inten    --     47.5393                39.8347                25.1019

                     37                     38                     39
                      A                      A                      A
 Frequencies --    963.7975               970.7208              1015.1998
 Red. masses --      1.4207                 2.2294                 2.0084
 Frc consts  --      0.7776                 1.2377                 1.2195
 IR Inten    --      4.8301                 6.6571                 1.7641

                     40                     41                     42
                      A                      A                      A
 Frequencies --   1018.1640              1026.9068              1049.3074
 Red. masses --      1.2778                 3.0829                 2.1098
 Frc consts  --      0.7805                 1.9154                 1.3687
 IR Inten    --     10.0014                 1.5255                 4.8571

                     43                     44                     45
                      A                      A                      A
 Frequencies --   1065.2633              1079.2277              1087.9709
 Red. masses --      1.8687                 1.5259                 2.3112
 Frc consts  --      1.2494                 1.0471                 1.6118
 IR Inten    --      5.1587                 5.2981                10.9138

                     46                     47                     48
                      A                      A                      A
 Frequencies --   1114.4998              1126.5551              1151.6442
 Red. masses --      1.9814                 1.5849                 2.4815
 Frc consts  --      1.4500                 1.1851                 1.9391
 IR Inten    --      6.8858                12.1711                 7.1050

                     49                     50                     51
                      A                      A                      A
 Frequencies --   1163.8112              1191.1556              1203.6649
 Red. masses --      4.7838                 1.2793                 1.7422
 Frc consts  --      3.8176                 1.0694                 1.4871
 IR Inten    --    177.3068                 7.6241                28.6937

                     52                     53                     54
                      A                      A                      A
 Frequencies --   1206.3645              1215.8821              1236.7349
 Red. masses --      1.1426                 1.2703                 1.5745
 Frc consts  --      0.9797                 1.1065                 1.4189
 IR Inten    --     24.0387                 9.8537                 7.7726

                     55                     56                     57
                      A                      A                      A
 Frequencies --   1262.9051              1279.9066              1310.9664
 Red. masses --      1.6254                 1.4409                 1.8229
 Frc consts  --      1.5274                 1.3907                 1.8458
 IR Inten    --     46.7693                23.9755                70.0517

                     58                     59                     60
                      A                      A                      A
 Frequencies --   1333.4756              1345.4620              1368.6050
 Red. masses --      1.5065                 1.2101                 4.1994
 Frc consts  --      1.5783                 1.2907                 4.6344
 IR Inten    --      0.6177                16.6804                 4.8413

                     61                     62                     63
                      A                      A                      A
 Frequencies --   1372.5440              1400.0779              1403.4568
 Red. masses --      1.5827                 1.3584                 1.3109
 Frc consts  --      1.7567                 1.5689                 1.5213
 IR Inten    --      0.7131                27.8380                 7.1198

                     64                     65                     66
                      A                      A                      A
 Frequencies --   1424.2070              1443.1936              1448.6737
 Red. masses --      1.4405                 1.2490                 1.3196
 Frc consts  --      1.7215                 1.5327                 1.6317
 IR Inten    --      1.5987                 0.1644                13.4509

                     67                     68                     69
                      A                      A                      A
 Frequencies --   1469.2707              1502.1335              1509.6705
 Red. masses --      2.6270                 1.1689                 1.0794
 Frc consts  --      3.3413                 1.5539                 1.4494
 IR Inten    --      9.4350                 3.8013                 2.6288

                     70                     71                     72
                      A                      A                      A
 Frequencies --   1515.4366              1516.6270              1517.2083
 Red. masses --      1.0482                 1.0457                 1.0993
 Frc consts  --      1.4182                 1.4171                 1.4910
 IR Inten    --      5.4113                 5.8916                14.2275

                     73                     74                     75
                      A                      A                      A
 Frequencies --   1522.6731              1532.8153              1535.4229
 Red. masses --      1.4446                 1.0763                 1.6357
 Frc consts  --      1.9734                 1.4899                 2.2720
 IR Inten    --     11.1786                12.3230                 4.4561

                     76                     77                     78
                      A                      A                      A
 Frequencies --   1553.8238              1637.6562              1660.8596
 Red. masses --      1.0827                 5.4098                 5.7775
 Frc consts  --      1.5401                 8.5483                 9.3898
 IR Inten    --      1.4073                 1.7657                26.4404

                     79                     80                     81
                      A                      A                      A
 Frequencies --   1693.7782              1747.7884              2987.4375
 Red. masses --      1.0885                11.1583                 1.0558
 Frc consts  --      1.8399                20.0829                 5.5517
 IR Inten    --     38.5106               125.6611                31.5528

                     82                     83                     84
                      A                      A                      A
 Frequencies --   2997.0406              3002.2664              3038.8775
 Red. masses --      1.0510                 1.0835                 1.1049
 Frc consts  --      5.5623                 5.7540                 6.0116
 IR Inten    --     96.5522                33.7150                65.7428

                     85                     86                     87
                      A                      A                      A
 Frequencies --   3044.2105              3050.9746              3065.4849
 Red. masses --      1.0383                 1.0633                 1.0639
 Frc consts  --      5.6694                 5.8316                 5.8903
 IR Inten    --     33.1817                25.9552                18.7313

                     88                     89                     90
                      A                      A                      A
 Frequencies --   3077.5225              3095.9390              3096.3918
 Red. masses --      1.0892                 1.0994                 1.1002
 Frc consts  --      6.0779                 6.2083                 6.2147
 IR Inten    --     11.4177                55.4993                18.9592

                     91                     92                     93
                      A                      A                      A
 Frequencies --   3109.5698              3131.2549              3133.5961
 Red. masses --      1.1032                 1.1007                 1.0974
 Frc consts  --      6.2852                 6.3588                 6.3490
 IR Inten    --     25.6001                14.3625                35.4257

                     94                     95                     96
                      A                      A                      A
 Frequencies --   3173.4013              3195.3963              3215.6882
 Red. masses --      1.0874                 1.0937                 1.0897
 Frc consts  --      6.4519                 6.5796                 6.6392
 IR Inten    --     13.3495                27.0517                 3.4195

                     97                     98                     99
                      A                      A                      A
 Frequencies --   3246.6880              3480.1395              3570.3893
 Red. masses --      1.0925                 1.0495                 1.0947
 Frc consts  --      6.7853                 7.4891                 8.2216
 IR Inten    --     18.4419                11.2496                 9.7807

 - Thermochemistry -
 -------------------
 Temperature   298.150 Kelvin.  Pressure   1.00000 Atm.
 Atom     1 has atomic number  6 and mass  12.00000

 Molecular mass:   221.14158 amu.
 Principal axes and moments of inertia in atomic units:
                           1         2         3
     Eigenvalues --  2156.518025742.478126717.22313
           X            0.99994  -0.00260  -0.01054
           Y            0.00273   0.99992   0.01213
           Z            0.01051  -0.01216   0.99987
 This molecule is an asymmetric top.
 Rotational symmetry number  1.
 Warning -- assumption of classical behavior for rotation
           may cause significant error
 Rotational temperatures (Kelvin)      0.04016     0.01508     0.01289
 Rotational constants (GHZ):           0.83688     0.31428     0.26867
 Zero-point vibrational energy     799232.9 (Joules/Mol)
                                  191.02125 (Kcal/Mol)
 Warning -- explicit consideration of  25 degrees of freedom as
           vibrations may cause significant error
 Vibrational temperatures:     27.56    44.04    49.60    75.68   112.89
          (Kelvin)            168.97   188.84   229.66   251.46   294.88
                              323.52   347.00   360.71   379.74   439.50
                              460.39   505.45   540.32   575.89   624.19
                              675.68   739.34   771.41   797.87   813.53
                              929.08  1003.38  1018.49  1099.36  1144.21
                             1171.85  1194.52  1241.42  1314.98  1344.15
                             1348.70  1386.69  1396.65  1460.65  1464.91
                             1477.49  1509.72  1532.68  1552.77  1565.35
                             1603.52  1620.86  1656.96  1674.46  1713.81
                             1731.81  1735.69  1749.38  1779.39  1817.04
                             1841.50  1886.19  1918.57  1935.82  1969.12
                             1974.78  2014.40  2019.26  2049.12  2076.43
                             2084.32  2113.95  2161.24  2172.08  2180.38
                             2182.09  2182.92  2190.79  2205.38  2209.13
                             2235.61  2356.22  2389.61  2436.97  2514.68
                             4298.26  4312.07  4319.59  4372.27  4379.94
                             4389.67  4410.55  4427.87  4454.37  4455.02
                             4473.98  4505.18  4508.55  4565.82  4597.46
                             4626.66  4671.26  5007.14  5136.99

 Zero-point correction=                           0.304412 (Hartree/Particle)
 Thermal correction to Energy=                    0.321252
 Thermal correction to Enthalpy=                  0.322196
 Thermal correction to Gibbs Free Energy=         0.257883
 Sum of electronic and zero-point Energies=           -711.765709
 Sum of electronic and thermal Energies=              -711.748868
 Sum of electronic and thermal Enthalpies=            -711.747924
 Sum of electronic and thermal Free Energies=         -711.812238

                     E (Thermal)             CV                S
                      KCal/Mol        Cal/Mol-Kelvin    Cal/Mol-Kelvin
 Total                  201.589             62.139            135.359
 Electronic               0.000              0.000              0.000
 Translational            0.889              2.981             42.084
 Rotational               0.889              2.981             32.786
 Vibrational            199.811             56.178             60.489
 Vibration     1          0.593              1.986              6.720
 Vibration     2          0.594              1.984              5.789
 Vibration     3          0.594              1.983              5.554
 Vibration     4          0.596              1.977              4.717
 Vibration     5          0.600              1.964              3.929
 Vibration     6          0.608              1.935              3.142
 Vibration     7          0.612              1.922              2.928
 Vibration     8          0.621              1.892              2.554
 Vibration     9          0.627              1.873              2.384
 Vibration    10          0.640              1.833              2.088
 Vibration    11          0.650              1.803              1.920
 Vibration    12          0.658              1.777              1.794
 Vibration    13          0.663              1.762              1.726
 Vibration    14          0.670              1.739              1.636
 Vibration    15          0.696              1.663              1.387
 Vibration    16          0.706              1.635              1.310
 Vibration    17          0.728              1.573              1.160
 Vibration    18          0.746              1.522              1.057
 Vibration    19          0.766              1.470              0.962
 Vibration    20          0.795              1.396              0.846
 Vibration    21          0.827              1.317              0.739
 Vibration    22          0.869              1.219              0.624
 Vibration    23          0.891              1.170              0.574
 Vibration    24          0.910              1.130              0.535
 Vibration    25          0.921              1.106              0.513

 Optimization completed.
    -- Stationary point found.
 Normal termination of Gaussian 16 at Fri Dec 11 00:09:45 2020.

 ----------------------------------------------------------------------
 # B3LYP/6-311++G(d,p) empiricaldispersion=gd3bj scf=xqc pop=npa geom=c
 heck
 ----------------------------------------------------------------------

 ---------------------------------------
 CID_116593747_JID_6565_Energie_neutraal
 ---------------------------------------
 Structure from the checkpoint file:  "JID_6565.chk"
 Charge =  0 Multiplicity = 1

 SCF Done:  E(RB3LYP) =  -712.274631132     A.U. after   15 cycles
 Normal termination of Gaussian 16 at Fri Dec 11 00:16:25 2020.

 ----------------------------------------------------------------------
 # B3LYP/6-311++G(d,p) empiricaldispersion=gd3bj scf=xqc pop=npa geom=c
 heck
 ----------------------------------------------------------------------

 -------------------------------------
 CID_116593747_JID_6565_Energie_kation
 -------------------------------------
 Structure from the checkpoint file:  "JID_6565.chk"
 Charge =  1 Multiplicity = 2

 SCF Done:  E(UB3LYP) =  -711.972470469     A.U. after   29 cycles
 Normal termination of Gaussian 16 at Fri Dec 11 00:34:31 2020.
 Gaussian 16:  ES64L-G16RevA.03 25-Dec-2016

 ----------------------------------------------------------------------
 # B3LYP/6-311++G(d,p) empiricaldispersion=gd3bj scf=xqc pop=npa geom=c
 heck
 ----------------------------------------------------------------------

 ------------------------------------
 CID_116593747_JID_6565_Energie_anion
 ------------------------------------
 Structure from the checkpoint file:  "JID_6565.chk"
 Charge = -1 Multiplicity = 2

                         Standard orientation:
 ---------------------------------------------------------------------
 Center     Atomic      Atomic             Coordinates (Angstroms)
 Number     Number       Type             X           Y           Z
 ---------------------------------------------------------------------
      1          6           0       -4.693246   -0.401067    0.965678
      2          6           0       -3.358102   -0.539674    0.274663
      3          6           0       -2.474589    0.533512    0.191573
      4          6           0       -1.218100    0.411970   -0.429344
      5          6           0       -0.855909   -0.818298   -0.997685
      6          6           0       -1.739783   -1.896320   -0.929378
      7          6           0       -2.972960   -1.762353   -0.297415
      8          6           0       -0.361658    1.642419   -0.435812
      9          8           0       -0.861787    2.726856   -0.160332
     10          6           0        1.166233    1.638003   -0.644840
     11          6           0        1.842792    1.560792    0.744139
     12          6           0        1.656977    0.279100    1.571283
     13          6           0        2.224870   -0.992957    0.949300
     14          8           0        3.538372   -0.733263    0.463829
     15          6           0        4.127395   -1.879635   -0.112015
     16          7           0        1.694284    0.617471   -1.556371
     17          1           0       -4.887410    0.637735    1.248198
     18          1           0       -5.513828   -0.734625    0.319446
     19          1           0       -4.734609   -1.008828    1.878453
     20          1           0       -2.740934    1.497851    0.611850
     21          1           0        0.102364   -0.904478   -1.492255
     22          1           0       -1.462659   -2.847040   -1.376971
     23          1           0       -3.650857   -2.611887   -0.247661
     24          1           0        1.367235    2.657060   -1.007473
     25          1           0        2.915476    1.730563    0.596605
     26          1           0        1.463349    2.406764    1.326776
     27          1           0        2.144874    0.445476    2.539671
     28          1           0        0.594562    0.104748    1.779476
     29          1           0        2.261516   -1.794370    1.705761
     30          1           0        1.589949   -1.339202    0.125121
     31          1           0        4.222042   -2.696420    0.620812
     32          1           0        3.539813   -2.249214   -0.967527
     33          1           0        5.124835   -1.595179   -0.457664
     34          1           0        1.662193    0.951686   -2.516159
     35          1           0        2.665894    0.425368   -1.320720
 ---------------------------------------------------------------------

 SCF Done:  E(UB3LYP) =  -712.279110337     A.U. after   33 cycles
 SCF Done:  E(UB3LYP) =  -712.279110337     a.u. after    1 cycles

 The electronic state is 2-A.
 Alpha  occ. eigenvalues --  -19.02742 -18.92325 -14.17197 -10.11809 -10.10264
 Alpha  occ. eigenvalues --  -10.06845 -10.06720 -10.05417 -10.05107 -10.04812
 Alpha  occ. eigenvalues --  -10.03987 -10.02866 -10.02014 -10.01806 -10.01609
 Alpha  occ. eigenvalues --  -10.01528  -0.93856  -0.86544  -0.76582  -0.71177
 Alpha  occ. eigenvalues --   -0.67511  -0.63715  -0.61391  -0.60301  -0.56843
 Alpha  occ. eigenvalues --   -0.55469  -0.52119  -0.48282  -0.45343  -0.44830
 Alpha  occ. eigenvalues --   -0.39557  -0.38966  -0.38827  -0.36752  -0.35548
 Alpha  occ. eigenvalues --   -0.35165  -0.33374  -0.32955  -0.32406  -0.30225
 Alpha  occ. eigenvalues --   -0.30111  -0.29565  -0.28469  -0.27673  -0.26845
 Alpha  occ. eigenvalues --   -0.26197  -0.25061  -0.24342  -0.23828  -0.22641
 Alpha  occ. eigenvalues --   -0.21696  -0.21200  -0.20750  -0.19699  -0.19066
 Alpha  occ. eigenvalues --   -0.16478  -0.12389  -0.11107  -0.10774  -0.08270
 Alpha  occ. eigenvalues --    0.04662
 Alpha virt. eigenvalues --    0.06208   0.08343   0.08627   0.09022   0.09398
 Alpha virt. eigenvalues --    0.10420   0.10904   0.11272   0.11628   0.12074
 Alpha virt. eigenvalues --    0.12491   0.12882   0.13470   0.13762   0.14245

  Beta  occ. eigenvalues --  -19.02738 -18.91850 -14.17183 -10.11786 -10.10255
  Beta  occ. eigenvalues --  -10.06873 -10.06393 -10.05415 -10.05103 -10.04782
  Beta  occ. eigenvalues --  -10.04059 -10.02900 -10.01723 -10.01716 -10.01488
  Beta  occ. eigenvalues --  -10.01371  -0.93846  -0.85675  -0.76533  -0.70921
  Beta  occ. eigenvalues --   -0.67484  -0.63578  -0.61301  -0.59881  -0.56766
  Beta  occ. eigenvalues --   -0.55241  -0.51909  -0.47770  -0.45156  -0.44714
  Beta  occ. eigenvalues --   -0.39517  -0.38798  -0.38723  -0.36702  -0.35509
  Beta  occ. eigenvalues --   -0.34869  -0.33305  -0.32768  -0.32302  -0.30180
  Beta  occ. eigenvalues --   -0.30016  -0.29344  -0.28331  -0.27565  -0.26776
  Beta  occ. eigenvalues --   -0.26042  -0.24730  -0.24270  -0.22804  -0.22478
  Beta  occ. eigenvalues --   -0.21537  -0.20924  -0.20579  -0.19407  -0.17676
  Beta  occ. eigenvalues --   -0.16457  -0.12243  -0.10249  -0.09419  -0.07862
  Beta virt. eigenvalues --    0.06567   0.08287   0.08665   0.08917   0.09373
  Beta virt. eigenvalues --    0.10223   0.10456   0.10981   0.11261   0.11695
  Beta virt. eigenvalues --    0.12016   0.12495   0.12864   0.13638   0.13732

 Mulliken charges and spin densities:
               1          2
     1  C   -0.537196   0.013447
     2  C    0.245503  -0.025785
     3  C   -0.165701   0.172398
     4  C    1.128598   0.093492
     5  C   -0.919108   0.106719
     6  C   -0.289261  -0.040960
     7  C   -0.401754   0.188130
     8  C   -0.877093   0.199503
     9  O   -0.341718   0.170334
    10  C    0.461510  -0.119666
    11  C   -0.542069   0.006277
    12  C   -0.077602  -0.021531
    13  C   -0.605585   0.104839
    14  O   -0.147188   0.018005
    15  C    0.290410  -0.531487
    16  N   -0.433841   0.019323
    17  H    0.132936  -0.001170
    18  H    0.112216   0.009061
    19  H    0.135407   0.000734
    20  H    0.176121  -0.006894
    21  H    0.223702  -0.026569
    22  H    0.086177   0.040837
    23  H    0.101892  -0.022976
    24  H    0.206483   0.002872
    25  H    0.153669   0.003415
    26  H    0.164244  -0.002280
    27  H    0.166972  -0.003907
    28  H    0.123819   0.005726
    29  H    0.040033   0.081128
    30  H    0.251899  -0.115186
    31  H   -0.124717   0.244924
    32  H   -0.069380   0.201701
    33  H   -0.063383   0.194293
    34  H    0.197272   0.029683
    35  H    0.196730   0.011569
 Sum of Mulliken charges =  -1.00000   1.00000

 Dipole moment (field-independent basis, Debye):
    X=              2.2424    Y=             -1.8662    Z=              0.7429  Tot=              3.0105
 Quadrupole moment (field-independent basis, Debye-Ang):
   XX=           -142.4420   YY=           -132.0998   ZZ=           -108.6150
   XY=              8.6673   XZ=             -4.4006   YZ=             -0.7102

 Summary of Natural Population Analysis:

                                       Natural Population
                Natural  -----------------------------------------------
    Atom  No    Charge         Core      Valence    Rydberg      Total
 -----------------------------------------------------------------------
      C    1   -0.28723      0.99964     2.28296    0.00462     3.28723
      C    2   -0.04552      0.99951     2.03818    0.00783     3.04552
      C    3   -0.05174      0.99949     2.04423    0.00802     3.05174
      C    4   -0.05566      0.99947     2.04438    0.01181     3.05566
      C    5   -0.07900      0.99953     2.07098    0.00849     3.07900
      C    6   -0.12007      0.99957     2.11153    0.00897     3.12007
      C    7   -0.05038      0.99952     2.04200    0.00886     3.05038
      C    8    0.31223      0.99960     1.66606    0.02212     2.68777
      O    9   -0.26596      0.99988     3.25962    0.00646     4.26596
      C   10   -0.04768      0.99956     2.03367    0.01445     3.04768
      C   11   -0.18315      0.99960     2.17656    0.00699     3.18315
      C   12   -0.20136      0.99962     2.19384    0.00790     3.20136
      C   13   -0.01745      0.99958     2.00408    0.01379     3.01745
      O   14   -0.30677      0.99989     3.29681    0.01007     4.30677
      C   15   -0.09902      0.99963     2.08956    0.00984     3.09902
      N   16   -0.43441      0.99976     2.92353    0.01113     3.93441
      H   17    0.09817      0.00000     0.40093    0.00090     0.40183
      H   18    0.09460      0.00000     0.40434    0.00106     0.40540
      H   19    0.09472      0.00000     0.40421    0.00107     0.40528
      H   20    0.10322      0.00000     0.39525    0.00153     0.39678
      H   21    0.11161      0.00000     0.38707    0.00132     0.38839
      H   22    0.08867      0.00000     0.40981    0.00152     0.41133
      H   23    0.08371      0.00000     0.41483    0.00145     0.41629
      H   24    0.08851      0.00000     0.40955    0.00194     0.41149
      H   25    0.09409      0.00000     0.40467    0.00123     0.40591
      H   26    0.10632      0.00000     0.39269    0.00099     0.39368
      H   27    0.09143      0.00000     0.40743    0.00115     0.40857
      H   28    0.11078      0.00000     0.38804    0.00118     0.38922
      H   29    0.07530      0.00000     0.42335    0.00135     0.42470
      H   30    0.09546      0.00000     0.40281    0.00173     0.40454
      H   31    0.07674      0.00000     0.42168    0.00158     0.42326
      H   32    0.08089      0.00000     0.41769    0.00142     0.41911
      H   33    0.08686      0.00000     0.41208    0.00105     0.41314
      H   34    0.17325      0.00000     0.32550    0.00126     0.32675
      H   35    0.17885      0.00000     0.31925    0.00191     0.32115
 =======================================================================
   * Total *    0.00000     15.99385    43.81916    0.18699    60.00000

 Normal termination of Gaussian 16 at Fri Dec 11 00:55:48 2020.
