 Gaussian 16, Revision A.03,

 -----------------------------------------------------------
 # opt freq B3LYP/6-31G(d) empiricaldispersion=gd3bj scf=xqc
 -----------------------------------------------------------

 ------------------------------
 CID_9835905_JID_10882_neutraal
 ------------------------------
 Symbolic Z-matrix:
 Charge =  0 Multiplicity = 1

 SCF Done:  E(RB3LYP) =  -1554.94953602     A.U. after   16 cycles
 SCF Done:  E(RB3LYP) =  -1554.95722063     A.U. after   14 cycles
 SCF Done:  E(RB3LYP) =  -1554.95795740     A.U. after   13 cycles
 SCF Done:  E(RB3LYP) =  -1554.95812577     A.U. after   12 cycles
 SCF Done:  E(RB3LYP) =  -1554.95814601     A.U. after   11 cycles
 SCF Done:  E(RB3LYP) =  -1554.95815071     A.U. after   10 cycles
 SCF Done:  E(RB3LYP) =  -1554.95815268     A.U. after    9 cycles
 SCF Done:  E(RB3LYP) =  -1554.95815439     A.U. after   10 cycles
 SCF Done:  E(RB3LYP) =  -1554.95816118     A.U. after   12 cycles
 SCF Done:  E(RB3LYP) =  -1554.95817464     A.U. after   13 cycles
 SCF Done:  E(RB3LYP) =  -1554.96179080     A.U. after   10 cycles
 SCF Done:  E(RB3LYP) =  -1554.96179270     A.U. after    8 cycles
 SCF Done:  E(RB3LYP) =  -1554.96179515     A.U. after   10 cycles
 SCF Done:  E(RB3LYP) =  -1554.96179636     A.U. after    9 cycles
 SCF Done:  E(RB3LYP) =  -1554.96179782     A.U. after    9 cycles
 SCF Done:  E(RB3LYP) =  -1554.96179799     A.U. after    8 cycles
 Optimization completed.
    -- Stationary point found.
 Normal termination of Gaussian 16 at Sun Dec 13 14:05:48 2020.

 --------------------------------------------------------------------
 #N Geom=AllCheck Guess=TCheck SCRF=Check GenChk RB3LYP/6-31G(d) Freq
 --------------------------------------------------------------------

 Structure from the checkpoint file:  "JID_10882.chk"
 ------------------------------
 CID_9835905_JID_10882_neutraal
 ------------------------------
 Charge =  0 Multiplicity = 1

 SCF Done:  E(RB3LYP) =  -1554.96179799     A.U. after    1 cycles

  Exact polarizability: 252.141   7.732 227.021  -8.379 -13.471 119.765
 Approx polarizability: 365.468  32.903 403.748 -15.401 -28.466 206.919

                      1                      2                      3
                      A                      A                      A
 Frequencies --     15.1328                23.0711                43.1352
 Red. masses --      7.5738                 5.0158                 8.1899
 Frc consts  --      0.0010                 0.0016                 0.0090
 IR Inten    --      0.0815                 0.4095                 0.6965

                      4                      5                      6
                      A                      A                      A
 Frequencies --     83.1925                88.3109               112.9904
 Red. masses --      4.3086                 6.4484                 9.2498
 Frc consts  --      0.0176                 0.0296                 0.0696
 IR Inten    --      2.6618                 3.9392                 0.6388

                      7                      8                      9
                      A                      A                      A
 Frequencies --    126.5338               150.8557               152.2950
 Red. masses --      5.1763                 3.3424                 2.7670
 Frc consts  --      0.0488                 0.0448                 0.0378
 IR Inten    --      2.0359                 7.8593                 3.5148

                     10                     11                     12
                      A                      A                      A
 Frequencies --    183.3743               196.5765               220.7307
 Red. masses --      1.7115                 5.8586                 7.1638
 Frc consts  --      0.0339                 0.1334                 0.2056
 IR Inten    --      0.5584                 1.5266                 1.5416

                     13                     14                     15
                      A                      A                      A
 Frequencies --    230.5551               307.0633               314.4408
 Red. masses --      5.4824                 6.6920                 5.4435
 Frc consts  --      0.1717                 0.3718                 0.3171
 IR Inten    --      1.3359                 0.3441                 2.9896

                     16                     17                     18
                      A                      A                      A
 Frequencies --    382.3070               386.4111               406.6415
 Red. masses --      8.3469                 7.6369                 8.9814
 Frc consts  --      0.7188                 0.6718                 0.8750
 IR Inten    --      4.4301                 5.5658                 2.3993

                     19                     20                     21
                      A                      A                      A
 Frequencies --    428.5695               435.7073               445.4206
 Red. masses --     10.3980                 3.3645                 3.8983
 Frc consts  --      1.1252                 0.3763                 0.4557
 IR Inten    --      2.1427                 2.3465                 1.4783

                     22                     23                     24
                      A                      A                      A
 Frequencies --    488.8249               511.1473               522.7571
 Red. masses --      8.0297                 7.8347                 6.5822
 Frc consts  --      1.1305                 1.2061                 1.0598
 IR Inten    --      6.8184                 0.5866                 1.9115

                     25                     26                     27
                      A                      A                      A
 Frequencies --    548.2397               601.8208               628.0786
 Red. masses --      7.6330                 5.3629                 7.6110
 Frc consts  --      1.3517                 1.1444                 1.7690
 IR Inten    --      1.0999                 0.2138                 3.1108

                     28                     29                     30
                      A                      A                      A
 Frequencies --    665.7615               693.3673               718.6012
 Red. masses --      8.0623                 8.8669                 6.4170
 Frc consts  --      2.1055                 2.5116                 1.9523
 IR Inten    --      4.3081                11.1995                 5.3704

                     31                     32                     33
                      A                      A                      A
 Frequencies --    720.9545               741.7314               768.5735
 Red. masses --      6.8331                 2.5340                 6.4455
 Frc consts  --      2.0926                 0.8214                 2.2433
 IR Inten    --      2.4875                12.3201                12.8505

                     34                     35                     36
                      A                      A                      A
 Frequencies --    775.7078               783.3391               813.2916
 Red. masses --      1.7121                 8.0337                 3.0578
 Frc consts  --      0.6070                 2.9044                 1.1917
 IR Inten    --     40.3787                14.1006                 5.6469

                     37                     38                     39
                      A                      A                      A
 Frequencies --    860.2000               871.8921               881.2276
 Red. masses --      2.0145                 1.3816                 3.9278
 Frc consts  --      0.8782                 0.6188                 1.7971
 IR Inten    --     21.2345                 1.4249                10.8778

                     40                     41                     42
                      A                      A                      A
 Frequencies --    914.5006               948.7330               988.9195
 Red. masses --      6.3816                 1.3539                 1.2662
 Frc consts  --      3.1445                 0.7180                 0.7296
 IR Inten    --     23.3605                 1.4988                 0.0103

                     43                     44                     45
                      A                      A                      A
 Frequencies --    998.0424              1001.9060              1002.6693
 Red. masses --      1.1887                 1.4006                 2.1474
 Frc consts  --      0.6977                 0.8283                 1.2720
 IR Inten    --      4.0779                 0.0238                 4.3343

                     46                     47                     48
                      A                      A                      A
 Frequencies --   1008.1972              1021.5843              1048.6553
 Red. masses --      3.9069                 2.6345                 2.2053
 Frc consts  --      2.3398                 1.6199                 1.4288
 IR Inten    --      6.5513                 7.6925                 3.8403

                     49                     50                     51
                      A                      A                      A
 Frequencies --   1080.9795              1128.6701              1136.0431
 Red. masses --      4.3658                 1.6570                 2.8392
 Frc consts  --      3.0057                 1.2436                 2.1589
 IR Inten    --      5.7314                 0.6535                32.4005

                     52                     53                     54
                      A                      A                      A
 Frequencies --   1155.5335              1196.4886              1239.4440
 Red. masses --      1.4679                 1.1762                 2.6610
 Frc consts  --      1.1548                 0.9921                 2.4085
 IR Inten    --      1.3422                 0.3120                90.7727

                     55                     56                     57
                      A                      A                      A
 Frequencies --   1251.5974              1270.2436              1277.4086
 Red. masses --      3.0541                 1.8718                 2.4583
 Frc consts  --      2.8188                 1.7795                 2.3635
 IR Inten    --     23.1922                23.0968                 7.0694

                     58                     59                     60
                      A                      A                      A
 Frequencies --   1297.2310              1317.6313              1328.0919
 Red. masses --      5.7639                 2.0047                 1.7520
 Frc consts  --      5.7148                 2.0507                 1.8207
 IR Inten    --      7.6279                 1.1599                 0.3163

                     61                     62                     63
                      A                      A                      A
 Frequencies --   1370.1440              1381.5852              1407.6752
 Red. masses --      5.7733                 1.4684                 1.8757
 Frc consts  --      6.3856                 1.6514                 2.1899
 IR Inten    --     15.5817                66.2829               123.8812

                     64                     65                     66
                      A                      A                      A
 Frequencies --   1468.2073              1482.9296              1490.7179
 Red. masses --      2.3620                 2.4219                 1.0528
 Frc consts  --      2.9999                 3.1380                 1.3784
 IR Inten    --     81.2224                17.0116                 7.5945

                     67                     68                     69
                      A                      A                      A
 Frequencies --   1504.7645              1507.5905              1589.0450
 Red. masses --      1.0696                 2.4835                 8.6972
 Frc consts  --      1.4269                 3.3257                12.9391
 IR Inten    --     19.8214                 2.8244               126.1111

                     70                     71                     72
                      A                      A                      A
 Frequencies --   1605.8774              1618.7882              1626.3095
 Red. masses --      6.3488                 5.6835                 6.4361
 Frc consts  --      9.6464                 8.7749                10.0296
 IR Inten    --    176.3208                 3.3796               162.9001

                     73                     74                     75
                      A                      A                      A
 Frequencies --   1660.1686              2384.9182              3054.9913
 Red. masses --      6.4943                12.6739                 1.0817
 Frc consts  --     10.5459                42.4725                 5.9479
 IR Inten    --      5.9126                 2.6093                 0.1877

                     76                     77                     78
                      A                      A                      A
 Frequencies --   3082.4632              3172.6004              3180.6018
 Red. masses --      1.0294                 1.1052                 1.1078
 Frc consts  --      5.7629                 6.5544                 6.6030
 IR Inten    --     13.3436                 7.1342                 4.0886

                     79                     80                     81
                      A                      A                      A
 Frequencies --   3187.3153              3194.8022              3206.9957
 Red. masses --      1.0914                 1.0861                 1.0899
 Frc consts  --      6.5323                 6.5313                 6.6046
 IR Inten    --     23.7144                 1.3071                 8.4148

                     82                     83                     84
                      A                      A                      A
 Frequencies --   3216.6046              3226.3910              3244.7245
 Red. masses --      1.0949                 1.0956                 1.0943
 Frc consts  --      6.6745                 6.7193                 6.7878
 IR Inten    --     18.7902                10.7192                 0.4936

 - Thermochemistry -
 -------------------
 Temperature   298.150 Kelvin.  Pressure   1.00000 Atm.
 Atom     1 has atomic number  6 and mass  12.00000

 Molecular mass:   298.03469 amu.
 Principal axes and moments of inertia in atomic units:
                           1         2         3
     Eigenvalues --  3878.872549468.47352**********
           X            0.99996  -0.00538  -0.00778
           Y            0.00521   0.99974  -0.02234
           Z            0.00790   0.02230   0.99972
 This molecule is an asymmetric top.
 Rotational symmetry number  1.
 Warning -- assumption of classical behavior for rotation
           may cause significant error
 Rotational temperatures (Kelvin)      0.02233     0.00915     0.00720
 Rotational constants (GHZ):           0.46527     0.19061     0.14997
 Zero-point vibrational energy     567075.4 (Joules/Mol)
                                  135.53429 (Kcal/Mol)
 Warning -- explicit consideration of  26 degrees of freedom as
           vibrations may cause significant error
 Vibrational temperatures:     21.77    33.19    62.06   119.70   127.06
          (Kelvin)            162.57   182.05   217.05   219.12   263.83
                              282.83   317.58   331.72   441.80   452.41
                              550.05   555.96   585.07   616.62   626.89
                              640.86   703.31   735.43   752.13   788.79
                              865.89   903.67   957.88   997.60  1033.91
                             1037.29  1067.19  1105.81  1116.07  1127.05
                             1170.15  1237.64  1254.46  1267.89  1315.76
                             1365.02  1422.83  1435.96  1441.52  1442.62
                             1450.57  1469.83  1508.78  1555.29  1623.90
                             1634.51  1662.55  1721.48  1783.28  1800.77
                             1827.60  1837.91  1866.43  1895.78  1910.83
                             1971.33  1987.79  2025.33  2112.42  2133.60
                             2144.81  2165.02  2169.09  2286.28  2310.50
                             2329.08  2339.90  2388.61  3431.37  4395.45
                             4434.98  4564.66  4576.18  4585.84  4596.61
                             4614.15  4627.98  4642.06  4668.43

 Zero-point correction=                           0.215988 (Hartree/Particle)
 Thermal correction to Energy=                    0.233277
 Thermal correction to Enthalpy=                  0.234221
 Thermal correction to Gibbs Free Energy=         0.168052
 Sum of electronic and zero-point Energies=          -1554.745810
 Sum of electronic and thermal Energies=             -1554.728521
 Sum of electronic and thermal Enthalpies=           -1554.727577
 Sum of electronic and thermal Free Energies=        -1554.793746

                     E (Thermal)             CV                S
                      KCal/Mol        Cal/Mol-Kelvin    Cal/Mol-Kelvin
 Total                  146.384             64.794            139.264
 Electronic               0.000              0.000              0.000
 Translational            0.889              2.981             42.973
 Rotational               0.889              2.981             34.446
 Vibrational            144.606             58.833             61.845
 Vibration     1          0.593              1.986              7.188
 Vibration     2          0.593              1.985              6.351
 Vibration     3          0.595              1.980              5.110
 Vibration     4          0.600              1.961              3.814
 Vibration     5          0.601              1.957              3.697
 Vibration     6          0.607              1.939              3.217
 Vibration     7          0.611              1.927              2.998
 Vibration     8          0.618              1.902              2.661
 Vibration     9          0.619              1.900              2.643
 Vibration    10          0.631              1.862              2.294
 Vibration    11          0.636              1.845              2.165
 Vibration    12          0.647              1.810              1.953
 Vibration    13          0.652              1.794              1.875
 Vibration    14          0.697              1.660              1.378
 Vibration    15          0.702              1.646              1.339
 Vibration    16          0.752              1.508              1.030
 Vibration    17          0.755              1.499              1.014
 Vibration    18          0.771              1.456              0.939
 Vibration    19          0.790              1.408              0.863
 Vibration    20          0.796              1.392              0.840
 Vibration    21          0.805              1.371              0.810
 Vibration    22          0.845              1.275              0.687
 Vibration    23          0.866              1.225              0.631
 Vibration    24          0.878              1.200              0.604
 Vibration    25          0.903              1.144              0.548
 Vibration    26          0.960              1.028              0.447

 Optimization completed.
    -- Stationary point found.
 Normal termination of Gaussian 16 at Sun Dec 13 14:19:40 2020.

 ----------------------------------------------------------------------
 # B3LYP/6-311++G(d,p) empiricaldispersion=gd3bj scf=xqc pop=npa geom=c
 heck
 ----------------------------------------------------------------------

 --------------------------------------
 CID_9835905_JID_10882_Energie_neutraal
 --------------------------------------
 Structure from the checkpoint file:  "JID_10882.chk"
 Charge =  0 Multiplicity = 1

 SCF Done:  E(RB3LYP) =  -1555.20528997     A.U. after   17 cycles
 Normal termination of Gaussian 16 at Sun Dec 13 14:26:08 2020.

 ----------------------------------------------------------------------
 # B3LYP/6-311++G(d,p) empiricaldispersion=gd3bj scf=xqc pop=npa geom=c
 heck
 ----------------------------------------------------------------------

 ------------------------------------
 CID_9835905_JID_10882_Energie_kation
 ------------------------------------
 Structure from the checkpoint file:  "JID_10882.chk"
 Charge =  1 Multiplicity = 2

 SCF Done:  E(UB3LYP) =  -1554.90209870     A.U. after   31 cycles
 Normal termination of Gaussian 16 at Sun Dec 13 14:42:44 2020.
 Gaussian 16:  ES64L-G16RevA.03 25-Dec-2016

 ----------------------------------------------------------------------
 # B3LYP/6-311++G(d,p) empiricaldispersion=gd3bj scf=xqc pop=npa geom=c
 heck
 ----------------------------------------------------------------------

 -----------------------------------
 CID_9835905_JID_10882_Energie_anion
 -----------------------------------
 Structure from the checkpoint file:  "JID_10882.chk"
 Charge = -1 Multiplicity = 2

                         Standard orientation:
 ---------------------------------------------------------------------
 Center     Atomic      Atomic             Coordinates (Angstroms)
 Number     Number       Type             X           Y           Z
 ---------------------------------------------------------------------
      1          6           0        2.857795    2.583957   -1.273205
      2         16           0        3.846410    1.958867    0.126154
      3          6           0        3.079711    0.395592    0.411026
      4          7           0        3.610425   -0.301851    1.429419
      5          6           0        3.050736   -1.484069    1.677506
      6          6           0        1.973930   -1.988507    0.941583
      7          6           0        1.515275   -1.179184   -0.089678
      8          7           0        2.063576    0.009204   -0.367756
      9          6           0        0.316644   -1.530887   -0.972817
     10          6           0        0.033540   -2.969575   -0.974166
     11          7           0       -0.124437   -4.117810   -0.973077
     12          6           0       -0.910865   -0.736591   -0.558946
     13          7           0       -2.029461   -1.281206   -0.220088
     14          6           0       -2.983339   -0.319074    0.085022
     15          6           0       -4.296622   -0.586714    0.490694
     16          6           0       -5.142424    0.481166    0.762638
     17          6           0       -4.693978    1.807275    0.636106
     18          6           0       -3.391502    2.092684    0.235909
     19          6           0       -2.542133    1.019979   -0.040247
     20         16           0       -0.861945    1.039918   -0.547612
     21          1           0        3.287666    3.554739   -1.531968
     22          1           0        1.812269    2.705058   -0.985842
     23          1           0        2.925338    1.908225   -2.127113
     24          1           0        3.476776   -2.054186    2.500605
     25          1           0        1.529831   -2.952380    1.157623
     26          1           0        0.588170   -1.235078   -1.994685
     27          1           0       -4.624674   -1.616572    0.583505
     28          1           0       -6.163856    0.290897    1.077516
     29          1           0       -5.373923    2.625460    0.854003
     30          1           0       -3.050382    3.118611    0.141630
 ---------------------------------------------------------------------

 SCF Done:  E(UB3LYP) =  -1555.23418616     A.U. after   26 cycles

 The electronic state is 2-A.
 Alpha  occ. eigenvalues --  -88.76329 -88.74743 -14.20504 -14.19378 -14.18611
 Alpha  occ. eigenvalues --  -14.18059 -10.14723 -10.12384 -10.12080 -10.10674
 Alpha  occ. eigenvalues --  -10.09988 -10.09833 -10.09822 -10.09543 -10.08492
 Alpha  occ. eigenvalues --  -10.08192 -10.07752 -10.07419 -10.07170 -10.06054
 Alpha  occ. eigenvalues --   -7.84933  -7.83398  -5.81237  -5.80891  -5.80475
 Alpha  occ. eigenvalues --   -5.79790  -5.79375  -5.78812  -0.86935  -0.85490
 Alpha  occ. eigenvalues --   -0.80333  -0.77330  -0.75037  -0.71525  -0.69175
 Alpha  occ. eigenvalues --   -0.68326  -0.64857  -0.63650  -0.61389  -0.57039
 Alpha  occ. eigenvalues --   -0.53029  -0.50963  -0.50348  -0.49178  -0.47074
 Alpha  occ. eigenvalues --   -0.41922  -0.40045  -0.38955  -0.38463  -0.38012
 Alpha  occ. eigenvalues --   -0.35884  -0.34675  -0.33967  -0.33338  -0.32857
 Alpha  occ. eigenvalues --   -0.31919  -0.31389  -0.30242  -0.29794  -0.29210
 Alpha  occ. eigenvalues --   -0.27700  -0.27018  -0.26126  -0.24203  -0.23820
 Alpha  occ. eigenvalues --   -0.23498  -0.22642  -0.22169  -0.20011  -0.19432
 Alpha  occ. eigenvalues --   -0.18937  -0.18656  -0.16606  -0.14030  -0.13370
 Alpha  occ. eigenvalues --   -0.13212  -0.12019   0.02146
 Alpha virt. eigenvalues --    0.06595   0.06787   0.07446   0.08292   0.08616
 Alpha virt. eigenvalues --    0.08855   0.09192   0.09582   0.09686   0.11350
 Alpha virt. eigenvalues --    0.11760   0.11965   0.12141   0.12218   0.12765

  Beta  occ. eigenvalues --  -88.76316 -88.74745 -14.20505 -14.19265 -14.18390
  Beta  occ. eigenvalues --  -14.17785 -10.14774 -10.12142 -10.12058 -10.10666
  Beta  occ. eigenvalues --  -10.09952 -10.09801 -10.09540 -10.09465 -10.08223
  Beta  occ. eigenvalues --  -10.08186 -10.07791 -10.07309 -10.07086 -10.06149
  Beta  occ. eigenvalues --   -7.84921  -7.83401  -5.81236  -5.80891  -5.80422
  Beta  occ. eigenvalues --   -5.79791  -5.79377  -5.78818  -0.86523  -0.85185
  Beta  occ. eigenvalues --   -0.80309  -0.76760  -0.74877  -0.71297  -0.69019
  Beta  occ. eigenvalues --   -0.68202  -0.64636  -0.63498  -0.61251  -0.57007
  Beta  occ. eigenvalues --   -0.52422  -0.50693  -0.50243  -0.49070  -0.46804
  Beta  occ. eigenvalues --   -0.41753  -0.39776  -0.38780  -0.38310  -0.37838
  Beta  occ. eigenvalues --   -0.35624  -0.34610  -0.33820  -0.33236  -0.32696
  Beta  occ. eigenvalues --   -0.31663  -0.30973  -0.29612  -0.29525  -0.29047
  Beta  occ. eigenvalues --   -0.27591  -0.26945  -0.26104  -0.23792  -0.23678
  Beta  occ. eigenvalues --   -0.23406  -0.22431  -0.22050  -0.19392  -0.18375
  Beta  occ. eigenvalues --   -0.18356  -0.17861  -0.16413  -0.13428  -0.13003
  Beta  occ. eigenvalues --   -0.12683  -0.11639
  Beta virt. eigenvalues --    0.06720   0.06959   0.07461   0.08255   0.08603
  Beta virt. eigenvalues --    0.09032   0.09167   0.09275   0.09603   0.09832
  Beta virt. eigenvalues --    0.11323   0.11762   0.12102   0.12168   0.12598

 Mulliken charges and spin densities:
               1          2
     1  C   -0.614993  -0.013753
     2  S   -0.272306   0.002439
     3  C   -0.250305  -0.045967
     4  N   -0.037523   0.116932
     5  C   -0.335128   0.197280
     6  C    0.042837  -0.040220
     7  C    0.360524   0.264244
     8  N    0.132799   0.116600
     9  C    0.315283  -0.108575
    10  C   -0.522317  -0.059109
    11  N   -0.305817  -0.003944
    12  C   -0.164175   0.153563
    13  N    0.243531   0.050447
    14  C   -0.845289  -0.000463
    15  C   -0.530736   0.065908
    16  C   -0.354956  -0.031623
    17  C   -0.143634   0.091379
    18  C   -0.005774   0.004832
    19  C    1.578942   0.062927
    20  S   -0.773216   0.015543
    21  H    0.131309  -0.000609
    22  H    0.176150  -0.000530
    23  H    0.169482   0.012334
    24  H    0.158714  -0.017475
    25  H    0.167225   0.010630
    26  H    0.110228   0.163757
    27  H    0.158724  -0.003512
    28  H    0.132414   0.002585
    29  H    0.129581  -0.006062
    30  H    0.148427   0.000441
 Sum of Mulliken charges =  -1.00000   1.00000

 Dipole moment (field-independent basis, Debye):
    X=             -2.2595    Y=              4.8686    Z=             -1.1160  Tot=              5.4821
 Quadrupole moment (field-independent basis, Debye-Ang):
   XX=           -184.3495   YY=           -162.7032   ZZ=           -142.4035
   XY=             -4.5068   XZ=             -9.8651   YZ=             -8.5509

 Summary of Natural Population Analysis:

                                       Natural Population
                Natural  -----------------------------------------------
    Atom  No    Charge         Core      Valence    Rydberg      Total
 -----------------------------------------------------------------------
      C    1   -0.35017      0.99962     2.34528    0.00527     3.35017
      S    2    0.12058      4.99952     2.85839    0.02151     7.87942
      C    3    0.13351      0.99959     1.84554    0.02136     2.86649
      N    4   -0.22784      0.99966     2.71728    0.01090     3.72784
      C    5    0.09575      0.99961     1.89070    0.01394     2.90425
      C    6   -0.17015      0.99949     2.16161    0.00905     3.17015
      C    7    0.19103      0.99951     1.79391    0.01555     2.80897
      N    8   -0.25369      0.99961     2.74139    0.01269     3.75369
      C    9   -0.20064      0.99943     2.18864    0.01258     3.20064
      C   10    0.18073      0.99965     1.79868    0.02094     2.81927
      N   11   -0.18817      0.99978     2.67757    0.01082     3.68817
      C   12    0.11833      0.99958     1.86330    0.01879     2.88167
      N   13   -0.23034      0.99961     2.72004    0.01068     3.73034
      C   14    0.06079      0.99943     1.92741    0.01237     2.93921
      C   15   -0.08143      0.99952     2.07332    0.00859     3.08143
      C   16   -0.12138      0.99958     2.11271    0.00908     3.12138
      C   17   -0.08943      0.99958     2.08060    0.00924     3.08943
      C   18   -0.11366      0.99951     2.10447    0.00968     3.11366
      C   19   -0.09830      0.99940     2.08799    0.01091     3.09830
      S   20    0.18690      4.99943     2.79478    0.01889     7.81310
      H   21    0.09834      0.00000     0.40084    0.00082     0.40166
      H   22    0.11028      0.00000     0.38865    0.00107     0.38972
      H   23    0.10662      0.00000     0.39095    0.00243     0.39338
      H   24    0.08152      0.00000     0.41737    0.00111     0.41848
      H   25    0.11015      0.00000     0.38881    0.00104     0.38985
      H   26    0.14028      0.00000     0.35772    0.00200     0.35972
      H   27    0.10277      0.00000     0.39593    0.00130     0.39723
      H   28    0.09521      0.00000     0.40382    0.00097     0.40479
      H   29    0.09351      0.00000     0.40554    0.00095     0.40649
      H   30    0.09889      0.00000     0.39971    0.00140     0.40111
 =======================================================================
   * Total *   -0.00000     27.99112    48.73293    0.27595    77.00000

 Normal termination of Gaussian 16 at Sun Dec 13 14:56:20 2020.
