 Gaussian 16, Revision A.03,

 -----------------------------------------------------------
 # opt freq B3LYP/6-31G(d) empiricaldispersion=gd3bj scf=xqc
 -----------------------------------------------------------

 -------------------------------
 CID_150389332_JID_3187_neutraal
 -------------------------------
 Symbolic Z-matrix:
 Charge =  0 Multiplicity = 1

 SCF Done:  E(RB3LYP) =  -593.860885153     A.U. after   15 cycles
 SCF Done:  E(RB3LYP) =  -593.863386402     A.U. after   13 cycles
 SCF Done:  E(RB3LYP) =  -593.864705783     A.U. after   13 cycles
 SCF Done:  E(RB3LYP) =  -593.865041294     A.U. after   12 cycles
 SCF Done:  E(RB3LYP) =  -593.865113152     A.U. after   13 cycles
 SCF Done:  E(RB3LYP) =  -593.865188197     A.U. after   10 cycles
 SCF Done:  E(RB3LYP) =  -593.865210702     A.U. after   11 cycles
 SCF Done:  E(RB3LYP) =  -593.865219853     A.U. after   11 cycles
 SCF Done:  E(RB3LYP) =  -593.865226592     A.U. after    9 cycles
 SCF Done:  E(RB3LYP) =  -593.865230042     A.U. after   10 cycles
 SCF Done:  E(RB3LYP) =  -593.865231755     A.U. after    8 cycles
 SCF Done:  E(RB3LYP) =  -593.865232163     A.U. after    9 cycles
 SCF Done:  E(RB3LYP) =  -593.865232245     A.U. after    8 cycles
 SCF Done:  E(RB3LYP) =  -593.865232279     A.U. after    7 cycles
 SCF Done:  E(RB3LYP) =  -593.865232303     A.U. after    8 cycles
 SCF Done:  E(RB3LYP) =  -593.865232294     A.U. after    7 cycles
 Optimization completed.
    -- Stationary point found.
 Normal termination of Gaussian 16 at Wed Dec  9 22:35:15 2020.

 --------------------------------------------------------------------
 #N Geom=AllCheck Guess=TCheck SCRF=Check GenChk RB3LYP/6-31G(d) Freq
 --------------------------------------------------------------------

 Structure from the checkpoint file:  "JID_3187.chk"
 -------------------------------
 CID_150389332_JID_3187_neutraal
 -------------------------------
 Charge =  0 Multiplicity = 1

 SCF Done:  E(RB3LYP) =  -593.865232294     A.U. after    1 cycles

  Exact polarizability: 137.096  -8.383 119.526  10.226  -5.340 102.792
 Approx polarizability: 196.512 -27.830 162.940  33.930 -17.328 166.635

                      1                      2                      3
                      A                      A                      A
 Frequencies --     21.5067                31.3111                52.3913
 Red. masses --      5.5109                 4.2973                 2.9714
 Frc consts  --      0.0015                 0.0025                 0.0048
 IR Inten    --      0.4579                 0.9725                 0.4405

                      4                      5                      6
                      A                      A                      A
 Frequencies --     94.6573               114.4386               139.5160
 Red. masses --      4.4310                 2.4121                 2.3912
 Frc consts  --      0.0234                 0.0186                 0.0274
 IR Inten    --      1.7432                 0.4004                 0.1226

                      7                      8                      9
                      A                      A                      A
 Frequencies --    164.2743               188.1396               223.8202
 Red. masses --      4.9819                 3.1252                 1.2801
 Frc consts  --      0.0792                 0.0652                 0.0378
 IR Inten    --      1.1860                 1.8077                 2.3590

                     10                     11                     12
                      A                      A                      A
 Frequencies --    232.9484               241.5538               257.5812
 Red. masses --      1.5661                 1.6075                 1.4129
 Frc consts  --      0.0501                 0.0553                 0.0552
 IR Inten    --      0.1663                 0.4186                 5.4800

                     13                     14                     15
                      A                      A                      A
 Frequencies --    280.3195               291.0260               310.5811
 Red. masses --      1.1293                 2.4499                 1.8677
 Frc consts  --      0.0523                 0.1223                 0.1061
 IR Inten    --     86.4224                 2.6775                 0.3440

                     16                     17                     18
                      A                      A                      A
 Frequencies --    317.3460               344.9880               392.4053
 Red. masses --      2.7399                 2.8357                 2.4353
 Frc consts  --      0.1626                 0.1988                 0.2209
 IR Inten    --     37.3970                12.5630                 1.9202

                     19                     20                     21
                      A                      A                      A
 Frequencies --    406.1773               433.8805               478.4841
 Red. masses --      2.1910                 1.8922                 2.7346
 Frc consts  --      0.2130                 0.2099                 0.3689
 IR Inten    --      1.4993                 1.0006                 2.6302

                     22                     23                     24
                      A                      A                      A
 Frequencies --    516.6506               571.0574               601.8919
 Red. masses --      2.4862                12.7675                 2.7950
 Frc consts  --      0.3910                 2.4531                 0.5966
 IR Inten    --     13.3096                 9.2978                 3.4416

                     25                     26                     27
                      A                      A                      A
 Frequencies --    651.0176               729.1419               795.9347
 Red. masses --      7.3712                 3.0111                 1.2924
 Frc consts  --      1.8407                 0.9432                 0.4824
 IR Inten    --     14.7147                 1.4335                 0.3907

                     28                     29                     30
                      A                      A                      A
 Frequencies --    813.4549               855.0944               884.9546
 Red. masses --      2.4086                 2.8466                 1.7766
 Frc consts  --      0.9390                 1.2263                 0.8197
 IR Inten    --      1.0635                 3.7213                10.4328

                     31                     32                     33
                      A                      A                      A
 Frequencies --    916.6012               944.9823               949.6909
 Red. masses --      1.9832                 1.3305                 1.6544
 Frc consts  --      0.9817                 0.7000                 0.8791
 IR Inten    --      3.4194                 1.1885                14.1123

                     34                     35                     36
                      A                      A                      A
 Frequencies --    977.1074               985.1354               997.4741
 Red. masses --      1.6689                 1.9632                 1.9726
 Frc consts  --      0.9388                 1.1226                 1.1563
 IR Inten    --     18.0568                21.3437                 8.7130

                     37                     38                     39
                      A                      A                      A
 Frequencies --   1032.2893              1064.1579              1077.0362
 Red. masses --      1.8895                 2.4973                 2.3781
 Frc consts  --      1.1863                 1.6662                 1.6253
 IR Inten    --     11.6075                 8.4189                 3.2248

                     40                     41                     42
                      A                      A                      A
 Frequencies --   1103.7110              1121.9625              1158.6777
 Red. masses --      1.7472                 1.7539                 2.0483
 Frc consts  --      1.2540                 1.3008                 1.6202
 IR Inten    --      5.1963                10.5813                11.6757

                     43                     44                     45
                      A                      A                      A
 Frequencies --   1193.1361              1202.8758              1211.3945
 Red. masses --      2.1041                 2.2522                 1.7628
 Frc consts  --      1.7648                 1.9200                 1.5242
 IR Inten    --     12.7766                19.9314                 7.6607

                     46                     47                     48
                      A                      A                      A
 Frequencies --   1242.7740              1278.8103              1306.4408
 Red. masses --      1.1581                 1.2938                 1.3017
 Frc consts  --      1.0538                 1.2466                 1.3090
 IR Inten    --     21.0661                12.4551                43.4920

                     49                     50                     51
                      A                      A                      A
 Frequencies --   1332.2643              1346.4422              1352.5651
 Red. masses --      1.3352                 5.3945                 1.3594
 Frc consts  --      1.3963                 5.7620                 1.4652
 IR Inten    --     43.1736               107.3123                 5.4473

                     52                     53                     54
                      A                      A                      A
 Frequencies --   1364.7352              1394.7442              1395.9744
 Red. masses --      1.3444                 1.3660                 1.4777
 Frc consts  --      1.4753                 1.5657                 1.6966
 IR Inten    --     18.7089                 5.7401                 2.7944

                     55                     56                     57
                      A                      A                      A
 Frequencies --   1406.6953              1418.1660              1430.1242
 Red. masses --      1.3373                 1.4472                 1.2745
 Frc consts  --      1.5591                 1.7148                 1.5358
 IR Inten    --     59.5173                 8.2576                 2.4387

                     58                     59                     60
                      A                      A                      A
 Frequencies --   1439.8747              1444.7202              1451.7345
 Red. masses --      1.2717                 1.5880                 1.2448
 Frc consts  --      1.5534                 1.9529                 1.5457
 IR Inten    --      2.8461                 7.6865                 2.0264

                     61                     62                     63
                      A                      A                      A
 Frequencies --   1505.7858              1508.5319              1512.4674
 Red. masses --      1.0767                 1.0867                 1.0860
 Frc consts  --      1.4384                 1.4570                 1.4637
 IR Inten    --      9.1323                 1.9165                 7.4123

                     64                     65                     66
                      A                      A                      A
 Frequencies --   1519.8340              1527.1435              1530.1679
 Red. masses --      1.0435                 1.0619                 1.0643
 Frc consts  --      1.4201                 1.4591                 1.4682
 IR Inten    --      0.8536                 5.5300                 4.5851

                     67                     68                     69
                      A                      A                      A
 Frequencies --   1534.0636              1534.9977              1542.7060
 Red. masses --      1.0537                 1.0475                 1.0603
 Frc consts  --      1.4610                 1.4542                 1.4867
 IR Inten    --      6.6767                 8.2269                 5.2570

                     70                     71                     72
                      A                      A                      A
 Frequencies --   1545.2165              2264.1239              2990.0130
 Red. masses --      1.0578                13.4495                 1.0727
 Frc consts  --      1.4881                40.6217                 5.6505
 IR Inten    --      3.5900               577.7060                21.7623

                     73                     74                     75
                      A                      A                      A
 Frequencies --   3030.2962              3033.2454              3034.7592
 Red. masses --      1.0638                 1.0612                 1.0500
 Frc consts  --      5.7555                 5.7526                 5.6976
 IR Inten    --      9.4694                31.2042                15.5570

                     76                     77                     78
                      A                      A                      A
 Frequencies --   3040.5636              3045.7830              3054.2383
 Red. masses --      1.0471                 1.0669                 1.0636
 Frc consts  --      5.7036                 5.8316                 5.8459
 IR Inten    --     60.2105                29.5768                19.7281

                     79                     80                     81
                      A                      A                      A
 Frequencies --   3057.3763              3081.4020              3092.1048
 Red. masses --      1.0418                 1.1001                 1.0982
 Frc consts  --      5.7376                 6.1543                 6.1862
 IR Inten    --     17.5280                41.6939                20.2931

                     82                     83                     84
                      A                      A                      A
 Frequencies --   3096.5168              3099.4191              3103.8782
 Red. masses --      1.0911                 1.0968                 1.0983
 Frc consts  --      6.1640                 6.2080                 6.2344
 IR Inten    --      4.1663                12.4236                51.0538

                     85                     86                     87
                      A                      A                      A
 Frequencies --   3105.3238              3111.7057              3119.2411
 Red. masses --      1.0967                 1.1021                 1.0999
 Frc consts  --      6.2310                 6.2873                 6.3050
 IR Inten    --     38.1106                43.3916                57.0226

                     88                     89                     90
                      A                      A                      A
 Frequencies --   3143.2008              3155.7160              3737.2845
 Red. masses --      1.1014                 1.0972                 1.0660
 Frc consts  --      6.4112                 6.4375                 8.7725
 IR Inten    --     21.8967                13.5915                 7.8970

 - Thermochemistry -
 -------------------
 Temperature   298.150 Kelvin.  Pressure   1.00000 Atm.
 Atom     1 has atomic number  6 and mass  12.00000

 Molecular mass:   185.15281 amu.
 Principal axes and moments of inertia in atomic units:
                           1         2         3
     Eigenvalues --  1999.762393621.180794797.12453
           X            0.99740   0.07184  -0.00595
           Y           -0.07173   0.99728   0.01708
           Z            0.00716  -0.01661   0.99984
 This molecule is an asymmetric top.
 Rotational symmetry number  1.
 Warning -- assumption of classical behavior for rotation
           may cause significant error
 Rotational temperatures (Kelvin)      0.04331     0.02392     0.01806
 Rotational constants (GHZ):           0.90248     0.49838     0.37621
 Zero-point vibrational energy     745488.5 (Joules/Mol)
                                  178.17603 (Kcal/Mol)
 Warning -- explicit consideration of  24 degrees of freedom as
           vibrations may cause significant error
 Vibrational temperatures:     30.94    45.05    75.38   136.19   164.65
          (Kelvin)            200.73   236.35   270.69   322.03   335.16
                              347.54   370.60   403.32   418.72   446.86
                              456.59   496.36   564.58   584.40   624.26
                              688.43   743.34   821.62   865.99   936.67
                             1049.07  1145.17  1170.38  1230.29  1273.25
                             1318.78  1359.62  1366.39  1405.84  1417.39
                             1435.14  1485.23  1531.09  1549.61  1587.99
                             1614.25  1667.08  1716.66  1730.67  1742.93
                             1788.07  1839.92  1879.68  1916.83  1937.23
                             1946.04  1963.55  2006.73  2008.50  2023.92
                             2040.42  2057.63  2071.66  2078.63  2088.72
                             2166.49  2170.44  2176.10  2186.70  2197.22
                             2201.57  2207.18  2208.52  2219.61  2223.22
                             3257.57  4301.96  4359.92  4364.16  4366.34
                             4374.69  4382.20  4394.37  4398.88  4433.45
                             4448.85  4455.20  4459.37  4465.79  4467.87
                             4477.05  4487.89  4522.36  4540.37  5377.12

 Zero-point correction=                           0.283942 (Hartree/Particle)
 Thermal correction to Energy=                    0.299579
 Thermal correction to Enthalpy=                  0.300523
 Thermal correction to Gibbs Free Energy=         0.240238
 Sum of electronic and zero-point Energies=           -593.581291
 Sum of electronic and thermal Energies=              -593.565653
 Sum of electronic and thermal Enthalpies=            -593.564709
 Sum of electronic and thermal Free Energies=         -593.624994

                     E (Thermal)             CV                S
                      KCal/Mol        Cal/Mol-Kelvin    Cal/Mol-Kelvin
 Total                  187.989             57.230            126.880
 Electronic               0.000              0.000              0.000
 Translational            0.889              2.981             41.554
 Rotational               0.889              2.981             31.919
 Vibrational            186.211             51.269             53.407
 Vibration     1          0.593              1.985              6.490
 Vibration     2          0.594              1.983              5.745
 Vibration     3          0.596              1.977              4.725
 Vibration     4          0.603              1.953              3.561
 Vibration     5          0.607              1.937              3.192
 Vibration     6          0.615              1.914              2.811
 Vibration     7          0.623              1.886              2.500
 Vibration     8          0.633              1.856              2.246
 Vibration     9          0.649              1.805              1.928
 Vibration    10          0.654              1.791              1.856
 Vibration    11          0.658              1.777              1.791
 Vibration    12          0.667              1.750              1.678
 Vibration    13          0.680              1.710              1.532
 Vibration    14          0.687              1.690              1.468
 Vibration    15          0.699              1.654              1.359
 Vibration    16          0.704              1.640              1.324
 Vibration    17          0.723              1.585              1.189
 Vibration    18          0.760              1.486              0.991
 Vibration    19          0.771              1.457              0.940
 Vibration    20          0.795              1.396              0.846
 Vibration    21          0.835              1.298              0.714
 Vibration    22          0.872              1.213              0.618
 Vibration    23          0.927              1.094              0.502
 Vibration    24          0.960              1.028              0.446

 Optimization completed.
    -- Stationary point found.
 Normal termination of Gaussian 16 at Wed Dec  9 22:45:00 2020.

 ----------------------------------------------------------------------
 # B3LYP/6-311++G(d,p) empiricaldispersion=gd3bj scf=xqc pop=npa geom=c
 heck
 ----------------------------------------------------------------------

 ---------------------------------------
 CID_150389332_JID_3187_Energie_neutraal
 ---------------------------------------
 Structure from the checkpoint file:  "JID_3187.chk"
 Charge =  0 Multiplicity = 1

 SCF Done:  E(RB3LYP) =  -594.041622524     A.U. after   15 cycles
 Normal termination of Gaussian 16 at Wed Dec  9 22:50:01 2020.

 ----------------------------------------------------------------------
 # B3LYP/6-311++G(d,p) empiricaldispersion=gd3bj scf=xqc pop=npa geom=c
 heck
 ----------------------------------------------------------------------

 -------------------------------------
 CID_150389332_JID_3187_Energie_kation
 -------------------------------------
 Structure from the checkpoint file:  "JID_3187.chk"
 Charge =  1 Multiplicity = 2

 SCF Done:  E(UB3LYP) =  -593.711078370     A.U. after   24 cycles
 Normal termination of Gaussian 16 at Wed Dec  9 23:01:45 2020.
 Gaussian 16:  ES64L-G16RevA.03 25-Dec-2016

 ----------------------------------------------------------------------
 # B3LYP/6-311++G(d,p) empiricaldispersion=gd3bj scf=xqc pop=npa geom=c
 heck
 ----------------------------------------------------------------------

 ------------------------------------
 CID_150389332_JID_3187_Energie_anion
 ------------------------------------
 Structure from the checkpoint file:  "JID_3187.chk"
 Charge = -1 Multiplicity = 2

                         Standard orientation:
 ---------------------------------------------------------------------
 Center     Atomic      Atomic             Coordinates (Angstroms)
 Number     Number       Type             X           Y           Z
 ---------------------------------------------------------------------
      1          6           0       -0.069408    2.790749    1.272616
      2          6           0       -0.412018    1.305678    1.119426
      3          6           0       -0.511030    0.813109   -0.333233
      4          6           0        0.776719    1.112683   -1.144442
      5          6           0        2.126188    0.726389   -0.544114
      6          7           0        2.295557   -0.748455   -0.526344
      7          7           0        3.260206   -1.161970    0.121642
      8          7           0        4.115014   -1.662359    0.692148
      9          6           0       -0.851524   -0.690325   -0.409488
     10          6           0       -2.044254   -1.226676    0.404207
     11          6           0       -3.395675   -0.637916   -0.021671
     12          6           0       -2.074789   -2.758433    0.299064
     13          8           0       -1.560256    1.605972   -0.925352
     14          1           0        0.940370    3.027002    0.918697
     15          1           0       -0.124210    3.088988    2.325085
     16          1           0       -0.775457    3.403470    0.705445
     17          1           0        0.317469    0.683811    1.653956
     18          1           0       -1.380023    1.122073    1.595406
     19          1           0        0.687837    0.642358   -2.132962
     20          1           0        0.799683    2.193924   -1.314694
     21          1           0        2.925532    1.165447   -1.155965
     22          1           0        2.232507    1.127123    0.471023
     23          1           0       -1.013211   -0.938689   -1.472075
     24          1           0        0.046011   -1.246641   -0.119853
     25          1           0       -1.880622   -0.976516    1.461336
     26          1           0       -3.596177   -0.865912   -1.077889
     27          1           0       -4.210252   -1.075760    0.567484
     28          1           0       -3.420828    0.447307    0.093344
     29          1           0       -1.136937   -3.204643    0.649762
     30          1           0       -2.893783   -3.177643    0.894863
     31          1           0       -2.225418   -3.074455   -0.741430
     32          1           0       -1.771142    1.208921   -1.785034
 ---------------------------------------------------------------------

 SCF Done:  E(UB3LYP) =  -594.032250477     A.U. after   31 cycles

 The electronic state is 2-A.
 Alpha  occ. eigenvalues --  -19.01368 -14.34171 -14.24400 -14.23271 -10.12384
 Alpha  occ. eigenvalues --  -10.10358 -10.07207 -10.06399 -10.06227 -10.05903
 Alpha  occ. eigenvalues --  -10.05629 -10.05461 -10.05148  -1.00967  -0.91840
 Alpha  occ. eigenvalues --   -0.85290  -0.71544  -0.69167  -0.65715  -0.61205
 Alpha  occ. eigenvalues --   -0.58212  -0.55431  -0.53216  -0.47367  -0.45488
 Alpha  occ. eigenvalues --   -0.42821  -0.40200  -0.38863  -0.38164  -0.36812
 Alpha  occ. eigenvalues --   -0.35699  -0.33547  -0.33181  -0.32409  -0.31532
 Alpha  occ. eigenvalues --   -0.30681  -0.30430  -0.28631  -0.28259  -0.27647
 Alpha  occ. eigenvalues --   -0.27158  -0.25463  -0.24345  -0.24144  -0.23776
 Alpha  occ. eigenvalues --   -0.22678  -0.21946  -0.20567  -0.18210  -0.16463
 Alpha  occ. eigenvalues --   -0.13191   0.04588
 Alpha virt. eigenvalues --    0.06622   0.07303   0.07418   0.08507   0.09081
 Alpha virt. eigenvalues --    0.09515   0.10122   0.10473   0.11243   0.11840
 Alpha virt. eigenvalues --    0.12170   0.12286   0.12813   0.13055   0.13487

  Beta  occ. eigenvalues --  -19.01350 -14.33940 -14.24068 -14.23332 -10.12384
  Beta  occ. eigenvalues --  -10.10271 -10.07202 -10.06385 -10.06200 -10.05887
  Beta  occ. eigenvalues --  -10.05605 -10.05442 -10.05126  -1.00503  -0.91806
  Beta  occ. eigenvalues --   -0.85054  -0.71509  -0.69120  -0.65635  -0.61145
  Beta  occ. eigenvalues --   -0.58173  -0.55303  -0.53130  -0.47302  -0.45422
  Beta  occ. eigenvalues --   -0.42725  -0.40103  -0.38366  -0.37664  -0.36722
  Beta  occ. eigenvalues --   -0.35554  -0.33492  -0.32761  -0.32118  -0.31455
  Beta  occ. eigenvalues --   -0.30541  -0.30375  -0.28576  -0.28198  -0.27614
  Beta  occ. eigenvalues --   -0.27046  -0.25427  -0.24314  -0.24046  -0.23734
  Beta  occ. eigenvalues --   -0.22633  -0.21914  -0.20524  -0.17746  -0.16433
  Beta  occ. eigenvalues --   -0.13111
  Beta virt. eigenvalues --    0.06732   0.07516   0.08057   0.08560   0.09457
  Beta virt. eigenvalues --    0.09565   0.09920   0.10351   0.10803   0.11448
  Beta virt. eigenvalues --    0.12120   0.12494   0.12527   0.12983   0.13237

 Mulliken charges and spin densities:
               1          2
     1  C    0.550278  -1.122419
     2  C   -0.992215   0.455098
     3  C    0.348171   0.327709
     4  C    0.282242  -0.510151
     5  C    0.484410  -1.158333
     6  N   -1.096406   0.783926
     7  N    0.624705  -0.019655
     8  N    0.213232  -0.362708
     9  C    0.085496  -1.122671
    10  C   -0.668364   1.338596
    11  C    0.338613  -1.090180
    12  C   -0.088616  -0.576789
    13  O   -0.166235   0.017585
    14  H   -0.114157   0.241167
    15  H   -0.131182   0.262812
    16  H    0.011131   0.164340
    17  H   -0.003947   0.156687
    18  H    0.151449   0.005644
    19  H   -0.378097   0.570289
    20  H    0.082213   0.109628
    21  H   -0.405514   0.596622
    22  H    0.041796   0.153776
    23  H   -0.083136   0.245031
    24  H    0.171066   0.024664
    25  H   -0.047334   0.191698
    26  H   -0.162028   0.310204
    27  H   -0.122332   0.247224
    28  H    0.117731   0.054859
    29  H   -0.025469   0.163728
    30  H   -0.045257   0.185100
    31  H    0.005173   0.123378
    32  H    0.022581   0.233140
 Sum of Mulliken charges =  -1.00000   1.00000

 Dipole moment (field-independent basis, Debye):
    X=             -2.0268    Y=              0.2779    Z=              1.3524  Tot=              2.4523
 Quadrupole moment (field-independent basis, Debye-Ang):
   XX=           -147.9541   YY=           -125.8726   ZZ=           -113.4240
   XY=              3.0896   XZ=             -2.0738   YZ=              1.7292

 Summary of Natural Population Analysis:

                                       Natural Population
                Natural  -----------------------------------------------
    Atom  No    Charge         Core      Valence    Rydberg      Total
 -----------------------------------------------------------------------
      C    1   -0.28653      0.99966     2.28230    0.00456     3.28653
      C    2   -0.19878      0.99957     2.19084    0.00836     3.19878
      C    3    0.13712      0.99951     1.84694    0.01643     2.86288
      C    4   -0.20590      0.99957     2.19354    0.01279     3.20590
      C    5   -0.08872      0.99958     2.07770    0.01145     3.08872
      N    6   -0.21232      0.99969     2.69828    0.01435     3.71232
      N    7    0.13639      0.99970     2.34851    0.01539     3.36361
      N    8   -0.02402      0.99982     2.51054    0.01366     3.52402
      C    9   -0.20597      0.99956     2.19422    0.01220     3.20597
      C   10   -0.11444      0.99961     2.10660    0.00823     3.11444
      C   11   -0.28767      0.99965     2.28276    0.00526     3.28767
      C   12   -0.28012      0.99965     2.27569    0.00478     3.28012
      O   13   -0.38264      0.99989     3.37586    0.00689     4.38264
      H   14    0.09572      0.00000     0.40310    0.00118     0.40428
      H   15    0.09598      0.00000     0.40304    0.00098     0.40402
      H   16    0.10465      0.00000     0.39399    0.00136     0.39535
      H   17    0.09918      0.00000     0.39945    0.00137     0.40082
      H   18    0.10130      0.00000     0.39722    0.00148     0.39870
      H   19    0.10302      0.00000     0.39504    0.00194     0.39698
      H   20    0.10805      0.00000     0.39062    0.00133     0.39195
      H   21    0.09440      0.00000     0.40385    0.00175     0.40560
      H   22    0.09083      0.00000     0.40757    0.00160     0.40917
      H   23    0.09425      0.00000     0.40422    0.00153     0.40575
      H   24    0.11770      0.00000     0.38052    0.00177     0.38230
      H   25    0.09174      0.00000     0.40634    0.00192     0.40826
      H   26    0.09397      0.00000     0.40481    0.00122     0.40603
      H   27    0.09371      0.00000     0.40527    0.00102     0.40629
      H   28    0.10936      0.00000     0.38942    0.00122     0.39064
      H   29    0.09910      0.00000     0.39997    0.00094     0.40090
      H   30    0.09574      0.00000     0.40335    0.00090     0.40426
      H   31    0.09550      0.00000     0.40345    0.00105     0.40450
      H   32    0.22941      0.00000     0.26739    0.00320     0.27059
 =======================================================================
   * Total *   -0.00000     12.99547    37.84242    0.16211    51.00000

 Normal termination of Gaussian 16 at Wed Dec  9 23:16:04 2020.
