 Gaussian 16, Revision A.03,

 -----------------------------------------------------------
 # opt freq B3LYP/6-31G(d) empiricaldispersion=gd3bj scf=xqc
 -----------------------------------------------------------

 -------------------------------
 CID_103275859_JID_4728_neutraal
 -------------------------------
 Symbolic Z-matrix:
 Charge =  0 Multiplicity = 1

 SCF Done:  E(RB3LYP) =  -603.565260226     A.U. after   13 cycles
 SCF Done:  E(RB3LYP) =  -603.569862289     A.U. after   11 cycles
 SCF Done:  E(RB3LYP) =  -603.571657964     A.U. after   11 cycles
 SCF Done:  E(RB3LYP) =  -603.572888933     A.U. after   13 cycles
 SCF Done:  E(RB3LYP) =  -603.573421668     A.U. after   11 cycles
 SCF Done:  E(RB3LYP) =  -603.574070937     A.U. after   11 cycles
 SCF Done:  E(RB3LYP) =  -603.574174650     A.U. after   10 cycles
 SCF Done:  E(RB3LYP) =  -603.574405452     A.U. after   11 cycles
 SCF Done:  E(RB3LYP) =  -603.574429581     A.U. after    9 cycles
 SCF Done:  E(RB3LYP) =  -603.574500012     A.U. after   11 cycles
 SCF Done:  E(RB3LYP) =  -603.574502960     A.U. after    9 cycles
 SCF Done:  E(RB3LYP) =  -603.574507067     A.U. after    9 cycles
 SCF Done:  E(RB3LYP) =  -603.574507431     A.U. after    8 cycles
 SCF Done:  E(RB3LYP) =  -603.574507579     A.U. after    7 cycles
 SCF Done:  E(RB3LYP) =  -603.574507574     A.U. after    7 cycles
 SCF Done:  E(RB3LYP) =  -603.574507583     A.U. after    6 cycles
 Optimization completed.
    -- Stationary point found.
 Normal termination of Gaussian 16 at Thu Dec 10 10:35:59 2020.

 --------------------------------------------------------------------
 #N Geom=AllCheck Guess=TCheck SCRF=Check GenChk RB3LYP/6-31G(d) Freq
 --------------------------------------------------------------------

 Structure from the checkpoint file:  "JID_4728.chk"
 -------------------------------
 CID_103275859_JID_4728_neutraal
 -------------------------------
 Charge =  0 Multiplicity = 1

 SCF Done:  E(RB3LYP) =  -603.574507583     A.U. after    1 cycles

  Exact polarizability: 155.649  -0.321 139.531  -1.387  -1.475 123.043
 Approx polarizability: 186.635   0.549 185.554  -2.695  -1.539 184.275

                      1                      2                      3
                      A                      A                      A
 Frequencies --     26.0551                29.3996                50.9118
 Red. masses --      3.1278                 3.0519                 2.9399
 Frc consts  --      0.0013                 0.0016                 0.0045
 IR Inten    --      0.1633                 0.1198                 0.1474

                      4                      5                      6
                      A                      A                      A
 Frequencies --     61.0106                71.6439                79.7648
 Red. masses --      2.5647                 2.4361                 2.6407
 Frc consts  --      0.0056                 0.0074                 0.0099
 IR Inten    --      0.0367                 0.0292                 0.1474

                      7                      8                      9
                      A                      A                      A
 Frequencies --     97.5700               131.2628               155.2365
 Red. masses --      2.5574                 3.2646                 1.5744
 Frc consts  --      0.0143                 0.0331                 0.0224
 IR Inten    --      0.1957                 2.6694                 1.3531

                     10                     11                     12
                      A                      A                      A
 Frequencies --    178.6681               212.4866               227.6654
 Red. masses --      2.6488                 1.6276                 1.1106
 Frc consts  --      0.0498                 0.0433                 0.0339
 IR Inten    --      0.6862                 0.4128                 0.0267

                     13                     14                     15
                      A                      A                      A
 Frequencies --    237.9247               242.6174               258.9623
 Red. masses --      1.1307                 1.2776                 1.5228
 Frc consts  --      0.0377                 0.0443                 0.0602
 IR Inten    --      0.1431                 0.3533                 0.2235

                     16                     17                     18
                      A                      A                      A
 Frequencies --    266.9524               280.5635               308.0078
 Red. masses --      2.5061                 1.9198                 1.7988
 Frc consts  --      0.1052                 0.0890                 0.1005
 IR Inten    --      0.6596                 1.7967                 0.3467

                     19                     20                     21
                      A                      A                      A
 Frequencies --    332.1984               358.3951               382.5671
 Red. masses --      2.2466                 2.4020                 2.1669
 Frc consts  --      0.1461                 0.1818                 0.1869
 IR Inten    --      3.1445                 0.1285                 0.4931

                     22                     23                     24
                      A                      A                      A
 Frequencies --    402.8197               436.5963               448.5185
 Red. masses --      2.2020                 2.4254                 2.7119
 Frc consts  --      0.2105                 0.2724                 0.3214
 IR Inten    --      1.7634                 1.8293                 6.7638

                     25                     26                     27
                      A                      A                      A
 Frequencies --    472.8585               520.3733               596.2692
 Red. masses --      2.5473                 2.8564                 2.4743
 Frc consts  --      0.3356                 0.4557                 0.5183
 IR Inten    --      2.8488                 2.4673                 2.6787

                     28                     29                     30
                      A                      A                      A
 Frequencies --    663.7863               758.9888               781.7960
 Red. masses --      2.6204                 1.4914                 1.7402
 Frc consts  --      0.6803                 0.5062                 0.6267
 IR Inten    --     14.7696                 6.4344                25.1644

                     31                     32                     33
                      A                      A                      A
 Frequencies --    806.4732               818.7362               848.6586
 Red. masses --      1.2788                 1.3273                 1.7917
 Frc consts  --      0.4900                 0.5242                 0.7603
 IR Inten    --      3.8679                 5.0867                23.3968

                     34                     35                     36
                      A                      A                      A
 Frequencies --    857.9239               898.6237               916.5944
 Red. masses --      1.6824                 2.3893                 2.0368
 Frc consts  --      0.7296                 1.1368                 1.0082
 IR Inten    --      0.8354                 5.3317                 1.0899

                     37                     38                     39
                      A                      A                      A
 Frequencies --    934.1287               940.9046               965.4176
 Red. masses --      1.9865                 1.2444                 1.6335
 Frc consts  --      1.0213                 0.6491                 0.8970
 IR Inten    --      8.4529                 1.2737                 9.1516

                     40                     41                     42
                      A                      A                      A
 Frequencies --    981.8585               993.8702              1021.1778
 Red. masses --      1.4508                 1.6012                 1.9197
 Frc consts  --      0.8241                 0.9319                 1.1794
 IR Inten    --      2.6081                 5.9643                 7.4414

                     43                     44                     45
                      A                      A                      A
 Frequencies --   1034.1091              1043.4017              1065.2134
 Red. masses --      1.4445                 2.1162                 2.3331
 Frc consts  --      0.9101                 1.3574                 1.5597
 IR Inten    --      3.2909                 9.0162                18.6811

                     46                     47                     48
                      A                      A                      A
 Frequencies --   1082.7032              1105.1065              1128.0874
 Red. masses --      2.1916                 2.2026                 2.3756
 Frc consts  --      1.5137                 1.5849                 1.7812
 IR Inten    --     24.0708                19.6005                21.5616

                     49                     50                     51
                      A                      A                      A
 Frequencies --   1144.2449              1163.0735              1165.6687
 Red. masses --      1.9467                 2.2704                 2.6191
 Frc consts  --      1.5017                 1.8095                 2.0968
 IR Inten    --     13.6197                 9.8159               110.7678

                     52                     53                     54
                      A                      A                      A
 Frequencies --   1178.8160              1189.2285              1207.8815
 Red. masses --      2.1977                 2.2269                 1.7411
 Frc consts  --      1.7993                 1.8556                 1.4967
 IR Inten    --     30.7700                20.5192                 9.3405

                     55                     56                     57
                      A                      A                      A
 Frequencies --   1212.9637              1228.0969              1278.0494
 Red. masses --      2.0265                 2.1136                 1.1504
 Frc consts  --      1.7567                 1.8781                 1.1071
 IR Inten    --     43.5286                 2.5550                12.1592

                     58                     59                     60
                      A                      A                      A
 Frequencies --   1291.1706              1312.2827              1318.5645
 Red. masses --      1.2401                 1.2899                 1.2224
 Frc consts  --      1.2181                 1.3088                 1.2522
 IR Inten    --      1.1727                 6.5961                 3.4324

                     61                     62                     63
                      A                      A                      A
 Frequencies --   1334.0164              1345.6423              1355.7241
 Red. masses --      1.1688                 1.3033                 1.2060
 Frc consts  --      1.2255                 1.3904                 1.3059
 IR Inten    --      1.2238                21.6216                 4.7578

                     64                     65                     66
                      A                      A                      A
 Frequencies --   1369.4237              1388.7331              1398.9418
 Red. masses --      1.4140                 1.5236                 1.3425
 Frc consts  --      1.5623                 1.7313                 1.5480
 IR Inten    --      1.8037                 5.8596                12.8473

                     67                     68                     69
                      A                      A                      A
 Frequencies --   1407.7928              1411.1047              1421.2367
 Red. masses --      1.3387                 1.3143                 1.2914
 Frc consts  --      1.5632                 1.5419                 1.5369
 IR Inten    --      8.7658                11.9851                 2.9876

                     70                     71                     72
                      A                      A                      A
 Frequencies --   1425.1487              1436.4681              1439.9277
 Red. masses --      1.4119                 1.3144                 1.2619
 Frc consts  --      1.6896                 1.5980                 1.5415
 IR Inten    --     19.4942                 3.2028                17.4073

                     73                     74                     75
                      A                      A                      A
 Frequencies --   1440.1726              1444.6937              1447.3885
 Red. masses --      1.2478                 1.2718                 1.3051
 Frc consts  --      1.5248                 1.5640                 1.6109
 IR Inten    --      5.9308                 9.2667                17.9773

                     76                     77                     78
                      A                      A                      A
 Frequencies --   1511.2671              1517.3837              1518.2802
 Red. masses --      1.1082                 1.0617                 1.0541
 Frc consts  --      1.4912                 1.4403                 1.4317
 IR Inten    --     10.0628                 5.0815                 6.1069

                     79                     80                     81
                      A                      A                      A
 Frequencies --   1519.5810              1520.2469              1524.8947
 Red. masses --      1.0572                 1.0531                 1.0533
 Frc consts  --      1.4384                 1.4340                 1.4430
 IR Inten    --      1.5999                 1.4567                 4.1221

                     82                     83                     84
                      A                      A                      A
 Frequencies --   1528.7946              1532.8212              1534.0496
 Red. masses --      1.0858                 1.0609                 1.0559
 Frc consts  --      1.4951                 1.4686                 1.4641
 IR Inten    --      7.4902                 9.7431                 4.7950

                     85                     86                     87
                      A                      A                      A
 Frequencies --   1535.4927              1537.7555              1542.8504
 Red. masses --      1.0633                 1.0645                 1.0977
 Frc consts  --      1.4770                 1.4831                 1.5395
 IR Inten    --      6.6608                 0.5775                10.6659

                     88                     89                     90
                      A                      A                      A
 Frequencies --   1546.5883              1549.2636              1561.1606
 Red. masses --      1.0682                 1.0821                 1.0755
 Frc consts  --      1.5054                 1.5303                 1.5444
 IR Inten    --     10.6190                 1.5910                14.8292

                     91                     92                     93
                      A                      A                      A
 Frequencies --   2905.9187              2988.3154              2994.2236
 Red. masses --      1.0804                 1.0680                 1.0692
 Frc consts  --      5.3751                 5.6191                 5.6479
 IR Inten    --     57.4031                14.1901                90.9006

                     94                     95                     96
                      A                      A                      A
 Frequencies --   3028.1387              3033.4297              3036.5295
 Red. masses --      1.0694                 1.0424                 1.0601
 Frc consts  --      5.7778                 5.6512                 5.7590
 IR Inten    --     38.1552                20.0384                 5.4919

                     97                     98                     99
                      A                      A                      A
 Frequencies --   3039.7501              3044.4298              3045.3054
 Red. masses --      1.0676                 1.0387                 1.0842
 Frc consts  --      5.8121                 5.6720                 5.9243
 IR Inten    --     37.5211                28.6904                19.8908

                    100                    101                    102
                      A                      A                      A
 Frequencies --   3050.5460              3055.6317              3056.6757
 Red. masses --      1.0653                 1.0441                 1.0421
 Frc consts  --      5.8409                 5.7438                 5.7365
 IR Inten    --     12.2144                12.0783                48.8541

                    103                    104                    105
                      A                      A                      A
 Frequencies --   3060.4317              3077.9491              3087.5245
 Red. masses --      1.0701                 1.0935                 1.0972
 Frc consts  --      5.9054                 6.1036                 6.1626
 IR Inten    --     62.2554                26.1572                14.5549

                    106                    107                    108
                      A                      A                      A
 Frequencies --   3090.0441              3094.9627              3103.5793
 Red. masses --      1.0935                 1.0982                 1.0979
 Frc consts  --      6.1518                 6.1982                 6.2305
 IR Inten    --     18.4135                 6.9129                76.4361

                    109                    110                    111
                      A                      A                      A
 Frequencies --   3109.8659              3116.5500              3118.4985
 Red. masses --      1.1007                 1.1013                 1.1023
 Frc consts  --      6.2718                 6.3026                 6.3159
 IR Inten    --     47.1781                79.0796                12.9770

                    112                    113                    114
                      A                      A                      A
 Frequencies --   3122.8435              3124.5291              3132.7500
 Red. masses --      1.1011                 1.1006                 1.1036
 Frc consts  --      6.3268                 6.3308                 6.3812
 IR Inten    --     68.8811                11.8735                37.7222

                    115                    116                    117
                      A                      A                      A
 Frequencies --   3134.9669              3146.4058              3483.9332
 Red. masses --      1.1017                 1.0984                 1.0732
 Frc consts  --      6.3796                 6.4070                 7.6749
 IR Inten    --     37.0696                18.0611                 1.2390

 - Thermochemistry -
 -------------------
 Temperature   298.150 Kelvin.  Pressure   1.00000 Atm.
 Atom     1 has atomic number  6 and mass  12.00000

 Molecular mass:   201.20926 amu.
 Principal axes and moments of inertia in atomic units:
                           1         2         3
     Eigenvalues --  2306.280094818.684905929.25820
           X            0.99999  -0.00336   0.00402
           Y            0.00335   0.99999   0.00222
           Z           -0.00402  -0.00221   0.99999
 This molecule is an asymmetric top.
 Rotational symmetry number  1.
 Warning -- assumption of classical behavior for rotation
           may cause significant error
 Rotational temperatures (Kelvin)      0.03756     0.01797     0.01461
 Rotational constants (GHZ):           0.78253     0.37453     0.30438
 Zero-point vibrational energy    1008066.0 (Joules/Mol)
                                  240.93356 (Kcal/Mol)
 Warning -- explicit consideration of  27 degrees of freedom as
           vibrations may cause significant error
 Vibrational temperatures:     37.49    42.30    73.25    87.78   103.08
          (Kelvin)            114.76   140.38   188.86   223.35   257.06
                              305.72   327.56   342.32   349.07   372.59
                              384.08   403.67   443.15   477.96   515.65
                              550.43   579.57   628.16   645.32   680.34
                              748.70   857.90   955.04  1092.02  1124.83
                             1160.34  1177.98  1221.03  1234.36  1292.92
                             1318.77  1344.00  1353.75  1389.02  1412.68
                             1429.96  1469.25  1487.85  1501.22  1532.60
                             1557.77  1590.00  1623.07  1646.31  1673.40
                             1677.14  1696.05  1711.03  1737.87  1745.18
                             1766.96  1838.83  1857.71  1888.08  1897.12
                             1919.35  1936.08  1950.58  1970.30  1998.08
                             2012.77  2025.50  2030.26  2044.84  2050.47
                             2066.76  2071.73  2072.09  2078.59  2082.47
                             2174.38  2183.18  2184.47  2186.34  2187.30
                             2193.98  2199.59  2205.39  2207.16  2209.23
                             2212.49  2219.82  2225.20  2229.04  2246.16
                             4180.97  4299.52  4308.02  4356.82  4364.43
                             4368.89  4373.52  4380.26  4381.52  4389.06
                             4396.37  4397.87  4403.28  4428.48  4442.26
                             4445.88  4452.96  4465.36  4474.40  4484.02
                             4486.82  4493.08  4495.50  4507.33  4510.52
                             4526.98  5012.60

 Zero-point correction=                           0.383952 (Hartree/Particle)
 Thermal correction to Energy=                    0.402242
 Thermal correction to Enthalpy=                  0.403186
 Thermal correction to Gibbs Free Energy=         0.336584
 Sum of electronic and zero-point Energies=           -603.190556
 Sum of electronic and thermal Energies=              -603.172265
 Sum of electronic and thermal Enthalpies=            -603.171321
 Sum of electronic and thermal Free Energies=         -603.237923

                     E (Thermal)             CV                S
                      KCal/Mol        Cal/Mol-Kelvin    Cal/Mol-Kelvin
 Total                  252.411             66.764            140.176
 Electronic               0.000              0.000              0.000
 Translational            0.889              2.981             41.802
 Rotational               0.889              2.981             32.555
 Vibrational            250.633             60.802             65.819
 Vibration     1          0.593              1.985              6.109
 Vibration     2          0.593              1.984              5.870
 Vibration     3          0.595              1.977              4.782
 Vibration     4          0.597              1.973              4.424
 Vibration     5          0.598              1.968              4.108
 Vibration     6          0.600              1.963              3.897
 Vibration     7          0.603              1.951              3.502
 Vibration     8          0.612              1.922              2.927
 Vibration     9          0.620              1.897              2.607
 Vibration    10          0.629              1.869              2.342
 Vibration    11          0.644              1.822              2.022
 Vibration    12          0.651              1.799              1.897
 Vibration    13          0.656              1.783              1.818
 Vibration    14          0.659              1.775              1.784
 Vibration    15          0.668              1.748              1.669
 Vibration    16          0.672              1.734              1.616
 Vibration    17          0.680              1.710              1.530
 Vibration    18          0.698              1.658              1.373
 Vibration    19          0.714              1.611              1.249
 Vibration    20          0.733              1.558              1.129
 Vibration    21          0.752              1.507              1.029
 Vibration    22          0.768              1.464              0.952
 Vibration    23          0.797              1.390              0.837
 Vibration    24          0.808              1.364              0.800
 Vibration    25          0.830              1.310              0.730
 Vibration    26          0.875              1.205              0.609
 Vibration    27          0.954              1.040              0.456

                           ! Non-Optimized Parameters !
 Normal termination of Gaussian 16 at Thu Dec 10 10:50:45 2020.

 ----------------------------------------------------------------------
 # B3LYP/6-311++G(d,p) empiricaldispersion=gd3bj scf=xqc pop=npa geom=c
 heck
 ----------------------------------------------------------------------

 ---------------------------------------
 CID_103275859_JID_4728_Energie_neutraal
 ---------------------------------------
 Structure from the checkpoint file:  "JID_4728.chk"
 Charge =  0 Multiplicity = 1

 SCF Done:  E(RB3LYP) =  -603.749576377     A.U. after   14 cycles
 Normal termination of Gaussian 16 at Thu Dec 10 10:58:34 2020.

 ----------------------------------------------------------------------
 # B3LYP/6-311++G(d,p) empiricaldispersion=gd3bj scf=xqc pop=npa geom=c
 heck
 ----------------------------------------------------------------------

 -------------------------------------
 CID_103275859_JID_4728_Energie_kation
 -------------------------------------
 Structure from the checkpoint file:  "JID_4728.chk"
 Charge =  1 Multiplicity = 2

 SCF Done:  E(UB3LYP) =  -603.458053971     A.U. after   22 cycles
 Normal termination of Gaussian 16 at Thu Dec 10 11:16:16 2020.
 Gaussian 16:  ES64L-G16RevA.03 25-Dec-2016

 ----------------------------------------------------------------------
 # B3LYP/6-311++G(d,p) empiricaldispersion=gd3bj scf=xqc pop=npa geom=c
 heck
 ----------------------------------------------------------------------

 ------------------------------------
 CID_103275859_JID_4728_Energie_anion
 ------------------------------------
 Structure from the checkpoint file:  "JID_4728.chk"
 Charge = -1 Multiplicity = 2

                         Standard orientation:
 ---------------------------------------------------------------------
 Center     Atomic      Atomic             Coordinates (Angstroms)
 Number     Number       Type             X           Y           Z
 ---------------------------------------------------------------------
      1          6           0        3.792530   -0.155613   -1.746996
      2          6           0        2.698003    0.447548   -0.863463
      3          6           0        1.710196   -0.586515   -0.297150
      4          6           0        2.382414   -1.638216    0.603206
      5          6           0        3.099887   -1.066466    1.830291
      6          7           0        0.664587    0.099979    0.471228
      7          6           0       -0.419311    0.708858   -0.310385
      8          6           0       -1.439911   -0.343887   -0.755681
      9          8           0       -2.034839   -0.884977    0.415253
     10          6           0       -2.840280   -2.032292    0.194257
     11          6           0       -4.179795   -1.714867   -0.465397
     12          6           0       -1.049844    1.863071    0.503664
     13          6           0       -0.013768    2.968234    0.734497
     14          6           0       -2.316175    2.428840   -0.150756
     15          1           0        4.466454   -0.803397   -1.175584
     16          1           0        4.403106    0.629247   -2.206549
     17          1           0        3.362066   -0.758339   -2.556703
     18          1           0        3.140011    1.004285   -0.029616
     19          1           0        2.133644    1.184547   -1.448172
     20          1           0        1.284160   -1.137948   -1.159186
     21          1           0        1.605381   -2.343992    0.930651
     22          1           0        3.085148   -2.226354    0.001612
     23          1           0        2.431434   -0.425078    2.412479
     24          1           0        3.458583   -1.872078    2.480388
     25          1           0        3.968043   -0.463585    1.542734
     26          1           0        0.224818   -0.561058    1.110261
     27          1           0        0.014010    1.138778   -1.223210
     28          1           0       -2.195228    0.095326   -1.421123
     29          1           0       -0.931081   -1.143974   -1.318545
     30          1           0       -2.282661   -2.770171   -0.406340
     31          1           0       -3.004083   -2.466713    1.186111
     32          1           0       -4.051325   -1.326181   -1.480931
     33          1           0       -4.794810   -2.619875   -0.529550
     34          1           0       -4.723195   -0.967604    0.122407
     35          1           0       -1.332102    1.443251    1.478091
     36          1           0        0.251673    3.455642   -0.213786
     37          1           0       -0.406431    3.741194    1.405263
     38          1           0        0.897290    2.551306    1.170284
     39          1           0       -3.127080    1.694248   -0.170564
     40          1           0       -2.674565    3.303183    0.404252
     41          1           0       -2.120333    2.753127   -1.181818
 ---------------------------------------------------------------------

 SCF Done:  E(UB3LYP) =  -603.734596901     A.U. after   27 cycles

 The electronic state is 2-A.
 Alpha  occ. eigenvalues --  -19.02833 -14.19050 -10.11973 -10.11286 -10.09871
 Alpha  occ. eigenvalues --  -10.09727 -10.07450 -10.07082 -10.06457 -10.06406
 Alpha  occ. eigenvalues --  -10.06357 -10.06290 -10.06271 -10.05842  -0.94130
 Alpha  occ. eigenvalues --   -0.81214  -0.71641  -0.68082  -0.66274  -0.65344
 Alpha  occ. eigenvalues --   -0.61486  -0.58902  -0.57125  -0.53622  -0.52793
 Alpha  occ. eigenvalues --   -0.50662  -0.46000  -0.45318  -0.40535  -0.39382
 Alpha  occ. eigenvalues --   -0.38346  -0.37538  -0.36612  -0.36088  -0.34289
 Alpha  occ. eigenvalues --   -0.33251  -0.32522  -0.32290  -0.31473  -0.30355
 Alpha  occ. eigenvalues --   -0.29234  -0.28902  -0.28621  -0.28098  -0.27659
 Alpha  occ. eigenvalues --   -0.26807  -0.26246  -0.25645  -0.25090  -0.23834
 Alpha  occ. eigenvalues --   -0.23700  -0.22818  -0.22626  -0.21603  -0.21315
 Alpha  occ. eigenvalues --   -0.16700  -0.12591   0.04310
 Alpha virt. eigenvalues --    0.06054   0.06657   0.07024   0.07825   0.08225
 Alpha virt. eigenvalues --    0.08519   0.09126   0.09611   0.10171   0.10458
 Alpha virt. eigenvalues --    0.10587   0.11009   0.11690   0.11828   0.12262

  Beta  occ. eigenvalues --  -19.02827 -14.19048 -10.11951 -10.11266 -10.09863
  Beta  occ. eigenvalues --  -10.09719 -10.07449 -10.07067 -10.06448 -10.06392
  Beta  occ. eigenvalues --  -10.06317 -10.06274 -10.06240 -10.05836  -0.94116
  Beta  occ. eigenvalues --   -0.81202  -0.71624  -0.68064  -0.66232  -0.65315
  Beta  occ. eigenvalues --   -0.61447  -0.58875  -0.57084  -0.53573  -0.52742
  Beta  occ. eigenvalues --   -0.50597  -0.45967  -0.45277  -0.40498  -0.39357
  Beta  occ. eigenvalues --   -0.38319  -0.37515  -0.36582  -0.36066  -0.34268
  Beta  occ. eigenvalues --   -0.33221  -0.32487  -0.32260  -0.31451  -0.30320
  Beta  occ. eigenvalues --   -0.29210  -0.28877  -0.28594  -0.28050  -0.27625
  Beta  occ. eigenvalues --   -0.26769  -0.26220  -0.25619  -0.25065  -0.23809
  Beta  occ. eigenvalues --   -0.23680  -0.22794  -0.22601  -0.21583  -0.21290
  Beta  occ. eigenvalues --   -0.16668  -0.12582
  Beta virt. eigenvalues --    0.06247   0.06820   0.07146   0.07407   0.08343
  Beta virt. eigenvalues --    0.08541   0.08770   0.09477   0.09909   0.10455
  Beta virt. eigenvalues --    0.10830   0.10881   0.11311   0.11859   0.12043

 Mulliken charges and spin densities:
               1          2
     1  C    0.741078  -1.523491
     2  C   -1.194131   1.220004
     3  C    0.374150  -0.536486
     4  C    0.103262  -0.411669
     5  C   -0.004226  -0.551919
     6  N    0.288473  -0.021099
     7  C    0.157685  -0.456242
     8  C   -0.420414  -0.563460
     9  O   -0.039829   0.038429
    10  C   -0.454730   0.455306
    11  C    1.142350  -1.625820
    12  C   -0.301372   0.820992
    13  C   -0.228722  -0.352215
    14  C    0.103749  -0.735293
    15  H    0.009110   0.128278
    16  H   -0.220276   0.358902
    17  H   -0.368799   0.519080
    18  H    0.071917   0.084774
    19  H    0.136776  -0.019270
    20  H    0.245774  -0.095675
    21  H   -0.092625   0.233995
    22  H   -0.206649   0.355709
    23  H    0.030825   0.107734
    24  H   -0.051910   0.193474
    25  H    0.027220   0.102702
    26  H    0.388930  -0.127273
    27  H   -0.194267   0.355925
    28  H    0.204231  -0.044582
    29  H   -0.414586   0.547544
    30  H    0.098734   0.011442
    31  H   -0.360185   0.508912
    32  H   -0.475417   0.619633
    33  H   -0.506615   0.660781
    34  H    0.005767   0.128639
    35  H    0.084594   0.083345
    36  H    0.059306   0.061885
    37  H    0.073880   0.065425
    38  H    0.135310   0.023896
    39  H    0.167267  -0.024471
    40  H    0.023887   0.113918
    41  H   -0.139523   0.288239
 Sum of Mulliken charges =  -1.00000   1.00000

 Dipole moment (field-independent basis, Debye):
    X=              1.7354    Y=              3.7748    Z=              3.4359  Tot=              5.3913
 Quadrupole moment (field-independent basis, Debye-Ang):
   XX=           -180.3286   YY=           -142.5835   ZZ=           -135.3864
   XY=             -8.6465   XZ=              0.5053   YZ=             -0.9145

 Summary of Natural Population Analysis:

                                       Natural Population
                Natural  -----------------------------------------------
    Atom  No    Charge         Core      Valence    Rydberg      Total
 -----------------------------------------------------------------------
      C    1   -0.28733      0.99966     2.28275    0.00492     3.28733
      C    2   -0.19409      0.99961     2.18505    0.00943     3.19409
      C    3   -0.00646      0.99958     1.99418    0.01269     3.00646
      C    4   -0.19281      0.99962     2.18427    0.00892     3.19281
      C    5   -0.28907      0.99966     2.28467    0.00474     3.28907
      N    6   -0.34889      0.99972     2.83867    0.01051     3.84889
      C    7   -0.01543      0.99956     2.00146    0.01441     3.01543
      C    8   -0.01720      0.99954     2.00547    0.01219     3.01720
      O    9   -0.30869      0.99988     3.29983    0.00898     4.30869
      C   10   -0.00612      0.99960     1.99386    0.01267     3.00612
      C   11   -0.30068      0.99967     2.29624    0.00477     3.30068
      C   12   -0.11445      0.99959     2.10483    0.01002     3.11445
      C   13   -0.28398      0.99965     2.27973    0.00460     3.28398
      C   14   -0.28716      0.99965     2.28181    0.00570     3.28716
      H   15    0.09558      0.00000     0.40340    0.00102     0.40442
      H   16    0.09862      0.00000     0.40056    0.00082     0.40138
      H   17    0.09844      0.00000     0.40031    0.00125     0.40156
      H   18    0.09638      0.00000     0.40234    0.00129     0.40362
      H   19    0.09670      0.00000     0.40197    0.00134     0.40330
      H   20    0.08088      0.00000     0.41644    0.00268     0.41912
      H   21    0.09543      0.00000     0.40328    0.00129     0.40457
      H   22    0.09989      0.00000     0.39908    0.00103     0.40011
      H   23    0.10161      0.00000     0.39732    0.00107     0.39839
      H   24    0.09672      0.00000     0.40241    0.00086     0.40328
      H   25    0.09572      0.00000     0.40330    0.00098     0.40428
      H   26    0.17763      0.00000     0.31900    0.00337     0.32237
      H   27    0.09501      0.00000     0.40290    0.00209     0.40499
      H   28    0.08550      0.00000     0.41293    0.00157     0.41450
      H   29    0.08378      0.00000     0.41446    0.00176     0.41622
      H   30    0.07805      0.00000     0.42028    0.00167     0.42195
      H   31    0.08665      0.00000     0.41202    0.00133     0.41335
      H   32    0.09934      0.00000     0.39917    0.00149     0.40066
      H   33    0.10263      0.00000     0.39561    0.00176     0.39737
      H   34    0.09856      0.00000     0.40029    0.00115     0.40144
      H   35    0.09806      0.00000     0.40016    0.00177     0.40194
      H   36    0.09282      0.00000     0.40633    0.00085     0.40718
      H   37    0.09329      0.00000     0.40600    0.00071     0.40671
      H   38    0.10954      0.00000     0.38944    0.00103     0.39046
      H   39    0.10315      0.00000     0.39576    0.00109     0.39685
      H   40    0.09670      0.00000     0.40256    0.00074     0.40330
      H   41    0.09569      0.00000     0.40343    0.00088     0.40431
 =======================================================================
   * Total *   -0.00000     13.99500    42.84357    0.16142    57.00000

 Normal termination of Gaussian 16 at Thu Dec 10 11:36:28 2020.
