 Gaussian 16, Revision A.03,

 -----------------------------------------------------------
 # opt freq B3LYP/6-31G(d) empiricaldispersion=gd3bj scf=xqc
 -----------------------------------------------------------

 ------------------------------
 CID_84768603_JID_3947_neutraal
 ------------------------------
 Symbolic Z-matrix:
 Charge =  0 Multiplicity = 1

 SCF Done:  E(RB3LYP) =  -556.755155406     A.U. after   13 cycles
 SCF Done:  E(RB3LYP) =  -556.759685236     A.U. after   11 cycles
 SCF Done:  E(RB3LYP) =  -556.760211840     A.U. after   10 cycles
 SCF Done:  E(RB3LYP) =  -556.760325354     A.U. after   10 cycles
 SCF Done:  E(RB3LYP) =  -556.760371255     A.U. after    9 cycles
 SCF Done:  E(RB3LYP) =  -556.760444900     A.U. after   10 cycles
 SCF Done:  E(RB3LYP) =  -556.760528468     A.U. after   10 cycles
 SCF Done:  E(RB3LYP) =  -556.760562236     A.U. after   10 cycles
 SCF Done:  E(RB3LYP) =  -556.760586773     A.U. after   10 cycles
 SCF Done:  E(RB3LYP) =  -556.760866906     A.U. after   11 cycles
 SCF Done:  E(RB3LYP) =  -556.761097646     A.U. after    9 cycles
 SCF Done:  E(RB3LYP) =  -556.761104804     A.U. after    9 cycles
 SCF Done:  E(RB3LYP) =  -556.761108746     A.U. after    8 cycles
 SCF Done:  E(RB3LYP) =  -556.761108896     A.U. after    8 cycles
 SCF Done:  E(RB3LYP) =  -556.761109027     A.U. after    7 cycles
 SCF Done:  E(RB3LYP) =  -556.761109043     A.U. after    6 cycles
 Optimization completed.
    -- Stationary point found.
 Normal termination of Gaussian 16 at Sun Dec 13 20:05:29 2020.

 --------------------------------------------------------------------
 #N Geom=AllCheck Guess=TCheck SCRF=Check GenChk RB3LYP/6-31G(d) Freq
 --------------------------------------------------------------------

 Structure from the checkpoint file:  "JID_3947.chk"
 ------------------------------
 CID_84768603_JID_3947_neutraal
 ------------------------------
 Charge =  0 Multiplicity = 1

 SCF Done:  E(RB3LYP) =  -556.761109043     A.U. after    1 cycles

  Exact polarizability: 136.523   0.719 108.552   0.142  -3.246 105.735
 Approx polarizability: 166.190   0.346 161.614   2.384  -5.616 163.361

                      1                      2                      3
                      A                      A                      A
 Frequencies --     50.5584                66.6639                77.5081
 Red. masses --      2.2871                 3.3420                 3.0102
 Frc consts  --      0.0034                 0.0088                 0.0107
 IR Inten    --      0.1852                 0.1397                 1.0065

                      4                      5                      6
                      A                      A                      A
 Frequencies --    138.6954               188.1446               238.7296
 Red. masses --      2.8907                 2.6885                 1.1213
 Frc consts  --      0.0328                 0.0561                 0.0377
 IR Inten    --      1.4833                 1.5171                 0.6873

                      7                      8                      9
                      A                      A                      A
 Frequencies --    260.5831               282.0622               322.9502
 Red. masses --      2.2945                 2.3977                 2.9001
 Frc consts  --      0.0918                 0.1124                 0.1782
 IR Inten    --      8.0754                 0.7710                 1.2827

                     10                     11                     12
                      A                      A                      A
 Frequencies --    355.4534               379.6658               453.7108
 Red. masses --      3.2632                 2.0651                 1.8759
 Frc consts  --      0.2429                 0.1754                 0.2275
 IR Inten    --      2.8641                 1.9684                 2.8518

                     13                     14                     15
                      A                      A                      A
 Frequencies --    489.9165               519.3433               566.5627
 Red. masses --      2.3867                 2.2060                 4.6100
 Frc consts  --      0.3375                 0.3506                 0.8719
 IR Inten    --      1.7275                 0.8195                 8.5994

                     16                     17                     18
                      A                      A                      A
 Frequencies --    582.0506               670.4489               741.3003
 Red. masses --      4.0922                 3.3185                 3.3829
 Frc consts  --      0.8168                 0.8789                 1.0953
 IR Inten    --      4.6865                 1.3866                 5.9534

                     19                     20                     21
                      A                      A                      A
 Frequencies --    768.7432               804.6486               823.0823
 Red. masses --      3.4495                 1.5975                 2.3114
 Frc consts  --      1.2011                 0.6094                 0.9226
 IR Inten    --      1.0244                 4.4076                30.8586

                     22                     23                     24
                      A                      A                      A
 Frequencies --    834.6291               853.6297               877.6978
 Red. masses --      3.0513                 1.7033                 2.6702
 Frc consts  --      1.2523                 0.7313                 1.2119
 IR Inten    --      0.8949               102.9534                 7.2557

                     25                     26                     27
                      A                      A                      A
 Frequencies --    892.6043               926.3218               933.9007
 Red. masses --      2.2813                 2.1950                 2.2685
 Frc consts  --      1.0709                 1.1097                 1.1657
 IR Inten    --      1.6138                 0.3637                 1.3754

                     28                     29                     30
                      A                      A                      A
 Frequencies --    952.7771               960.9682               966.0631
 Red. masses --      2.4779                 2.5319                 2.0822
 Frc consts  --      1.3253                 1.3776                 1.1450
 IR Inten    --     15.5574                12.8641                 5.2045

                     31                     32                     33
                      A                      A                      A
 Frequencies --    979.6088              1021.1249              1025.7714
 Red. masses --      2.1127                 1.3674                 1.5758
 Frc consts  --      1.1945                 0.8400                 0.9769
 IR Inten    --     15.9806                 5.2325                 1.2572

                     34                     35                     36
                      A                      A                      A
 Frequencies --   1051.3971              1053.5318              1079.4769
 Red. masses --      1.8247                 1.6269                 2.0307
 Frc consts  --      1.1884                 1.0639                 1.3942
 IR Inten    --      3.2187                 5.0999                 5.4848

                     37                     38                     39
                      A                      A                      A
 Frequencies --   1093.2948              1104.9105              1128.8438
 Red. masses --      2.1620                 3.7166                 2.2782
 Frc consts  --      1.5225                 2.6733                 1.7105
 IR Inten    --     12.5361                18.8711                20.5548

                     40                     41                     42
                      A                      A                      A
 Frequencies --   1136.9712              1160.6008              1174.2990
 Red. masses --      1.6228                 1.3447                 1.5683
 Frc consts  --      1.2360                 1.0672                 1.2742
 IR Inten    --     20.3699                 6.8878                19.5971

                     43                     44                     45
                      A                      A                      A
 Frequencies --   1188.8637              1220.1249              1230.5439
 Red. masses --      1.4965                 1.8361                 1.3848
 Frc consts  --      1.2462                 1.6105                 1.2355
 IR Inten    --     25.5008                 2.3695                 0.9291

                     46                     47                     48
                      A                      A                      A
 Frequencies --   1243.6502              1250.5288              1262.5914
 Red. masses --      1.4413                 1.9445                 1.6190
 Frc consts  --      1.3134                 1.7916                 1.5206
 IR Inten    --      4.6727                15.8831                 6.1963

                     49                     50                     51
                      A                      A                      A
 Frequencies --   1276.1058              1292.8139              1301.4414
 Red. masses --      2.2962                 1.3533                 1.4240
 Frc consts  --      2.2031                 1.3327                 1.4210
 IR Inten    --     35.9932                 1.5812                 6.8654

                     52                     53                     54
                      A                      A                      A
 Frequencies --   1307.6432              1321.6815              1329.4717
 Red. masses --      1.4842                 1.3625                 1.4080
 Frc consts  --      1.4953                 1.4023                 1.4662
 IR Inten    --      0.6884                 4.8354                 0.1410

                     55                     56                     57
                      A                      A                      A
 Frequencies --   1333.9156              1344.1329              1359.2620
 Red. masses --      1.2830                 1.5565                 1.2405
 Frc consts  --      1.3450                 1.6568                 1.3504
 IR Inten    --      2.8053                 3.3754                11.9107

                     58                     59                     60
                      A                      A                      A
 Frequencies --   1378.5639              1386.6210              1389.2831
 Red. masses --      1.3531                 1.5281                 1.6992
 Frc consts  --      1.5150                 1.7311                 1.9323
 IR Inten    --     17.0567                20.8645                14.9764

                     61                     62                     63
                      A                      A                      A
 Frequencies --   1433.1552              1480.9553              1485.4164
 Red. masses --      1.3899                 1.1716                 1.1485
 Frc consts  --      1.6820                 1.5140                 1.4931
 IR Inten    --     17.8052                 1.2463                 5.6272

                     64                     65                     66
                      A                      A                      A
 Frequencies --   1511.7750              1518.9806              1522.2447
 Red. masses --      1.0709                 1.0899                 1.0829
 Frc consts  --      1.4420                 1.4816                 1.4784
 IR Inten    --      8.2028                 7.5742                 2.1745

                     67                     68                     69
                      A                      A                      A
 Frequencies --   1524.0457              1534.8260              1539.4631
 Red. masses --      1.0898                 1.0575                 1.0941
 Frc consts  --      1.4913                 1.4677                 1.5277
 IR Inten    --      0.5107                 3.2759                 1.2406

                     70                     71                     72
                      A                      A                      A
 Frequencies --   1542.8716              1557.9850              2951.9726
 Red. masses --      1.0982                 1.0814                 1.0594
 Frc consts  --      1.5403                 1.5466                 5.4392
 IR Inten    --      4.9987                 5.5621                70.7789

                     73                     74                     75
                      A                      A                      A
 Frequencies --   2997.4105              3021.4102              3028.7715
 Red. masses --      1.0709                 1.0605                 1.0842
 Frc consts  --      5.6689                 5.7042                 5.8600
 IR Inten    --     47.4681                69.4418                24.6227

                     76                     77                     78
                      A                      A                      A
 Frequencies --   3048.5020              3051.8905              3065.2254
 Red. masses --      1.0653                 1.0675                 1.0956
 Frc consts  --      5.8331                 5.8578                 6.0651
 IR Inten    --     56.6804                39.6094                47.0027

                     79                     80                     81
                      A                      A                      A
 Frequencies --   3066.9972              3070.0085              3076.5482
 Red. masses --      1.0960                 1.0784                 1.0616
 Frc consts  --      6.0743                 5.9884                 5.9202
 IR Inten    --     63.7657                27.3424                29.6762

                     82                     83                     84
                      A                      A                      A
 Frequencies --   3093.6043              3103.4229              3110.4862
 Red. masses --      1.0592                 1.1002                 1.1029
 Frc consts  --      5.9727                 6.2434                 6.2867
 IR Inten    --     24.4830                 4.4104                16.2404

                     85                     86                     87
                      A                      A                      A
 Frequencies --   3111.4778              3114.8537              3122.7241
 Red. masses --      1.1012                 1.0885                 1.1042
 Frc consts  --      6.2815                 6.2223                 6.3439
 IR Inten    --     17.5570                79.3541                55.9510

                     88                     89                     90
                      A                      A                      A
 Frequencies --   3142.7760              3149.0176              3464.9404
 Red. masses --      1.0891                 1.1090                 1.0743
 Frc consts  --      6.3380                 6.4791                 7.5995
 IR Inten    --     34.0825                28.5370                 3.0050

 - Thermochemistry -
 -------------------
 Temperature   298.150 Kelvin.  Pressure   1.00000 Atm.
 Atom     1 has atomic number  6 and mass  12.00000

 Molecular mass:   181.15790 amu.
 Principal axes and moments of inertia in atomic units:
                           1         2         3
     Eigenvalues --   882.546053873.413934021.08099
           X            0.99999   0.00075  -0.00515
           Y           -0.00086   0.99976  -0.02176
           Z            0.00513   0.02176   0.99975
 This molecule is an asymmetric top.
 Rotational symmetry number  1.
 Warning -- assumption of classical behavior for rotation
           may cause significant error
 Rotational temperatures (Kelvin)      0.09814     0.02236     0.02154
 Rotational constants (GHZ):           2.04493     0.46593     0.44882
 Zero-point vibrational energy     770695.6 (Joules/Mol)
                                  184.20067 (Kcal/Mol)
 Warning -- explicit consideration of  16 degrees of freedom as
           vibrations may cause significant error
 Vibrational temperatures:     72.74    95.91   111.52   199.55   270.70
          (Kelvin)            343.48   374.92   405.82   464.65   511.42
                              546.25   652.79   704.88   747.22   815.16
                              837.44   964.63  1066.57  1106.05  1157.71
                             1184.23  1200.85  1228.18  1262.81  1284.26
                             1332.77  1343.67  1370.83  1382.62  1389.95
                             1409.44  1469.17  1475.86  1512.73  1515.80
                             1553.13  1573.01  1589.72  1624.15  1635.85
                             1669.85  1689.55  1710.51  1755.49  1770.48
                             1789.34  1799.23  1816.59  1836.03  1860.07
                             1872.48  1881.41  1901.60  1912.81  1919.21
                             1933.91  1955.67  1983.45  1995.04  1998.87
                             2061.99  2130.76  2137.18  2175.11  2185.47
                             2190.17  2192.76  2208.27  2214.94  2219.85
                             2241.59  4247.23  4312.61  4347.14  4357.73
                             4386.11  4390.99  4410.18  4412.72  4417.06
                             4426.47  4451.01  4465.13  4475.30  4476.72
                             4481.58  4492.90  4521.75  4530.73  4985.28

 Zero-point correction=                           0.293542 (Hartree/Particle)
 Thermal correction to Energy=                    0.305093
 Thermal correction to Enthalpy=                  0.306037
 Thermal correction to Gibbs Free Energy=         0.255676
 Sum of electronic and zero-point Energies=           -556.467567
 Sum of electronic and thermal Energies=              -556.456016
 Sum of electronic and thermal Enthalpies=            -556.455072
 Sum of electronic and thermal Free Energies=         -556.505433

                     E (Thermal)             CV                S
                      KCal/Mol        Cal/Mol-Kelvin    Cal/Mol-Kelvin
 Total                  191.449             46.648            105.995
 Electronic               0.000              0.000              0.000
 Translational            0.889              2.981             41.489
 Rotational               0.889              2.981             30.998
 Vibrational            189.671             40.686             33.508
 Vibration     1          0.595              1.977              4.795
 Vibration     2          0.598              1.970              4.250
 Vibration     3          0.599              1.964              3.953
 Vibration     4          0.614              1.915              2.822
 Vibration     5          0.633              1.856              2.246
 Vibration     6          0.657              1.781              1.812
 Vibration     7          0.669              1.745              1.658
 Vibration     8          0.681              1.707              1.521
 Vibration     9          0.708              1.630              1.295
 Vibration    10          0.731              1.564              1.142
 Vibration    11          0.750              1.514              1.040
 Vibration    12          0.812              1.353              0.785
 Vibration    13          0.846              1.272              0.684
 Vibration    14          0.874              1.207              0.611
 Vibration    15          0.922              1.104              0.511
 Vibration    16          0.939              1.070              0.482

 Optimization completed.
    -- Stationary point found.
 Normal termination of Gaussian 16 at Sun Dec 13 20:14:46 2020.

 ----------------------------------------------------------------------
 # B3LYP/6-311++G(d,p) empiricaldispersion=gd3bj scf=xqc pop=npa geom=c
 heck
 ----------------------------------------------------------------------

 --------------------------------------
 CID_84768603_JID_3947_Energie_neutraal
 --------------------------------------
 Structure from the checkpoint file:  "JID_3947.chk"
 Charge =  0 Multiplicity = 1

 SCF Done:  E(RB3LYP) =  -556.912970412     A.U. after   14 cycles
 Normal termination of Gaussian 16 at Sun Dec 13 20:19:00 2020.

 ----------------------------------------------------------------------
 # B3LYP/6-311++G(d,p) empiricaldispersion=gd3bj scf=xqc pop=npa geom=c
 heck
 ----------------------------------------------------------------------

 ------------------------------------
 CID_84768603_JID_3947_Energie_kation
 ------------------------------------
 Structure from the checkpoint file:  "JID_3947.chk"
 Charge =  1 Multiplicity = 2

 SCF Done:  E(UB3LYP) =  -556.648078076     A.U. after   22 cycles
 Normal termination of Gaussian 16 at Sun Dec 13 20:28:26 2020.
 Gaussian 16:  ES64L-G16RevA.03 25-Dec-2016

 ----------------------------------------------------------------------
 # B3LYP/6-311++G(d,p) empiricaldispersion=gd3bj scf=xqc pop=npa geom=c
 heck
 ----------------------------------------------------------------------

 -----------------------------------
 CID_84768603_JID_3947_Energie_anion
 -----------------------------------
 Structure from the checkpoint file:  "JID_3947.chk"
 Charge = -1 Multiplicity = 2

                         Standard orientation:
 ---------------------------------------------------------------------
 Center     Atomic      Atomic             Coordinates (Angstroms)
 Number     Number       Type             X           Y           Z
 ---------------------------------------------------------------------
      1          6           0        3.609513   -0.678942   -0.793098
      2          7           0        2.802981   -0.108051    0.265634
      3          6           0        1.868476   -1.056401    0.927910
      4          6           0        0.559091   -0.250193    0.958443
      5          6           0        1.102721    1.179071    1.164481
      6          6           0        1.984393    1.066573   -0.087210
      7          6           0        0.916269    0.726870   -1.151449
      8          7           0        0.056181   -0.248110   -0.438374
      9          6           0       -1.374465   -0.091709   -0.645599
     10          6           0       -2.202084   -1.342068   -0.249862
     11          6           0       -3.567087   -0.774194    0.229873
     12          7           0       -3.557711    0.688825   -0.000189
     13          6           0       -2.138795    1.053896    0.076648
     14          1           0        4.239038    0.101234   -1.236292
     15          1           0        3.025468   -1.153290   -1.603975
     16          1           0        4.273050   -1.443136   -0.372841
     17          1           0        1.725833   -1.973342    0.342552
     18          1           0        2.230945   -1.326524    1.929691
     19          1           0       -0.187827   -0.618049    1.662918
     20          1           0        0.334949    1.953138    1.091789
     21          1           0        1.688110    1.309722    2.078434
     22          1           0        2.612665    1.924897   -0.339414
     23          1           0        1.342934    0.287170   -2.060776
     24          1           0        0.367493    1.635121   -1.446395
     25          1           0       -1.501254    0.073299   -1.724019
     26          1           0       -2.301372   -2.029860   -1.094725
     27          1           0       -1.696771   -1.893062    0.549638
     28          1           0       -3.695699   -0.950836    1.304714
     29          1           0       -4.426480   -1.224858   -0.274788
     30          1           0       -3.872876    0.861603   -0.954813
     31          1           0       -1.849510    1.096676    1.134662
     32          1           0       -1.967042    2.044021   -0.356675
 ---------------------------------------------------------------------

 SCF Done:  E(UB3LYP) =  -556.898613354     A.U. after   29 cycles

 The electronic state is 2-A.
 Alpha  occ. eigenvalues --  -14.20060 -14.19522 -14.19349 -10.10089 -10.09853
 Alpha  occ. eigenvalues --  -10.09192 -10.08740 -10.08718 -10.08692 -10.08399
 Alpha  occ. eigenvalues --  -10.08178 -10.06625 -10.05913  -0.86233  -0.81747
 Alpha  occ. eigenvalues --   -0.78966  -0.68328  -0.65029  -0.63338  -0.61002
 Alpha  occ. eigenvalues --   -0.57792  -0.53412  -0.50347  -0.49427  -0.46049
 Alpha  occ. eigenvalues --   -0.43361  -0.42238  -0.40390  -0.39213  -0.36706
 Alpha  occ. eigenvalues --   -0.35200  -0.33342  -0.32726  -0.32575  -0.30695
 Alpha  occ. eigenvalues --   -0.30151  -0.29042  -0.27908  -0.27197  -0.26190
 Alpha  occ. eigenvalues --   -0.25550  -0.25446  -0.24756  -0.24308  -0.23921
 Alpha  occ. eigenvalues --   -0.22472  -0.21379  -0.14541  -0.11093  -0.09744
 Alpha  occ. eigenvalues --    0.04440
 Alpha virt. eigenvalues --    0.06440   0.07112   0.07555   0.08705   0.09052
 Alpha virt. eigenvalues --    0.09343   0.09939   0.10087   0.11017   0.11569
 Alpha virt. eigenvalues --    0.11826   0.12324   0.12870   0.13630   0.13896

  Beta  occ. eigenvalues --  -14.20061 -14.19520 -14.19329 -10.10079 -10.09841
  Beta  occ. eigenvalues --  -10.09178 -10.08728 -10.08700 -10.08668 -10.08376
  Beta  occ. eigenvalues --  -10.08159 -10.06616 -10.05899  -0.86219  -0.81715
  Beta  occ. eigenvalues --   -0.78949  -0.68304  -0.65000  -0.63303  -0.60960
  Beta  occ. eigenvalues --   -0.57752  -0.53369  -0.50300  -0.49376  -0.46011
  Beta  occ. eigenvalues --   -0.43320  -0.42194  -0.40319  -0.39189  -0.36682
  Beta  occ. eigenvalues --   -0.35175  -0.33302  -0.32694  -0.32547  -0.30665
  Beta  occ. eigenvalues --   -0.30120  -0.29014  -0.27881  -0.27167  -0.26158
  Beta  occ. eigenvalues --   -0.25513  -0.25419  -0.24725  -0.24281  -0.23896
  Beta  occ. eigenvalues --   -0.22444  -0.21345  -0.14519  -0.11082  -0.09726
  Beta virt. eigenvalues --    0.06552   0.07353   0.07782   0.08167   0.09212
  Beta virt. eigenvalues --    0.09500   0.09751   0.10376   0.10470   0.11453
  Beta virt. eigenvalues --    0.11930   0.12181   0.12611   0.13085   0.14002

 Mulliken charges and spin densities:
               1          2
     1  C    0.626552  -0.972627
     2  N    0.059198  -0.080165
     3  C    0.610900  -1.022992
     4  C   -1.211055   1.155942
     5  C    1.123072  -1.899658
     6  C   -1.836833   2.079220
     7  C    1.712245  -2.239734
     8  N    0.400027  -0.043003
     9  C   -1.298546   0.722517
    10  C   -0.074251   0.133111
    11  C    0.431427  -0.935417
    12  N   -0.260112   0.243393
    13  C    1.193261  -1.739938
    14  H   -0.222364   0.355839
    15  H   -0.054705   0.191956
    16  H   -0.055410   0.182533
    17  H    0.102830   0.033993
    18  H   -0.156994   0.310877
    19  H   -0.011073   0.218440
    20  H    0.115191   0.017776
    21  H   -0.096968   0.267928
    22  H   -0.637402   0.888157
    23  H   -0.141658   0.304462
    24  H   -0.317034   0.473595
    25  H   -0.307323   0.485427
    26  H   -0.192317   0.338834
    27  H   -0.060264   0.179543
    28  H    0.037731   0.112812
    29  H   -0.197173   0.356306
    30  H   -0.125348   0.364088
    31  H    0.066774   0.114592
    32  H   -0.222377   0.402191
 Sum of Mulliken charges =  -1.00000   1.00000

 Dipole moment (field-independent basis, Debye):
    X=              1.4038    Y=             -2.0250    Z=              3.3285  Tot=              4.1413
 Quadrupole moment (field-independent basis, Debye-Ang):
   XX=           -158.1080   YY=           -121.0384   ZZ=           -120.2415
   XY=             -0.8124   XZ=             -3.2908   YZ=              2.2577

 Summary of Natural Population Analysis:

                                       Natural Population
                Natural  -----------------------------------------------
    Atom  No    Charge         Core      Valence    Rydberg      Total
 -----------------------------------------------------------------------
      C    1   -0.17341      0.99964     2.16644    0.00733     3.17341
      N    2   -0.28747      0.99973     2.77484    0.01290     3.78747
      C    3   -0.08537      0.99960     2.07332    0.01245     3.08537
      C    4   -0.01407      0.99959     2.00058    0.01391     3.01407
      C    5   -0.20047      0.99960     2.19219    0.00868     3.20047
      C    6   -0.00976      0.99958     1.99423    0.01595     3.00976
      C    7   -0.09399      0.99960     2.08217    0.01222     3.09399
      N    8   -0.28996      0.99971     2.77578    0.01447     3.78996
      C    9   -0.00787      0.99957     1.99293    0.01536     3.00787
      C   10   -0.20211      0.99962     2.19344    0.00906     3.20211
      C   11   -0.09205      0.99965     2.08178    0.01062     3.09205
      N   12   -0.33570      0.99977     2.82312    0.01282     3.83570
      C   13   -0.10048      0.99961     2.08962    0.01126     3.10048
      H   14    0.09535      0.00000     0.40339    0.00126     0.40465
      H   15    0.08176      0.00000     0.41649    0.00175     0.41824
      H   16    0.09260      0.00000     0.40618    0.00122     0.40740
      H   17    0.09488      0.00000     0.40330    0.00182     0.40512
      H   18    0.08962      0.00000     0.40920    0.00117     0.41038
      H   19    0.10376      0.00000     0.39495    0.00129     0.39624
      H   20    0.10347      0.00000     0.39539    0.00114     0.39653
      H   21    0.10371      0.00000     0.39509    0.00121     0.39629
      H   22    0.10360      0.00000     0.39490    0.00151     0.39640
      H   23    0.09623      0.00000     0.40208    0.00169     0.40377
      H   24    0.09311      0.00000     0.40483    0.00206     0.40689
      H   25    0.09686      0.00000     0.40072    0.00241     0.40314
      H   26    0.10210      0.00000     0.39652    0.00138     0.39790
      H   27    0.09696      0.00000     0.40158    0.00146     0.40304
      H   28    0.08599      0.00000     0.41272    0.00129     0.41401
      H   29    0.09544      0.00000     0.40333    0.00123     0.40456
      H   30    0.17098      0.00000     0.32541    0.00360     0.32902
      H   31    0.08675      0.00000     0.41162    0.00163     0.41325
      H   32    0.09953      0.00000     0.39911    0.00136     0.40047
 =======================================================================
   * Total *    0.00000     12.99527    36.81724    0.18749    50.00000

 Normal termination of Gaussian 16 at Sun Dec 13 20:40:40 2020.
