 Gaussian 16, Revision A.03,

 -----------------------------------------------------------
 # opt freq B3LYP/6-31G(d) empiricaldispersion=gd3bj scf=xqc
 -----------------------------------------------------------

 -------------------------------
 CID_142258399_JID_2576_neutraal
 -------------------------------
 Symbolic Z-matrix:
 Charge =  0 Multiplicity = 1

 SCF Done:  E(RB3LYP) =  -861.506803581     A.U. after   15 cycles
 SCF Done:  E(RB3LYP) =  -861.516531833     A.U. after   14 cycles
 SCF Done:  E(RB3LYP) =  -861.517552459     A.U. after   14 cycles
 SCF Done:  E(RB3LYP) =  -861.518150057     A.U. after   12 cycles
 SCF Done:  E(RB3LYP) =  -861.518877841     A.U. after   12 cycles
 SCF Done:  E(RB3LYP) =  -861.519520922     A.U. after   12 cycles
 SCF Done:  E(RB3LYP) =  -861.520035883     A.U. after   13 cycles
 SCF Done:  E(RB3LYP) =  -861.520331686     A.U. after   12 cycles
 SCF Done:  E(RB3LYP) =  -861.520671219     A.U. after   12 cycles
 SCF Done:  E(RB3LYP) =  -861.520837919     A.U. after   13 cycles
 SCF Done:  E(RB3LYP) =  -861.522002989     A.U. after   10 cycles
 SCF Done:  E(RB3LYP) =  -861.522002357     A.U. after    9 cycles
 SCF Done:  E(RB3LYP) =  -861.522004794     A.U. after   11 cycles
 SCF Done:  E(RB3LYP) =  -861.522004922     A.U. after    8 cycles
 SCF Done:  E(RB3LYP) =  -861.522004965     A.U. after    7 cycles
 Optimization completed.
    -- Stationary point found.
 Normal termination of Gaussian 16 at Wed Dec  9 18:10:50 2020.

 --------------------------------------------------------------------
 #N Geom=AllCheck Guess=TCheck SCRF=Check GenChk RB3LYP/6-31G(d) Freq
 --------------------------------------------------------------------

 Structure from the checkpoint file:  "JID_2576.chk"
 -------------------------------
 CID_142258399_JID_2576_neutraal
 -------------------------------
 Charge =  0 Multiplicity = 1

 SCF Done:  E(RB3LYP) =  -861.522004965     A.U. after    1 cycles

  Exact polarizability: 179.192  -7.020 107.003  -3.362  -7.178 107.102
 Approx polarizability: 221.713 -16.438 158.131  -5.069 -18.817 175.652

                      1                      2                      3
                      A                      A                      A
 Frequencies --     18.2004                53.8180                55.3519
 Red. masses --      4.7794                 4.9958                 3.4270
 Frc consts  --      0.0009                 0.0085                 0.0062
 IR Inten    --      0.3504                 0.5988                 0.4545

                      4                      5                      6
                      A                      A                      A
 Frequencies --     65.4968                79.8526                97.7412
 Red. masses --      3.8989                 3.0880                 1.9593
 Frc consts  --      0.0099                 0.0116                 0.0110
 IR Inten    --      1.1184                 0.6806                 0.1033

                      7                      8                      9
                      A                      A                      A
 Frequencies --    118.5824               181.2799               208.0184
 Red. masses --      2.8611                 2.0692                 1.6675
 Frc consts  --      0.0237                 0.0401                 0.0425
 IR Inten    --      0.0989                 0.3041                 1.6738

                     10                     11                     12
                      A                      A                      A
 Frequencies --    227.3253               239.2291               275.9850
 Red. masses --      2.1303                 1.5262                 2.1519
 Frc consts  --      0.0649                 0.0515                 0.0966
 IR Inten    --      2.4063                 0.9397                 0.2546

                     13                     14                     15
                      A                      A                      A
 Frequencies --    298.4761               322.6041               371.3073
 Red. masses --      2.4583                 2.0372                 2.9862
 Frc consts  --      0.1290                 0.1249                 0.2426
 IR Inten    --      0.5310                 0.1434                 2.7650

                     16                     17                     18
                      A                      A                      A
 Frequencies --    384.3222               407.3263               440.8255
 Red. masses --      2.4539                 1.1984                 3.5405
 Frc consts  --      0.2135                 0.1171                 0.4054
 IR Inten    --      7.5873                26.4156                 3.7831

                     19                     20                     21
                      A                      A                      A
 Frequencies --    496.3411               522.5732               551.5131
 Red. masses --      4.5190                 2.5819                 1.8957
 Frc consts  --      0.6559                 0.4154                 0.3397
 IR Inten    --      5.2466                 0.9683               181.9619

                     22                     23                     24
                      A                      A                      A
 Frequencies --    563.2978               646.4657               682.9790
 Red. masses --      2.3760                 3.4264                 2.5714
 Frc consts  --      0.4442                 0.8437                 0.7067
 IR Inten    --     18.1044                55.0844               168.8551

                     25                     26                     27
                      A                      A                      A
 Frequencies --    743.4010               788.7105               806.8731
 Red. masses --      1.6745                 1.2174                 1.9813
 Frc consts  --      0.5452                 0.4462                 0.7600
 IR Inten    --      7.4495                10.0440                 3.6005

                     28                     29                     30
                      A                      A                      A
 Frequencies --    819.6155               838.8373               861.0095
 Red. masses --      1.8497                 1.3353                 1.8521
 Frc consts  --      0.7321                 0.5536                 0.8090
 IR Inten    --     11.6036                11.9628                 3.3441

                     31                     32                     33
                      A                      A                      A
 Frequencies --    888.2660               925.4155               972.4698
 Red. masses --      2.6345                 1.6801                 1.6658
 Frc consts  --      1.2247                 0.8477                 0.9281
 IR Inten    --      0.6955                 0.1341                 7.2871

                     34                     35                     36
                      A                      A                      A
 Frequencies --   1006.8135              1014.9829              1046.9602
 Red. masses --      1.1479                 1.7665                 1.5833
 Frc consts  --      0.6856                 1.0722                 1.0226
 IR Inten    --     32.7509                 1.3261                 0.3838

                     37                     38                     39
                      A                      A                      A
 Frequencies --   1065.1947              1087.5037              1113.9338
 Red. masses --      1.5121                 2.6145                 1.9476
 Frc consts  --      1.0109                 1.8218                 1.4238
 IR Inten    --      1.2772                 0.1327                35.9837

                     40                     41                     42
                      A                      A                      A
 Frequencies --   1143.8243              1162.0181              1168.9811
 Red. masses --      1.8358                 2.1764                 1.3475
 Frc consts  --      1.4151                 1.7315                 1.0849
 IR Inten    --      0.9902                 1.9164                65.4289

                     43                     44                     45
                      A                      A                      A
 Frequencies --   1194.8453              1237.9789              1268.5125
 Red. masses --      1.9525                 1.2482                 1.3484
 Frc consts  --      1.6423                 1.1271                 1.2784
 IR Inten    --      1.4518                 5.5602                 4.3303

                     46                     47                     48
                      A                      A                      A
 Frequencies --   1309.2542              1319.5154              1332.8527
 Red. masses --      1.2476                 1.1321                 1.3150
 Frc consts  --      1.2600                 1.1614                 1.3764
 IR Inten    --     11.3381                 5.7670                48.6242

                     49                     50                     51
                      A                      A                      A
 Frequencies --   1354.9205              1360.4988              1363.1773
 Red. masses --      1.8800                 1.3774                 1.3041
 Frc consts  --      2.0334                 1.5021                 1.4278
 IR Inten    --    194.7030                44.5099                 1.1223

                     52                     53                     54
                      A                      A                      A
 Frequencies --   1395.4202              1406.2025              1416.3182
 Red. masses --      1.3664                 1.3491                 1.4576
 Frc consts  --      1.5676                 1.5717                 1.7227
 IR Inten    --      5.9832                 9.0448                 1.7347

                     55                     56                     57
                      A                      A                      A
 Frequencies --   1443.6795              1448.2204              1511.2702
 Red. masses --      1.2668                 1.2564                 1.0715
 Frc consts  --      1.5556                 1.5526                 1.4419
 IR Inten    --      2.3169                14.0674                 1.3885

                     58                     59                     60
                      A                      A                      A
 Frequencies --   1518.3503              1529.6456              1532.0249
 Red. masses --      1.0745                 1.0478                 1.0466
 Frc consts  --      1.4594                 1.4445                 1.4473
 IR Inten    --      2.6923                 1.3312                 4.8752

                     61                     62                     63
                      A                      A                      A
 Frequencies --   1536.9527              1539.3048              1541.7598
 Red. masses --      1.0518                 1.0532                 1.0822
 Frc consts  --      1.4638                 1.4703                 1.5156
 IR Inten    --      6.5462                 1.7186                 5.6452

                     64                     65                     66
                      A                      A                      A
 Frequencies --   1645.2634              1694.8017              1733.1898
 Red. masses --      1.2472                 6.1405                 5.1248
 Frc consts  --      1.9891                10.3918                 9.0702
 IR Inten    --     68.0994                 1.7215               195.6207

                     67                     68                     69
                      A                      A                      A
 Frequencies --   3033.8577              3037.9938              3041.5685
 Red. masses --      1.0654                 1.0700                 1.0636
 Frc consts  --      5.7775                 5.8187                 5.7974
 IR Inten    --     15.7053                 3.3984                29.9148

                     70                     71                     72
                      A                      A                      A
 Frequencies --   3046.3107              3051.1665              3055.6059
 Red. masses --      1.0395                 1.0650                 1.0379
 Frc consts  --      5.6833                 5.8413                 5.7096
 IR Inten    --     16.7655                31.8413                11.5569

                     73                     74                     75
                      A                      A                      A
 Frequencies --   3067.5572              3077.2232              3079.2996
 Red. masses --      1.0991                 1.1025                 1.1018
 Frc consts  --      6.0937                 6.1508                 6.1554
 IR Inten    --     32.8675                47.5703                34.3855

                     76                     77                     78
                      A                      A                      A
 Frequencies --   3111.5906              3116.9778              3119.8165
 Red. masses --      1.1019                 1.1019                 1.1017
 Frc consts  --      6.2856                 6.3075                 6.3180
 IR Inten    --     48.3948                55.0374                37.6738

                     79                     80                     81
                      A                      A                      A
 Frequencies --   3122.8764              3165.6030              3172.6607
 Red. masses --      1.1023                 1.0903                 1.0889
 Frc consts  --      6.3338                 6.4372                 6.4579
 IR Inten    --     45.7226                 6.3060                13.8046

                     82                     83                     84
                      A                      A                      A
 Frequencies --   3487.1262              3548.2174              3659.8181
 Red. masses --      1.0749                 1.0467                 1.0996
 Frc consts  --      7.7008                 7.7640                 8.6774
 IR Inten    --      7.8998                25.8535                20.0750

 - Thermochemistry -
 -------------------
 Temperature   298.150 Kelvin.  Pressure   1.00000 Atm.
 Atom     1 has atomic number  6 and mass  12.00000

 Molecular mass:   186.11907 amu.
 Principal axes and moments of inertia in atomic units:
                           1         2         3
     Eigenvalues --  1151.307476169.473066529.40809
           X            1.00000   0.00089  -0.00032
           Y           -0.00087   0.99761   0.06903
           Z            0.00038  -0.06903   0.99761
 This molecule is an asymmetric top.
 Rotational symmetry number  1.
 Warning -- assumption of classical behavior for rotation
           may cause significant error
 Rotational temperatures (Kelvin)      0.07523     0.01404     0.01327
 Rotational constants (GHZ):           1.56756     0.29253     0.27640
 Zero-point vibrational energy     696184.5 (Joules/Mol)
                                  166.39208 (Kcal/Mol)
 Warning -- explicit consideration of  22 degrees of freedom as
           vibrations may cause significant error
 Vibrational temperatures:     26.19    77.43    79.64    94.24   114.89
          (Kelvin)            140.63   170.61   260.82   299.29   327.07
                              344.20   397.08   429.44   464.16   534.23
                              552.95   586.05   634.25   714.12   751.87
                              793.50   810.46   930.12   982.65  1069.59
                             1134.78  1160.91  1179.24  1206.90  1238.80
                             1278.02  1331.47  1399.17  1448.58  1460.33
                             1506.34  1532.58  1564.68  1602.70  1645.71
                             1671.88  1681.90  1719.12  1781.18  1825.11
                             1883.72  1898.49  1917.68  1949.43  1957.45
                             1961.31  2007.70  2023.21  2037.77  2077.13
                             2083.67  2174.38  2184.57  2200.82  2204.24
                             2211.33  2214.72  2218.25  2367.17  2438.44
                             2493.67  4365.04  4371.00  4376.14  4382.96
                             4389.95  4396.34  4413.53  4427.44  4430.43
                             4476.88  4484.64  4488.72  4493.12  4554.60
                             4564.75  5017.20  5105.09  5265.66

 Zero-point correction=                           0.265163 (Hartree/Particle)
 Thermal correction to Energy=                    0.280304
 Thermal correction to Enthalpy=                  0.281248
 Thermal correction to Gibbs Free Energy=         0.221122
 Sum of electronic and zero-point Energies=           -861.256842
 Sum of electronic and thermal Energies=              -861.241701
 Sum of electronic and thermal Enthalpies=            -861.240757
 Sum of electronic and thermal Free Energies=         -861.300883

                     E (Thermal)             CV                S
                      KCal/Mol        Cal/Mol-Kelvin    Cal/Mol-Kelvin
 Total                  175.894             54.645            126.547
 Electronic               0.000              0.000              0.000
 Translational            0.889              2.981             41.570
 Rotational               0.889              2.981             32.206
 Vibrational            174.116             48.683             52.771
 Vibration     1          0.593              1.986              6.821
 Vibration     2          0.596              1.976              4.672
 Vibration     3          0.596              1.975              4.616
 Vibration     4          0.597              1.971              4.284
 Vibration     5          0.600              1.963              3.894
 Vibration     6          0.603              1.951              3.499
 Vibration     7          0.609              1.934              3.123
 Vibration     8          0.630              1.865              2.315
 Vibration     9          0.641              1.828              2.061
 Vibration    10          0.651              1.799              1.900
 Vibration    11          0.657              1.780              1.809
 Vibration    12          0.678              1.718              1.558
 Vibration    13          0.692              1.677              1.425
 Vibration    14          0.708              1.630              1.297
 Vibration    15          0.743              1.531              1.074
 Vibration    16          0.753              1.504              1.022
 Vibration    17          0.772              1.454              0.936
 Vibration    18          0.801              1.381              0.824
 Vibration    19          0.852              1.258              0.667
 Vibration    20          0.878              1.200              0.604
 Vibration    21          0.907              1.136              0.541
 Vibration    22          0.919              1.111              0.517

 Optimization completed.
    -- Stationary point found.
 Normal termination of Gaussian 16 at Wed Dec  9 18:17:18 2020.

 ----------------------------------------------------------------------
 # B3LYP/6-311++G(d,p) empiricaldispersion=gd3bj scf=xqc pop=npa geom=c
 heck
 ----------------------------------------------------------------------

 ---------------------------------------
 CID_142258399_JID_2576_Energie_neutraal
 ---------------------------------------
 Structure from the checkpoint file:  "JID_2576.chk"
 Charge =  0 Multiplicity = 1

 SCF Done:  E(RB3LYP) =  -861.692099756     A.U. after   15 cycles
 Normal termination of Gaussian 16 at Wed Dec  9 18:20:35 2020.

 ----------------------------------------------------------------------
 # B3LYP/6-311++G(d,p) empiricaldispersion=gd3bj scf=xqc pop=npa geom=c
 heck
 ----------------------------------------------------------------------

 -------------------------------------
 CID_142258399_JID_2576_Energie_kation
 -------------------------------------
 Structure from the checkpoint file:  "JID_2576.chk"
 Charge =  1 Multiplicity = 2

 SCF Done:  E(UB3LYP) =  -861.383341322     A.U. after   25 cycles
 Normal termination of Gaussian 16 at Wed Dec  9 18:28:25 2020.
 Gaussian 16:  ES64L-G16RevA.03 25-Dec-2016

 ----------------------------------------------------------------------
 # B3LYP/6-311++G(d,p) empiricaldispersion=gd3bj scf=xqc pop=npa geom=c
 heck
 ----------------------------------------------------------------------

 ------------------------------------
 CID_142258399_JID_2576_Energie_anion
 ------------------------------------
 Structure from the checkpoint file:  "JID_2576.chk"
 Charge = -1 Multiplicity = 2

                         Standard orientation:
 ---------------------------------------------------------------------
 Center     Atomic      Atomic             Coordinates (Angstroms)
 Number     Number       Type             X           Y           Z
 ---------------------------------------------------------------------
      1          6           0       -4.077652   -1.484745   -1.118287
      2          6           0       -3.960310   -0.748856    0.219739
      3          6           0       -2.527127   -0.670998    0.765373
      4          6           0       -1.508902    0.042719   -0.154162
      5          6           0       -1.940361    1.474220   -0.557537
      6          6           0       -2.187079    2.439176    0.606247
      7          6           0       -0.155389    0.049934    0.504084
      8          6           0        0.924370   -0.560862    0.006648
      9         16           0        2.465892   -0.643409    0.883178
     10          6           0        3.547654    0.081568   -0.391514
     11          7           0        3.198719    0.840285   -1.351443
     12          7           0        4.869102   -0.244411   -0.154513
     13          1           0       -3.554225   -0.954712   -1.921896
     14          1           0       -5.125426   -1.587261   -1.421036
     15          1           0       -3.648356   -2.492045   -1.051839
     16          1           0       -4.378772    0.260969    0.121367
     17          1           0       -4.581180   -1.259663    0.967047
     18          1           0       -2.541126   -0.171978    1.743118
     19          1           0       -2.157988   -1.688486    0.950611
     20          1           0       -1.422356   -0.539072   -1.081012
     21          1           0       -1.164932    1.888480   -1.214066
     22          1           0       -2.849939    1.404414   -1.166829
     23          1           0       -1.291807    2.569505    1.223963
     24          1           0       -2.470975    3.427691    0.229814
     25          1           0       -2.995129    2.091024    1.258641
     26          1           0       -0.070089    0.574228    1.455277
     27          1           0        0.888817   -1.095047   -0.941235
     28          1           0        2.209683    1.085818   -1.292448
     29          1           0        5.047396   -1.187872    0.165341
     30          1           0        5.486158    0.064501   -0.897521
 ---------------------------------------------------------------------

 SCF Done:  E(UB3LYP) =  -861.679708836     A.U. after   33 cycles
 SCF Done:  E(UB3LYP) =  -861.679708836     a.u. after    2 cycles

 The electronic state is 2-A.
 Alpha  occ. eigenvalues --  -88.76155 -14.23559 -14.18849 -10.17224 -10.10047
 Alpha  occ. eigenvalues --  -10.08516 -10.08463 -10.07342 -10.07204 -10.06950
 Alpha  occ. eigenvalues --  -10.06679 -10.06144  -7.84784  -5.81151  -5.80782
 Alpha  occ. eigenvalues --   -5.80209  -0.86221  -0.76745  -0.74074  -0.70271
 Alpha  occ. eigenvalues --   -0.67228  -0.63891  -0.59987  -0.56067  -0.51649
 Alpha  occ. eigenvalues --   -0.49788  -0.47020  -0.45179  -0.43909  -0.38475
 Alpha  occ. eigenvalues --   -0.38111  -0.37516  -0.34822  -0.33756  -0.33409
 Alpha  occ. eigenvalues --   -0.32881  -0.30607  -0.30363  -0.29174  -0.28671
 Alpha  occ. eigenvalues --   -0.27017  -0.26376  -0.25601  -0.24739  -0.23127
 Alpha  occ. eigenvalues --   -0.22482  -0.21888  -0.19308  -0.17606  -0.16531
 Alpha  occ. eigenvalues --   -0.13968   0.04199
 Alpha virt. eigenvalues --    0.05419   0.06831   0.07117   0.07599   0.08202
 Alpha virt. eigenvalues --    0.09040   0.09548   0.09997   0.10107   0.10492
 Alpha virt. eigenvalues --    0.10698   0.11378   0.11815   0.12638   0.13033

  Beta  occ. eigenvalues --  -88.76145 -14.23517 -14.18839 -10.17187 -10.10001
  Beta  occ. eigenvalues --  -10.08472 -10.08436 -10.07316 -10.07197 -10.06924
  Beta  occ. eigenvalues --  -10.06651 -10.06109  -7.84772  -5.81131  -5.80774
  Beta  occ. eigenvalues --   -5.80199  -0.86164  -0.76695  -0.73995  -0.70195
  Beta  occ. eigenvalues --   -0.67179  -0.63815  -0.59921  -0.55991  -0.51538
  Beta  occ. eigenvalues --   -0.49702  -0.46924  -0.45109  -0.43853  -0.38435
  Beta  occ. eigenvalues --   -0.38056  -0.37480  -0.34757  -0.33690  -0.33363
  Beta  occ. eigenvalues --   -0.32816  -0.30539  -0.30308  -0.29134  -0.28613
  Beta  occ. eigenvalues --   -0.26947  -0.26313  -0.25548  -0.24699  -0.23069
  Beta  occ. eigenvalues --   -0.22427  -0.21843  -0.19111  -0.17579  -0.16463
  Beta  occ. eigenvalues --   -0.13848
  Beta virt. eigenvalues --    0.06349   0.06623   0.07337   0.07688   0.08119
  Beta virt. eigenvalues --    0.08538   0.09431   0.09802   0.10297   0.10380
  Beta virt. eigenvalues --    0.10769   0.10885   0.11671   0.12118   0.12900

 Mulliken charges and spin densities:
               1          2
     1  C    0.984691  -1.553449
     2  C   -0.431357   0.226058
     3  C   -0.483760  -0.037885
     4  C    0.534676   0.290258
     5  C   -0.345761  -0.124250
     6  C    0.213046  -0.808305
     7  C   -0.790310  -0.020580
     8  C    0.811154  -0.490778
     9  S    0.289045  -0.400290
    10  C   -0.194323  -0.224728
    11  N   -0.295590  -0.037555
    12  N   -0.233207   0.051021
    13  H   -0.262138   0.402357
    14  H   -0.483782   0.631224
    15  H   -0.022088   0.152811
    16  H   -0.007368   0.144968
    17  H   -0.393929   0.552127
    18  H    0.153867  -0.004864
    19  H   -0.011794   0.174551
    20  H    0.335395  -0.157562
    21  H    0.067985   0.065427
    22  H   -0.108657   0.284760
    23  H    0.020383   0.119725
    24  H   -0.169304   0.310037
    25  H   -0.112203   0.252698
    26  H   -0.007004   0.132498
    27  H   -0.062447   0.352310
    28  H    0.238146  -0.011598
    29  H   -0.131221   0.364255
    30  H   -0.102147   0.364758
 Sum of Mulliken charges =  -1.00000   1.00000

 Dipole moment (field-independent basis, Debye):
    X=              1.2176    Y=              0.3734    Z=              2.2976  Tot=              2.6270
 Quadrupole moment (field-independent basis, Debye-Ang):
   XX=           -200.8066   YY=           -121.4898   ZZ=           -113.1493
   XY=             -4.3571   XZ=             -0.5540   YZ=              1.0619

 Summary of Natural Population Analysis:

                                       Natural Population
                Natural  -----------------------------------------------
    Atom  No    Charge         Core      Valence    Rydberg      Total
 -----------------------------------------------------------------------
      C    1   -0.28711      0.99967     2.28197    0.00547     3.28711
      C    2   -0.19251      0.99964     2.18430    0.00857     3.19251
      C    3   -0.18465      0.99961     2.17542    0.00962     3.18465
      C    4   -0.12708      0.99957     2.11594    0.01157     3.12708
      C    5   -0.18763      0.99962     2.17910    0.00890     3.18763
      C    6   -0.29035      0.99966     2.28488    0.00581     3.29035
      C    7   -0.06032      0.99947     2.04902    0.01183     3.06032
      C    8   -0.18255      0.99941     2.17161    0.01152     3.18255
      S    9    0.09946      4.99948     2.88145    0.01960     7.90054
      C   10    0.15667      0.99967     1.82087    0.02280     2.84333
      N   11   -0.36528      0.99967     2.85337    0.01223     3.86528
      N   12   -0.40893      0.99969     2.89706    0.01218     3.90893
      H   13    0.09582      0.00000     0.40301    0.00118     0.40418
      H   14    0.10087      0.00000     0.39790    0.00123     0.39913
      H   15    0.09561      0.00000     0.40329    0.00110     0.40439
      H   16    0.09584      0.00000     0.40272    0.00144     0.40416
      H   17    0.09702      0.00000     0.40179    0.00119     0.40298
      H   18    0.09606      0.00000     0.40276    0.00118     0.40394
      H   19    0.09884      0.00000     0.40011    0.00104     0.40116
      H   20    0.10004      0.00000     0.39758    0.00238     0.39996
      H   21    0.09739      0.00000     0.40150    0.00111     0.40261
      H   22    0.10073      0.00000     0.39799    0.00128     0.39927
      H   23    0.09583      0.00000     0.40318    0.00100     0.40417
      H   24    0.10067      0.00000     0.39849    0.00084     0.39933
      H   25    0.09720      0.00000     0.40184    0.00096     0.40280
      H   26    0.09562      0.00000     0.40303    0.00135     0.40438
      H   27    0.10140      0.00000     0.39703    0.00157     0.39860
      H   28    0.17547      0.00000     0.32253    0.00200     0.32453
      H   29    0.19196      0.00000     0.30515    0.00288     0.30804
      H   30    0.19391      0.00000     0.30247    0.00362     0.30609
 =======================================================================
   * Total *   -0.00000     15.99516    34.83736    0.16748    51.00000

 Normal termination of Gaussian 16 at Wed Dec  9 18:54:11 2020.
