 Gaussian 16, Revision A.03,

 -----------------------------------------------------------
 # opt freq B3LYP/6-31G(d) empiricaldispersion=gd3bj scf=xqc
 -----------------------------------------------------------

 ------------------------------
 CID_82723692_JID_7658_neutraal
 ------------------------------
 Symbolic Z-matrix:
 Charge =  0 Multiplicity = 1

 SCF Done:  E(RB3LYP) =  -805.742586470     A.U. after   16 cycles
 SCF Done:  E(RB3LYP) =  -805.746515080     A.U. after   13 cycles
 SCF Done:  E(RB3LYP) =  -805.741532197     A.U. after   14 cycles
 SCF Done:  E(RB3LYP) =  -805.747896943     A.U. after   13 cycles
 SCF Done:  E(RB3LYP) =  -805.745980248     A.U. after   13 cycles
 SCF Done:  E(RB3LYP) =  -805.751334237     A.U. after   13 cycles
 SCF Done:  E(RB3LYP) =  -805.752807978     A.U. after   12 cycles
 SCF Done:  E(RB3LYP) =  -805.753549664     A.U. after   12 cycles
 SCF Done:  E(RB3LYP) =  -805.754541181     A.U. after   12 cycles
 SCF Done:  E(RB3LYP) =  -805.755217773     A.U. after   12 cycles
 SCF Done:  E(RB3LYP) =  -805.755985824     A.U. after    8 cycles
 SCF Done:  E(RB3LYP) =  -805.755986053     A.U. after    8 cycles
 SCF Done:  E(RB3LYP) =  -805.755986274     A.U. after    8 cycles
 SCF Done:  E(RB3LYP) =  -805.755986344     A.U. after    8 cycles
 SCF Done:  E(RB3LYP) =  -805.755986345     A.U. after    7 cycles
 Optimization completed.
    -- Stationary point found.
 Normal termination of Gaussian 16 at Fri Dec 11 13:22:25 2020.

 --------------------------------------------------------------------
 #N Geom=AllCheck Guess=TCheck SCRF=Check GenChk RB3LYP/6-31G(d) Freq
 --------------------------------------------------------------------

 Structure from the checkpoint file:  "JID_7658.chk"
 ------------------------------
 CID_82723692_JID_7658_neutraal
 ------------------------------
 Charge =  0 Multiplicity = 1

 SCF Done:  E(RB3LYP) =  -805.755986345     A.U. after    1 cycles

  Exact polarizability: 153.390  -3.983 152.780  -0.013  -1.666 130.297
 Approx polarizability: 193.469  -9.924 218.960   8.559  -9.930 208.335

                      1                      2                      3
                      A                      A                      A
 Frequencies --     19.4288                34.7488                55.3568
 Red. masses --      3.9594                 3.5016                 3.6614
 Frc consts  --      0.0009                 0.0025                 0.0066
 IR Inten    --      3.0011                 2.4893                 0.3868

                      4                      5                      6
                      A                      A                      A
 Frequencies --     74.8824                91.2026               103.5102
 Red. masses --      3.6065                 4.4473                 4.1906
 Frc consts  --      0.0119                 0.0218                 0.0265
 IR Inten    --      0.4171                 0.2233                 0.7016

                      7                      8                      9
                      A                      A                      A
 Frequencies --    106.2055               134.2977               171.8645
 Red. masses --      3.6435                 4.2655                 2.1412
 Frc consts  --      0.0242                 0.0453                 0.0373
 IR Inten    --      1.4965                 0.7640                 2.6857

                     10                     11                     12
                      A                      A                      A
 Frequencies --    194.5456               219.6665               234.2183
 Red. masses --      2.9659                 1.1243                 1.1195
 Frc consts  --      0.0661                 0.0320                 0.0362
 IR Inten    --      6.4034                 1.0980                 0.5050

                     13                     14                     15
                      A                      A                      A
 Frequencies --    251.8533               258.1118               265.2147
 Red. masses --      2.4836                 1.3079                 1.4487
 Frc consts  --      0.0928                 0.0513                 0.0600
 IR Inten    --      3.8896                 1.4819                 0.1401

                     16                     17                     18
                      A                      A                      A
 Frequencies --    267.7741               276.5158               288.5598
 Red. masses --      1.2273                 2.1248                 1.7978
 Frc consts  --      0.0519                 0.0957                 0.0882
 IR Inten    --      1.1255                 1.0479                 1.6673

                     19                     20                     21
                      A                      A                      A
 Frequencies --    309.3905               342.3993               350.9641
 Red. masses --      2.7645                 2.6167                 2.6362
 Frc consts  --      0.1559                 0.1807                 0.1913
 IR Inten    --      1.7730                 0.4628                 3.6223

                     22                     23                     24
                      A                      A                      A
 Frequencies --    410.7222               418.7146               430.6330
 Red. masses --      4.4169                 2.6118                 3.2877
 Frc consts  --      0.4390                 0.2698                 0.3592
 IR Inten    --      7.0907                 0.8279                 3.7212

                     25                     26                     27
                      A                      A                      A
 Frequencies --    437.6655               462.2453               503.6852
 Red. masses --      3.0444                 2.9145                 2.8696
 Frc consts  --      0.3436                 0.3669                 0.4289
 IR Inten    --      4.9664                 7.0274                 0.4957

                     28                     29                     30
                      A                      A                      A
 Frequencies --    542.6590               570.4980               587.9707
 Red. masses --      2.8997                 2.7751                 2.7881
 Frc consts  --      0.5031                 0.5322                 0.5679
 IR Inten    --     16.4125                53.9159                24.8115

                     31                     32                     33
                      A                      A                      A
 Frequencies --    619.9400               676.3725               713.3374
 Red. masses --      4.1410                 4.6114                 3.0834
 Frc consts  --      0.9377                 1.2430                 0.9244
 IR Inten    --      3.0846                17.1717                36.3728

                     34                     35                     36
                      A                      A                      A
 Frequencies --    766.2937               775.0622               784.1083
 Red. masses --      4.3457                 3.8606                 3.4903
 Frc consts  --      1.5035                 1.3664                 1.2644
 IR Inten    --     32.3394                 3.8127                64.3076

                     37                     38                     39
                      A                      A                      A
 Frequencies --    839.0765               885.1610               899.4213
 Red. masses --      2.6664                 2.7378                 3.3172
 Frc consts  --      1.1060                 1.2639                 1.5811
 IR Inten    --     24.4708                 3.1309                70.1762

                     40                     41                     42
                      A                      A                      A
 Frequencies --    929.8049               942.3390               944.4190
 Red. masses --      1.6624                 1.5567                 1.3034
 Frc consts  --      0.8468                 0.8145                 0.6850
 IR Inten    --      0.8452                 2.7439                 0.2592

                     43                     44                     45
                      A                      A                      A
 Frequencies --    960.4001               965.6946               976.6162
 Red. masses --      1.3471                 1.6154                 1.2050
 Frc consts  --      0.7321                 0.8876                 0.6772
 IR Inten    --      1.1075                 3.9235                 0.5438

                     46                     47                     48
                      A                      A                      A
 Frequencies --    992.2420              1038.2016              1053.8952
 Red. masses --      2.5124                 3.5411                 1.4290
 Frc consts  --      1.4574                 2.2488                 0.9352
 IR Inten    --      7.0728                 2.0458                 3.2683

                     49                     50                     51
                      A                      A                      A
 Frequencies --   1062.4455              1071.2158              1087.8693
 Red. masses --      1.5542                 1.9187                 3.7108
 Frc consts  --      1.0336                 1.2972                 2.5874
 IR Inten    --      5.2665                 1.7708                 3.0771

                     52                     53                     54
                      A                      A                      A
 Frequencies --   1094.2706              1105.2211              1158.0152
 Red. masses --      3.7476                 1.9575                 2.2268
 Frc consts  --      2.6439                 1.4088                 1.7594
 IR Inten    --     18.9888                 8.3792                10.1448

                     55                     56                     57
                      A                      A                      A
 Frequencies --   1200.4347              1213.5017              1232.8668
 Red. masses --      1.2163                 1.9689                 2.1368
 Frc consts  --      1.0327                 1.7083                 1.9136
 IR Inten    --      8.7190                 0.6438                95.0089

                     58                     59                     60
                      A                      A                      A
 Frequencies --   1248.2462              1279.3978              1283.6897
 Red. masses --      1.2014                 2.6968                 3.0799
 Frc consts  --      1.1029                 2.6008                 2.9902
 IR Inten    --      6.3517                47.7944                96.6992

                     61                     62                     63
                      A                      A                      A
 Frequencies --   1300.3132              1302.9027              1308.0122
 Red. masses --      2.3036                 1.6595                 2.1190
 Frc consts  --      2.2949                 1.6598                 2.1361
 IR Inten    --      9.7202                 5.5476                59.1057

                     64                     65                     66
                      A                      A                      A
 Frequencies --   1341.6318              1366.1387              1375.5168
 Red. masses --      1.2224                 1.5905                 3.2899
 Frc consts  --      1.2964                 1.7489                 3.6675
 IR Inten    --      0.9310                37.6435                89.9924

                     67                     68                     69
                      A                      A                      A
 Frequencies --   1386.8301              1409.3795              1422.4852
 Red. masses --      1.3091                 1.4448                 1.2989
 Frc consts  --      1.4834                 1.6908                 1.5485
 IR Inten    --      5.5864                15.3526                22.0383

                     70                     71                     72
                      A                      A                      A
 Frequencies --   1425.0592              1427.5842              1439.7524
 Red. masses --      1.2801                 1.2813                 1.3844
 Frc consts  --      1.5316                 1.5385                 1.6907
 IR Inten    --     11.8092                 4.6459                19.6017

                     73                     74                     75
                      A                      A                      A
 Frequencies --   1444.2355              1452.3398              1478.1125
 Red. masses --      1.2552                 1.2307                 2.1451
 Frc consts  --      1.5425                 1.5295                 2.7613
 IR Inten    --      1.9538                10.3920               100.5294

                     76                     77                     78
                      A                      A                      A
 Frequencies --   1499.6375              1503.8961              1514.9263
 Red. masses --      1.0871                 1.0502                 1.0444
 Frc consts  --      1.4404                 1.3994                 1.4122
 IR Inten    --      4.1620                 0.3449                 1.4511

                     79                     80                     81
                      A                      A                      A
 Frequencies --   1517.7198              1520.0987              1521.8792
 Red. masses --      1.0503                 1.0495                 1.0522
 Frc consts  --      1.4254                 1.4289                 1.4359
 IR Inten    --      0.2711                 0.6335                 0.9906

                     82                     83                     84
                      A                      A                      A
 Frequencies --   1525.4641              1531.2570              1535.2023
 Red. masses --      1.0576                 1.0473                 1.0607
 Frc consts  --      1.4500                 1.4469                 1.4728
 IR Inten    --      0.7724                11.0937                 1.7003

                     85                     86                     87
                      A                      A                      A
 Frequencies --   1538.1858              1552.4622              1566.1796
 Red. masses --      1.0615                 1.0565                 1.0986
 Frc consts  --      1.4798                 1.5003                 1.5877
 IR Inten    --      3.1847                 7.2566                18.4564

                     88                     89                     90
                      A                      A                      A
 Frequencies --   1792.7381              1800.5857              3048.5779
 Red. masses --      9.3794                11.8938                 1.0373
 Frc consts  --     17.7606                22.7195                 5.6801
 IR Inten    --    317.6874               330.3769                16.0939

                     91                     92                     93
                      A                      A                      A
 Frequencies --   3051.6472              3054.4968              3062.8064
 Red. masses --      1.0415                 1.0353                 1.0631
 Frc consts  --      5.7145                 5.6912                 5.8757
 IR Inten    --      6.5387                15.4933                45.5068

                     94                     95                     96
                      A                      A                      A
 Frequencies --   3065.4210              3072.3633              3094.8043
 Red. masses --      1.0351                 1.0373                 1.0864
 Frc consts  --      5.7309                 5.7693                 6.1304
 IR Inten    --     13.0378                 8.9478                 4.7069

                     97                     98                     99
                      A                      A                      A
 Frequencies --   3102.4280              3110.1668              3114.0591
 Red. masses --      1.0645                 1.0940                 1.0979
 Frc consts  --      6.0369                 6.2348                 6.2726
 IR Inten    --     15.1830                12.5343                 2.2771

                    100                    101                    102
                      A                      A                      A
 Frequencies --   3122.7217              3124.9830              3126.1803
 Red. masses --      1.1018                 1.0974                 1.0895
 Frc consts  --      6.3304                 6.3140                 6.2737
 IR Inten    --     15.4170                61.2164                22.5652

                    103                    104                    105
                      A                      A                      A
 Frequencies --   3131.3237              3132.4777              3134.9412
 Red. masses --      1.1031                 1.1030                 1.1021
 Frc consts  --      6.3728                 6.3768                 6.3817
 IR Inten    --      6.0786                20.8667                41.4964

                    106                    107                    108
                      A                      A                      A
 Frequencies --   3136.3340              3140.9035              3145.2514
 Red. masses --      1.1008                 1.1025                 1.1027
 Frc consts  --      6.3796                 6.4084                 6.4273
 IR Inten    --      7.6633                32.1437                21.7953

                    109                    110                    111
                      A                      A                      A
 Frequencies --   3152.2509              3160.4727              3510.9846
 Red. masses --      1.1017                 1.1013                 1.0765
 Frc consts  --      6.4500                 6.4815                 7.8183
 IR Inten    --      5.5722                12.8473                 9.9845

 - Thermochemistry -
 -------------------
 Temperature   298.150 Kelvin.  Pressure   1.00000 Atm.
 Atom     1 has atomic number  6 and mass  12.00000

 Molecular mass:   242.16304 amu.
 Principal axes and moments of inertia in atomic units:
                           1         2         3
     Eigenvalues --  3077.852304881.504896061.70494
           X            0.99910   0.03355  -0.02594
           Y           -0.03285   0.99909   0.02714
           Z            0.02683  -0.02626   0.99929
 This molecule is an asymmetric top.
 Rotational symmetry number  1.
 Warning -- assumption of classical behavior for rotation
           may cause significant error
 Rotational temperatures (Kelvin)      0.02814     0.01774     0.01429
 Rotational constants (GHZ):           0.58636     0.36971     0.29773
 Zero-point vibrational energy     896069.9 (Joules/Mol)
                                  214.16584 (Kcal/Mol)
 Warning -- explicit consideration of  31 degrees of freedom as
           vibrations may cause significant error
 Vibrational temperatures:     27.95    50.00    79.65   107.74   131.22
          (Kelvin)            148.93   152.81   193.22   247.27   279.91
                              316.05   336.99   362.36   371.37   381.58
                              385.27   397.84   415.17   445.14   492.64
                              504.96   590.94   602.44   619.58   629.70
                              665.07   724.69   780.77   820.82   845.96
                              891.96   973.15  1026.33  1102.53  1115.14
                             1128.16  1207.24  1273.55  1294.07  1337.78
                             1355.82  1358.81  1381.80  1389.42  1405.13
                             1427.61  1493.74  1516.32  1528.62  1541.24
                             1565.20  1574.41  1590.17  1666.13  1727.16
                             1745.96  1773.82  1795.95  1840.77  1846.94
                             1870.86  1874.59  1881.94  1930.31  1965.57
                             1979.06  1995.34  2027.78  2046.64  2050.34
                             2053.98  2071.48  2077.93  2089.59  2126.67
                             2157.64  2163.77  2179.64  2183.66  2187.08
                             2189.64  2194.80  2203.14  2208.81  2213.11
                             2233.65  2253.38  2579.35  2590.64  4386.22
                             4390.64  4394.74  4406.70  4410.46  4420.45
                             4452.73  4463.70  4474.84  4480.44  4492.90
                             4496.15  4497.88  4505.28  4506.94  4510.48
                             4512.49  4519.06  4525.32  4535.39  4547.22
                             5051.52

 Zero-point correction=                           0.341295 (Hartree/Particle)
 Thermal correction to Energy=                    0.360253
 Thermal correction to Enthalpy=                  0.361197
 Thermal correction to Gibbs Free Energy=         0.293856
 Sum of electronic and zero-point Energies=           -805.414691
 Sum of electronic and thermal Energies=              -805.395733
 Sum of electronic and thermal Enthalpies=            -805.394789
 Sum of electronic and thermal Free Energies=         -805.462130

                     E (Thermal)             CV                S
                      KCal/Mol        Cal/Mol-Kelvin    Cal/Mol-Kelvin
 Total                  226.062             71.024            141.731
 Electronic               0.000              0.000              0.000
 Translational            0.889              2.981             42.354
 Rotational               0.889              2.981             32.876
 Vibrational            224.285             65.062             66.501
 Vibration     1          0.593              1.986              6.692
 Vibration     2          0.594              1.983              5.538
 Vibration     3          0.596              1.975              4.616
 Vibration     4          0.599              1.966              4.021
 Vibration     5          0.602              1.955              3.634
 Vibration     6          0.605              1.946              3.387
 Vibration     7          0.605              1.944              3.337
 Vibration     8          0.613              1.919              2.884
 Vibration     9          0.626              1.877              2.415
 Vibration    10          0.635              1.847              2.184
 Vibration    11          0.647              1.811              1.962
 Vibration    12          0.654              1.789              1.846
 Vibration    13          0.664              1.760              1.718
 Vibration    14          0.667              1.749              1.675
 Vibration    15          0.671              1.737              1.627
 Vibration    16          0.673              1.732              1.611
 Vibration    17          0.678              1.717              1.555
 Vibration    18          0.685              1.695              1.482
 Vibration    19          0.699              1.656              1.366
 Vibration    20          0.722              1.591              1.201
 Vibration    21          0.728              1.573              1.162
 Vibration    22          0.775              1.447              0.924
 Vibration    23          0.782              1.430              0.896
 Vibration    24          0.792              1.404              0.857
 Vibration    25          0.798              1.388              0.834
 Vibration    26          0.820              1.334              0.760
 Vibration    27          0.859              1.242              0.649
 Vibration    28          0.898              1.156              0.560
 Vibration    29          0.927              1.095              0.503
 Vibration    30          0.945              1.057              0.471
 Vibration    31          0.980              0.990              0.417

 Optimization completed.
    -- Stationary point found.
 Normal termination of Gaussian 16 at Fri Dec 11 13:38:00 2020.

 ----------------------------------------------------------------------
 # B3LYP/6-311++G(d,p) empiricaldispersion=gd3bj scf=xqc pop=npa geom=c
 heck
 ----------------------------------------------------------------------

 --------------------------------------
 CID_82723692_JID_7658_Energie_neutraal
 --------------------------------------
 Structure from the checkpoint file:  "JID_7658.chk"
 Charge =  0 Multiplicity = 1

 SCF Done:  E(RB3LYP) =  -805.991558406     A.U. after   15 cycles
 Normal termination of Gaussian 16 at Fri Dec 11 13:44:55 2020.

 ----------------------------------------------------------------------
 # B3LYP/6-311++G(d,p) empiricaldispersion=gd3bj scf=xqc pop=npa geom=c
 heck
 ----------------------------------------------------------------------

 ------------------------------------
 CID_82723692_JID_7658_Energie_kation
 ------------------------------------
 Structure from the checkpoint file:  "JID_7658.chk"
 Charge =  1 Multiplicity = 2

 SCF Done:  E(UB3LYP) =  -805.679257999     A.U. after   28 cycles
 Normal termination of Gaussian 16 at Fri Dec 11 14:01:56 2020.
 Gaussian 16:  ES64L-G16RevA.03 25-Dec-2016

 ----------------------------------------------------------------------
 # B3LYP/6-311++G(d,p) empiricaldispersion=gd3bj scf=xqc pop=npa geom=c
 heck
 ----------------------------------------------------------------------

 -----------------------------------
 CID_82723692_JID_7658_Energie_anion
 -----------------------------------
 Structure from the checkpoint file:  "JID_7658.chk"
 Charge = -1 Multiplicity = 2

                         Standard orientation:
 ---------------------------------------------------------------------
 Center     Atomic      Atomic             Coordinates (Angstroms)
 Number     Number       Type             X           Y           Z
 ---------------------------------------------------------------------
      1          6           0        2.173694   -2.093633   -1.006089
      2          6           0        2.766520   -0.906397   -0.242032
      3          6           0        3.960822   -0.289066   -0.980371
      4          7           0        1.756629    0.104876    0.061571
      5          6           0        0.974747    0.788244   -0.952976
      6          6           0        0.256991    1.939036   -0.190610
      7          6           0        0.525282    1.668972    1.310972
      8          6           0        1.536021    0.529536    1.345411
      9          8           0        2.068724    0.071902    2.345867
     10          6           0       -1.215087    2.108762   -0.521269
     11          8           0       -1.691059    3.168349   -0.896872
     12          7           0       -2.056025    1.003744   -0.412351
     13          8           0       -1.632838   -0.019879    0.462167
     14          6           0       -2.161548   -1.333011    0.099080
     15          6           0       -1.756693   -1.723671   -1.321251
     16          6           0       -1.505689   -2.233456    1.144189
     17          6           0       -3.685643   -1.322119    0.255969
     18          1           0        1.795750   -1.792041   -1.990415
     19          1           0        1.352421   -2.549162   -0.444668
     20          1           0        2.941117   -2.858002   -1.167917
     21          1           0        3.100587   -1.247584    0.742191
     22          1           0        3.676620    0.075746   -1.974512
     23          1           0        4.373924    0.548457   -0.409720
     24          1           0        4.750329   -1.036129   -1.115723
     25          1           0        0.261286    0.108929   -1.426214
     26          1           0        1.619550    1.192450   -1.741465
     27          1           0        0.704264    2.891846   -0.477293
     28          1           0       -0.365331    1.358904    1.860532
     29          1           0        0.944512    2.540829    1.819852
     30          1           0       -3.017040    1.284249   -0.225093
     31          1           0       -2.088533   -0.968030   -2.038507
     32          1           0       -0.673215   -1.837081   -1.402570
     33          1           0       -2.218508   -2.679603   -1.589665
     34          1           0       -1.822542   -1.950265    2.152497
     35          1           0       -1.783745   -3.277750    0.970915
     36          1           0       -0.416700   -2.144283    1.091688
     37          1           0       -3.964772   -0.943934    1.245003
     38          1           0       -4.165627   -0.703487   -0.510471
     39          1           0       -4.083694   -2.336546    0.151585
 ---------------------------------------------------------------------

 SCF Done:  E(UB3LYP) =  -805.982842749     A.U. after   33 cycles
 SCF Done:  E(UB3LYP) =  -805.982842749     a.u. after    1 cycles

 The electronic state is 2-A.
 Alpha  occ. eigenvalues --  -19.08319 -19.02097 -18.99819 -14.29787 -14.25214
 Alpha  occ. eigenvalues --  -10.20071 -10.18009 -10.15188 -10.12756 -10.12314
 Alpha  occ. eigenvalues --  -10.11433 -10.09710 -10.07589 -10.07455 -10.07441
 Alpha  occ. eigenvalues --  -10.07361 -10.07051  -1.01352  -0.96112  -0.94984
 Alpha  occ. eigenvalues --   -0.86276  -0.78961  -0.73719  -0.69847  -0.67866
 Alpha  occ. eigenvalues --   -0.63992  -0.61092  -0.60898  -0.60514  -0.57433
 Alpha  occ. eigenvalues --   -0.52485  -0.50590  -0.50106  -0.45295  -0.42438
 Alpha  occ. eigenvalues --   -0.41294  -0.40973  -0.39438  -0.38956  -0.37297
 Alpha  occ. eigenvalues --   -0.36611  -0.35461  -0.35109  -0.34742  -0.33740
 Alpha  occ. eigenvalues --   -0.33649  -0.33028  -0.31981  -0.31180  -0.30766
 Alpha  occ. eigenvalues --   -0.30099  -0.29530  -0.29098  -0.28680  -0.28400
 Alpha  occ. eigenvalues --   -0.27507  -0.27330  -0.26408  -0.25659  -0.25327
 Alpha  occ. eigenvalues --   -0.25068  -0.22403  -0.18932  -0.16877  -0.16630
 Alpha  occ. eigenvalues --   -0.15707   0.03810
 Alpha virt. eigenvalues --    0.05576   0.06590   0.06970   0.07543   0.08101
 Alpha virt. eigenvalues --    0.08280   0.08650   0.09639   0.09798   0.10232
 Alpha virt. eigenvalues --    0.10432   0.10684   0.11106   0.11572   0.12145

  Beta  occ. eigenvalues --  -19.08314 -19.02094 -18.99817 -14.29768 -14.25214
  Beta  occ. eigenvalues --  -10.20071 -10.18009 -10.15185 -10.12736 -10.12310
  Beta  occ. eigenvalues --  -10.11426 -10.09705 -10.07556 -10.07407 -10.07405
  Beta  occ. eigenvalues --  -10.07337 -10.07016  -1.01343  -0.96108  -0.94981
  Beta  occ. eigenvalues --   -0.86270  -0.78936  -0.73703  -0.69814  -0.67840
  Beta  occ. eigenvalues --   -0.63968  -0.61028  -0.60838  -0.60451  -0.57399
  Beta  occ. eigenvalues --   -0.52447  -0.50565  -0.50054  -0.45268  -0.42386
  Beta  occ. eigenvalues --   -0.41269  -0.40953  -0.39409  -0.38933  -0.37275
  Beta  occ. eigenvalues --   -0.36573  -0.35434  -0.35085  -0.34713  -0.33721
  Beta  occ. eigenvalues --   -0.33631  -0.32994  -0.31959  -0.31148  -0.30735
  Beta  occ. eigenvalues --   -0.30065  -0.29501  -0.29064  -0.28649  -0.28366
  Beta  occ. eigenvalues --   -0.27478  -0.27308  -0.26380  -0.25631  -0.25294
  Beta  occ. eigenvalues --   -0.25050  -0.22379  -0.18921  -0.16863  -0.16623
  Beta  occ. eigenvalues --   -0.15698
  Beta virt. eigenvalues --    0.05941   0.06576   0.06989   0.07260   0.08168
  Beta virt. eigenvalues --    0.08542   0.08733   0.09092   0.09903   0.10068
  Beta virt. eigenvalues --    0.10455   0.10658   0.11078   0.11418   0.11749

 Mulliken charges and spin densities:
               1          2
     1  C    0.791774  -1.327788
     2  C   -1.705892   1.766755
     3  C    0.870503  -1.391581
     4  N    0.244540  -0.014885
     5  C    0.087626  -0.709054
     6  C    0.629864  -0.052663
     7  C   -0.299270  -0.369891
     8  C    0.018541   0.009827
     9  O   -0.326213   0.006974
    10  C   -0.131417  -0.097512
    11  O   -0.297692   0.010185
    12  N   -0.286669  -0.050977
    13  O    0.236311  -0.016194
    14  C   -1.691542   1.855784
    15  C    0.929015  -1.504692
    16  C    0.047941  -0.542491
    17  C    0.922650  -1.479303
    18  H   -0.107963   0.278257
    19  H   -0.129179   0.269073
    20  H   -0.464413   0.634284
    21  H    0.115808   0.095241
    22  H   -0.159799   0.307992
    23  H    0.008085   0.147744
    24  H   -0.247908   0.399128
    25  H    0.187619  -0.051100
    26  H   -0.067894   0.252668
    27  H    0.106415   0.175623
    28  H    0.186537   0.030496
    29  H    0.137266   0.061200
    30  H    0.178187   0.129911
    31  H   -0.004879   0.205983
    32  H    0.300440  -0.219216
    33  H   -0.444951   0.618306
    34  H    0.038645   0.113539
    35  H   -0.130577   0.297426
    36  H    0.222699  -0.075062
    37  H   -0.232675   0.400776
    38  H   -0.264761   0.403536
    39  H   -0.266774   0.431703
 Sum of Mulliken charges =  -1.00000   1.00000

 Dipole moment (field-independent basis, Debye):
    X=              0.9754    Y=              3.5776    Z=              1.6123  Tot=              4.0435
 Quadrupole moment (field-independent basis, Debye-Ang):
   XX=           -184.4636   YY=           -164.6544   ZZ=           -150.5651
   XY=             -0.2249   XZ=             -0.9477   YZ=             -0.6811

 Summary of Natural Population Analysis:

                                       Natural Population
                Natural  -----------------------------------------------
    Atom  No    Charge         Core      Valence    Rydberg      Total
 -----------------------------------------------------------------------
      C    1   -0.28887      0.99964     2.28375    0.00548     3.28887
      C    2   -0.01170      0.99960     2.00053    0.01158     3.01170
      C    3   -0.28825      0.99964     2.28352    0.00508     3.28825
      N    4   -0.25616      0.99962     2.74446    0.01209     3.75616
      C    5   -0.07475      0.99960     2.06508    0.01006     3.07475
      C    6   -0.15359      0.99956     2.14295    0.01108     3.15359
      C    7   -0.22427      0.99958     2.21736    0.00733     3.22427
      C    8    0.35191      0.99963     1.62600    0.02246     2.64809
      O    9   -0.32582      0.99987     3.32073    0.00522     4.32582
      C   10    0.34532      0.99965     1.63288    0.02216     2.65468
      O   11   -0.30767      0.99988     3.30206    0.00574     4.30767
      N   12   -0.16985      0.99962     2.65804    0.01219     3.66985
      O   13   -0.23619      0.99987     3.22331    0.01301     4.23619
      C   14    0.13451      0.99955     1.84990    0.01605     2.86549
      C   15   -0.30322      0.99959     2.29636    0.00727     3.30322
      C   16   -0.29061      0.99959     2.28365    0.00738     3.29061
      C   17   -0.30210      0.99960     2.29562    0.00688     3.30210
      H   18    0.09837      0.00000     0.40029    0.00133     0.40163
      H   19    0.10269      0.00000     0.39587    0.00143     0.39731
      H   20    0.10434      0.00000     0.39465    0.00101     0.39566
      H   21    0.11151      0.00000     0.38642    0.00207     0.38849
      H   22    0.09826      0.00000     0.40057    0.00118     0.40174
      H   23    0.10197      0.00000     0.39706    0.00097     0.39803
      H   24    0.10299      0.00000     0.39610    0.00091     0.39701
      H   25    0.10007      0.00000     0.39740    0.00253     0.39993
      H   26    0.09713      0.00000     0.40160    0.00127     0.40287
      H   27    0.11418      0.00000     0.38471    0.00111     0.38582
      H   28    0.12092      0.00000     0.37767    0.00141     0.37908
      H   29    0.10999      0.00000     0.38899    0.00101     0.39001
      H   30    0.18798      0.00000     0.30940    0.00262     0.31202
      H   31    0.10788      0.00000     0.39072    0.00140     0.39212
      H   32    0.10274      0.00000     0.39549    0.00177     0.39726
      H   33    0.10877      0.00000     0.38982    0.00141     0.39123
      H   34    0.10419      0.00000     0.39485    0.00096     0.39581
      H   35    0.10596      0.00000     0.39312    0.00093     0.39404
      H   36    0.10588      0.00000     0.39256    0.00156     0.39412
      H   37    0.10412      0.00000     0.39466    0.00122     0.39588
      H   38    0.10132      0.00000     0.39712    0.00156     0.39868
      H   39    0.11006      0.00000     0.38813    0.00181     0.38994
 =======================================================================
   * Total *   -0.00000     16.99409    48.79340    0.21251    66.00000

 Normal termination of Gaussian 16 at Fri Dec 11 14:22:20 2020.
