 Gaussian 16, Revision A.03,

 -----------------------------------------------------------
 # opt freq B3LYP/6-31G(d) empiricaldispersion=gd3bj scf=xqc
 -----------------------------------------------------------

 ------------------------------
 CID_65364374_JID_6050_neutraal
 ------------------------------
 Symbolic Z-matrix:
 Charge =  0 Multiplicity = 1

 SCF Done:  E(RB3LYP) =  -1106.87502615     A.U. after   15 cycles
 SCF Done:  E(RB3LYP) =  -1106.88004728     A.U. after   13 cycles
 SCF Done:  E(RB3LYP) =  -1106.87964496     A.U. after   15 cycles
 SCF Done:  E(RB3LYP) =  -1106.88075231     A.U. after   13 cycles
 SCF Done:  E(RB3LYP) =  -1106.88132345     A.U. after   13 cycles
 SCF Done:  E(RB3LYP) =  -1106.88129923     A.U. after   14 cycles
 SCF Done:  E(RB3LYP) =  -1106.88205414     A.U. after   13 cycles
 SCF Done:  E(RB3LYP) =  -1106.88232679     A.U. after   11 cycles
 SCF Done:  E(RB3LYP) =  -1106.88225870     A.U. after   14 cycles
 SCF Done:  E(RB3LYP) =  -1106.88276406     A.U. after   12 cycles
 SCF Done:  E(RB3LYP) =  -1106.88590626     A.U. after   10 cycles
 SCF Done:  E(RB3LYP) =  -1106.88590726     A.U. after    9 cycles
 SCF Done:  E(RB3LYP) =  -1106.88590746     A.U. after    7 cycles
 SCF Done:  E(RB3LYP) =  -1106.88590748     A.U. after    7 cycles
 SCF Done:  E(RB3LYP) =  -1106.88590749     A.U. after    6 cycles
 Optimization completed.
    -- Stationary point found.
 Normal termination of Gaussian 16 at Thu Dec 10 21:40:17 2020.

 --------------------------------------------------------------------
 #N Geom=AllCheck Guess=TCheck SCRF=Check GenChk RB3LYP/6-31G(d) Freq
 --------------------------------------------------------------------

 Structure from the checkpoint file:  "JID_6050.chk"
 ------------------------------
 CID_65364374_JID_6050_neutraal
 ------------------------------
 Charge =  0 Multiplicity = 1

 SCF Done:  E(RB3LYP) =  -1106.88590749     A.U. after    1 cycles

  Exact polarizability: 187.467  -1.844 170.048 -18.997   1.349 102.529
 Approx polarizability: 255.706   3.919 268.890 -42.302   2.722 165.215

                      1                      2                      3
                      A                      A                      A
 Frequencies --     23.0464                32.8483                35.8647
 Red. masses --      4.8008                 3.7836                 3.0085
 Frc consts  --      0.0015                 0.0024                 0.0023
 IR Inten    --      0.5605                 0.7798                 0.1597

                      4                      5                      6
                      A                      A                      A
 Frequencies --     60.9947                65.0498                71.3020
 Red. masses --      2.4675                 5.5333                 1.3456
 Frc consts  --      0.0054                 0.0138                 0.0040
 IR Inten    --      0.1869                 1.2250                 0.4703

                      7                      8                      9
                      A                      A                      A
 Frequencies --    121.0227               160.0674               172.7192
 Red. masses --      3.5167                 2.2605                 1.4455
 Frc consts  --      0.0303                 0.0341                 0.0254
 IR Inten    --      1.8702                 2.7151                 0.6028

                     10                     11                     12
                      A                      A                      A
 Frequencies --    181.7914               185.7505               210.1690
 Red. masses --      5.9384                 1.9224                 3.2066
 Frc consts  --      0.1156                 0.0391                 0.0835
 IR Inten    --      0.2874                 2.0618                 0.5720

                     13                     14                     15
                      A                      A                      A
 Frequencies --    231.6605               258.3317               263.4050
 Red. masses --      4.2909                 4.9747                 1.4841
 Frc consts  --      0.1357                 0.1956                 0.0607
 IR Inten    --      1.4271                 0.0584                 1.7011

                     16                     17                     18
                      A                      A                      A
 Frequencies --    307.3568               331.0520               361.8960
 Red. masses --      2.8375                 7.8499                 2.5628
 Frc consts  --      0.1579                 0.5069                 0.1978
 IR Inten    --      3.9702                 0.7998                 4.0285

                     19                     20                     21
                      A                      A                      A
 Frequencies --    411.8501               434.7245               458.1624
 Red. masses --      4.7131                 5.7315                 2.7373
 Frc consts  --      0.4710                 0.6382                 0.3385
 IR Inten    --      1.9799                 6.0408                20.6068

                     22                     23                     24
                      A                      A                      A
 Frequencies --    478.7654               530.0225               547.4246
 Red. masses --      4.5393                 3.4916                 3.4322
 Frc consts  --      0.6130                 0.5779                 0.6060
 IR Inten    --      2.9805                 8.2501                13.1721

                     25                     26                     27
                      A                      A                      A
 Frequencies --    573.1136               590.7768               623.1198
 Red. masses --      5.0992                 3.0305                 4.0170
 Frc consts  --      0.9868                 0.6232                 0.9190
 IR Inten    --      5.2223                19.4467                 3.1928

                     28                     29                     30
                      A                      A                      A
 Frequencies --    623.8427               673.7467               737.8003
 Red. masses --      1.7475                 6.0049                 4.3922
 Frc consts  --      0.4007                 1.6060                 1.4087
 IR Inten    --     72.9094                66.2853                17.2126

                     31                     32                     33
                      A                      A                      A
 Frequencies --    747.6805               803.7113               812.0783
 Red. masses --      4.6034                 7.6391                 1.1228
 Frc consts  --      1.5162                 2.9073                 0.4363
 IR Inten    --     50.5924                21.6816                 2.7011

                     34                     35                     36
                      A                      A                      A
 Frequencies --    852.7025               873.4148               881.4219
 Red. masses --      2.4545                 1.3349                 5.0475
 Frc consts  --      1.0515                 0.6000                 2.3104
 IR Inten    --      9.9930                 8.5895                50.0627

                     37                     38                     39
                      A                      A                      A
 Frequencies --    956.7617               992.3648              1010.1161
 Red. masses --      1.9174                 3.9304                 2.9752
 Frc consts  --      1.0341                 2.2805                 1.7886
 IR Inten    --      4.5186                 4.4429                18.4583

                     40                     41                     42
                      A                      A                      A
 Frequencies --   1033.1325              1059.5780              1070.4365
 Red. masses --      1.5043                 1.4739                 1.5974
 Frc consts  --      0.9460                 0.9749                 1.0784
 IR Inten    --      7.4785                 4.5744                 7.5825

                     43                     44                     45
                      A                      A                      A
 Frequencies --   1075.6423              1102.3671              1103.3416
 Red. masses --      1.5652                 6.9789                 2.7285
 Frc consts  --      1.0670                 4.9968                 1.9570
 IR Inten    --      0.4769                73.1723                78.8049

                     46                     47                     48
                      A                      A                      A
 Frequencies --   1140.7395              1193.6683              1214.0175
 Red. masses --      2.7511                 2.1144                 1.8527
 Frc consts  --      2.1093                 1.7751                 1.6088
 IR Inten    --    175.4590               195.4574                58.6043

                     49                     50                     51
                      A                      A                      A
 Frequencies --   1244.2393              1283.1596              1310.1806
 Red. masses --      1.5508                 5.9333                 2.4613
 Frc consts  --      1.4145                 5.7558                 2.4893
 IR Inten    --     14.3317                65.6331                50.7841

                     52                     53                     54
                      A                      A                      A
 Frequencies --   1316.1226              1350.8167              1358.9331
 Red. masses --      1.6251                 1.1290                 1.2123
 Frc consts  --      1.6585                 1.2137                 1.3190
 IR Inten    --      7.6451                 2.0361                11.0606

                     55                     56                     57
                      A                      A                      A
 Frequencies --   1381.7396              1395.3494              1415.1519
 Red. masses --      2.6913                 4.5325                 1.2247
 Frc consts  --      3.0274                 5.1994                 1.4451
 IR Inten    --     51.8723                66.5204                 5.7517

                     58                     59                     60
                      A                      A                      A
 Frequencies --   1436.5306              1440.4483              1443.9897
 Red. masses --      1.3224                 1.2853                 1.2249
 Frc consts  --      1.6078                 1.5712                 1.5048
 IR Inten    --     13.2478                23.1898                 3.5747

                     61                     62                     63
                      A                      A                      A
 Frequencies --   1472.1091              1486.3195              1504.4151
 Red. masses --      3.2048                 1.1296                 1.0530
 Frc consts  --      4.0920                 1.4702                 1.4042
 IR Inten    --     21.7383                 6.8886                 8.7089

                     64                     65                     66
                      A                      A                      A
 Frequencies --   1505.5378              1516.0960              1518.8070
 Red. masses --      1.0965                 1.1122                 1.1650
 Frc consts  --      1.4643                 1.5062                 1.5834
 IR Inten    --     42.0666                39.1741                16.8222

                     67                     68                     69
                      A                      A                      A
 Frequencies --   1522.3185              1525.2295              1541.7704
 Red. masses --      1.0463                 1.0536                 1.0813
 Frc consts  --      1.4286                 1.4441                 1.5144
 IR Inten    --      6.9648                 0.5783                 4.5688

                     70                     71                     72
                      A                      A                      A
 Frequencies --   1600.1519              1635.5211              1813.3052
 Red. masses --      5.9383                 6.0712                 9.6973
 Frc consts  --      8.9585                 9.5683                18.7865
 IR Inten    --    143.5282               152.6666               361.0725

                     73                     74                     75
                      A                      A                      A
 Frequencies --   3038.0723              3046.2032              3057.0403
 Red. masses --      1.0658                 1.0625                 1.0419
 Frc consts  --      5.7961                 5.8089                 5.7370
 IR Inten    --     38.8084                 6.5386                37.9644

                     76                     77                     78
                      A                      A                      A
 Frequencies --   3058.6070              3070.6574              3102.8203
 Red. masses --      1.0361                 1.0357                 1.0989
 Frc consts  --      5.7108                 5.7536                 6.2333
 IR Inten    --     12.9045                15.8374                 4.2361

                     79                     80                     81
                      A                      A                      A
 Frequencies --   3118.7978              3122.4735              3134.2067
 Red. masses --      1.1005                 1.1003                 1.1040
 Frc consts  --      6.3072                 6.3208                 6.3898
 IR Inten    --      8.9935                45.6111                37.7767

                     82                     83                     84
                      A                      A                      A
 Frequencies --   3138.0806              3143.8431              3145.1721
 Red. masses --      1.1005                 1.1033                 1.1037
 Frc consts  --      6.3850                 6.4247                 6.4324
 IR Inten    --      7.9748                15.6446                16.8188

                     85                     86                     87
                      A                      A                      A
 Frequencies --   3188.9799              3203.6923              3685.7327
 Red. masses --      1.0962                 1.0912                 1.0639
 Frc consts  --      6.5684                 6.5989                 8.5154
 IR Inten    --      1.5734                13.9042                72.7696

 - Thermochemistry -
 -------------------
 Temperature   298.150 Kelvin.  Pressure   1.00000 Atm.
 Atom     1 has atomic number  6 and mass  12.00000

 Molecular mass:   241.07727 amu.
 Principal axes and moments of inertia in atomic units:
                           1         2         3
     Eigenvalues --  2873.098325426.467777317.34445
           X            0.99966  -0.02603   0.00291
           Y            0.02605   0.99964  -0.00656
           Z           -0.00274   0.00664   0.99997
 This molecule is an asymmetric top.
 Rotational symmetry number  1.
 Warning -- assumption of classical behavior for rotation
           may cause significant error
 Rotational temperatures (Kelvin)      0.03015     0.01596     0.01184
 Rotational constants (GHZ):           0.62815     0.33258     0.24664
 Zero-point vibrational energy     657667.8 (Joules/Mol)
                                  157.18638 (Kcal/Mol)
 Warning -- explicit consideration of  26 degrees of freedom as
           vibrations may cause significant error
 Vibrational temperatures:     33.16    47.26    51.60    87.76    93.59
          (Kelvin)            102.59   174.12   230.30   248.50   261.56
                              267.25   302.39   333.31   371.68   378.98
                              442.22   476.31   520.69   592.56   625.47
                              659.19   688.84   762.58   787.62   824.58
                              850.00   896.53   897.57   969.37  1061.53
                             1075.75  1156.36  1168.40  1226.85  1256.65
                             1268.17  1376.57  1427.79  1453.33  1486.45
                             1524.50  1540.12  1547.61  1586.06  1587.46
                             1641.27  1717.42  1746.70  1790.18  1846.18
                             1885.06  1893.61  1943.52  1955.20  1988.02
                             2007.60  2036.09  2066.85  2072.48  2077.58
                             2118.04  2138.48  2164.52  2166.13  2181.32
                             2185.22  2190.28  2194.47  2218.26  2302.26
                             2353.15  2608.94  4371.11  4382.81  4398.40
                             4400.65  4417.99  4464.27  4487.25  4492.54
                             4509.42  4515.00  4523.29  4525.20  4588.23
                             4609.40  5302.95

 Zero-point correction=                           0.250492 (Hartree/Particle)
 Thermal correction to Energy=                    0.267850
 Thermal correction to Enthalpy=                  0.268794
 Thermal correction to Gibbs Free Energy=         0.203000
 Sum of electronic and zero-point Energies=          -1106.635415
 Sum of electronic and thermal Energies=             -1106.618058
 Sum of electronic and thermal Enthalpies=           -1106.617114
 Sum of electronic and thermal Free Energies=        -1106.682907

                     E (Thermal)             CV                S
                      KCal/Mol        Cal/Mol-Kelvin    Cal/Mol-Kelvin
 Total                  168.078             62.267            138.475
 Electronic               0.000              0.000              0.000
 Translational            0.889              2.981             42.341
 Rotational               0.889              2.981             33.100
 Vibrational            166.301             56.306             63.034
 Vibration     1          0.593              1.985              6.353
 Vibration     2          0.594              1.983              5.650
 Vibration     3          0.594              1.982              5.475
 Vibration     4          0.597              1.973              4.425
 Vibration     5          0.597              1.971              4.298
 Vibration     6          0.598              1.968              4.117
 Vibration     7          0.609              1.932              3.084
 Vibration     8          0.622              1.891              2.549
 Vibration     9          0.626              1.876              2.406
 Vibration    10          0.630              1.865              2.310
 Vibration    11          0.632              1.859              2.270
 Vibration    12          0.642              1.825              2.042
 Vibration    13          0.653              1.793              1.866
 Vibration    14          0.667              1.749              1.673
 Vibration    15          0.670              1.740              1.639
 Vibration    16          0.697              1.660              1.377
 Vibration    17          0.713              1.613              1.255
 Vibration    18          0.736              1.551              1.114
 Vibration    19          0.776              1.445              0.920
 Vibration    20          0.795              1.395              0.843
 Vibration    21          0.816              1.343              0.771
 Vibration    22          0.835              1.297              0.713
 Vibration    23          0.885              1.184              0.587
 Vibration    24          0.903              1.145              0.550
 Vibration    25          0.929              1.089              0.498
 Vibration    26          0.948              1.051              0.466

 Optimization completed.
    -- Stationary point found.
 Normal termination of Gaussian 16 at Thu Dec 10 21:49:59 2020.

 ----------------------------------------------------------------------
 # B3LYP/6-311++G(d,p) empiricaldispersion=gd3bj scf=xqc pop=npa geom=c
 heck
 ----------------------------------------------------------------------

 --------------------------------------
 CID_65364374_JID_6050_Energie_neutraal
 --------------------------------------
 Structure from the checkpoint file:  "JID_6050.chk"
 Charge =  0 Multiplicity = 1

 SCF Done:  E(RB3LYP) =  -1107.11837306     A.U. after   16 cycles
 Normal termination of Gaussian 16 at Thu Dec 10 21:54:23 2020.

 ----------------------------------------------------------------------
 # B3LYP/6-311++G(d,p) empiricaldispersion=gd3bj scf=xqc pop=npa geom=c
 heck
 ----------------------------------------------------------------------

 ------------------------------------
 CID_65364374_JID_6050_Energie_kation
 ------------------------------------
 Structure from the checkpoint file:  "JID_6050.chk"
 Charge =  1 Multiplicity = 2

 SCF Done:  E(UB3LYP) =  -1106.82182673     A.U. after   25 cycles
 Normal termination of Gaussian 16 at Thu Dec 10 22:06:12 2020.
 Gaussian 16:  ES64L-G16RevA.03 25-Dec-2016

 ----------------------------------------------------------------------
 # B3LYP/6-311++G(d,p) empiricaldispersion=gd3bj scf=xqc pop=npa geom=c
 heck
 ----------------------------------------------------------------------

 -----------------------------------
 CID_65364374_JID_6050_Energie_anion
 -----------------------------------
 Structure from the checkpoint file:  "JID_6050.chk"
 Charge = -1 Multiplicity = 2

                         Standard orientation:
 ---------------------------------------------------------------------
 Center     Atomic      Atomic             Coordinates (Angstroms)
 Number     Number       Type             X           Y           Z
 ---------------------------------------------------------------------
      1          6           0       -4.923310    0.494046   -0.864074
      2          6           0       -3.455967    0.307045   -1.238090
      3          8           0       -2.803817   -0.685687   -0.446047
      4          6           0       -2.462013   -0.293299    0.848713
      5         16           0       -1.094922    0.949082    0.957809
      6          6           0        0.294679   -0.089939    0.488721
      7          6           0        1.522025    0.465981    0.044659
      8          6           0        2.534077   -0.420665   -0.380024
      9          6           0        2.274932   -1.790131   -0.306736
     10          6           0        1.045597   -2.246705    0.163833
     11          7           0        0.080465   -1.400516    0.546608
     12          6           0        0.722869   -3.712262    0.271267
     13          6           0        3.870452    0.045553   -0.898724
     14          6           0        1.768657    1.928012   -0.029551
     15          8           0        2.448970    2.487691   -0.866990
     16          8           0        1.169029    2.615168    0.972391
     17          1           0       -5.457933   -0.459301   -0.925786
     18          1           0       -5.398740    1.204597   -1.549924
     19          1           0       -5.040967    0.887697    0.151372
     20          1           0       -3.370777   -0.054104   -2.267298
     21          1           0       -2.907418    1.256659   -1.171820
     22          1           0       -3.288249    0.190259    1.386142
     23          1           0       -2.137982   -1.190217    1.371986
     24          1           0        3.035362   -2.499823   -0.616870
     25          1           0       -0.168017   -3.944022   -0.322397
     26          1           0        1.551878   -4.336353   -0.073380
     27          1           0        0.493073   -3.973736    1.310287
     28          1           0        4.329061    0.785281   -0.236385
     29          1           0        4.550603   -0.804403   -1.002792
     30          1           0        3.759584    0.534033   -1.870609
     31          1           0        1.340582    3.558544    0.791466
 ---------------------------------------------------------------------

 SCF Done:  E(UB3LYP) =  -1107.12200515     A.U. after   33 cycles
 SCF Done:  E(UB3LYP) =  -1107.12200515     a.u. after    1 cycles

 The electronic state is 2-A.
 Alpha  occ. eigenvalues --  -88.71635 -19.02276 -19.02082 -18.94988 -14.15695
 Alpha  occ. eigenvalues --  -10.13642 -10.12267 -10.11572 -10.09574 -10.07193
 Alpha  occ. eigenvalues --  -10.05173 -10.04308 -10.04156 -10.03604 -10.03111
 Alpha  occ. eigenvalues --  -10.02819  -7.80278  -5.76653  -5.76242  -5.75718
 Alpha  occ. eigenvalues --   -0.96107  -0.93517  -0.86562  -0.80471  -0.68013
 Alpha  occ. eigenvalues --   -0.67642  -0.65901  -0.61915  -0.59051  -0.56395
 Alpha  occ. eigenvalues --   -0.55374  -0.50420  -0.48866  -0.45226  -0.43307
 Alpha  occ. eigenvalues --   -0.39572  -0.38936  -0.37788  -0.35990  -0.34131
 Alpha  occ. eigenvalues --   -0.33355  -0.32158  -0.31154  -0.30615  -0.30198
 Alpha  occ. eigenvalues --   -0.29886  -0.28425  -0.28277  -0.27652  -0.27386
 Alpha  occ. eigenvalues --   -0.26324  -0.25464  -0.24837  -0.23851  -0.23502
 Alpha  occ. eigenvalues --   -0.21966  -0.19149  -0.18322  -0.15513  -0.14860
 Alpha  occ. eigenvalues --   -0.14087  -0.13059  -0.11363  -0.09230   0.04864
 Alpha virt. eigenvalues --    0.06323   0.08469   0.09039   0.09273   0.09885
 Alpha virt. eigenvalues --    0.09941   0.10498   0.11219   0.11484   0.12174
 Alpha virt. eigenvalues --    0.13153   0.13176   0.13637   0.13798   0.14219

  Beta  occ. eigenvalues --  -88.71635 -19.02196 -19.02080 -18.94689 -14.15724
  Beta  occ. eigenvalues --  -10.13393 -10.12263 -10.11570 -10.09480 -10.07177
  Beta  occ. eigenvalues --  -10.04700 -10.04194 -10.03995 -10.03629 -10.02952
  Beta  occ. eigenvalues --  -10.02934  -7.80278  -5.76655  -5.76245  -5.75712
  Beta  occ. eigenvalues --   -0.95796  -0.93515  -0.86113  -0.80183  -0.67750
  Beta  occ. eigenvalues --   -0.67273  -0.65702  -0.61783  -0.58726  -0.56362
  Beta  occ. eigenvalues --   -0.55264  -0.50141  -0.48683  -0.45020  -0.42921
  Beta  occ. eigenvalues --   -0.39545  -0.38902  -0.37539  -0.35787  -0.33818
  Beta  occ. eigenvalues --   -0.33234  -0.32073  -0.30551  -0.30266  -0.30036
  Beta  occ. eigenvalues --   -0.29237  -0.28227  -0.27993  -0.27463  -0.27301
  Beta  occ. eigenvalues --   -0.26258  -0.25237  -0.24606  -0.23544  -0.23291
  Beta  occ. eigenvalues --   -0.21837  -0.18955  -0.17283  -0.15012  -0.14621
  Beta  occ. eigenvalues --   -0.13801  -0.12042  -0.11138  -0.08485
  Beta virt. eigenvalues --    0.06551   0.08424   0.09063   0.09239   0.09840
  Beta virt. eigenvalues --    0.09939   0.10518   0.10801   0.11508   0.11601
  Beta virt. eigenvalues --    0.12220   0.13064   0.13281   0.13596   0.13795

 Mulliken charges and spin densities:
               1          2
     1  C    0.085564  -0.545051
     2  C   -0.388310   0.232524
     3  O   -0.011438   0.011615
     4  C   -0.409134  -0.123615
     5  S   -0.027766   0.000102
     6  C   -0.568770   0.081739
     7  C    0.091153   0.128698
     8  C    0.685492   0.196485
     9  C   -0.567623  -0.078437
    10  C   -0.036888   0.276320
    11  N    0.297767  -0.022064
    12  C   -0.599852  -0.035553
    13  C   -0.422993  -0.019085
    14  C   -0.239627   0.171682
    15  O   -0.360914   0.095342
    16  O   -0.176999   0.008325
    17  H    0.080443   0.066440
    18  H   -0.087658   0.209326
    19  H   -0.059799   0.180604
    20  H    0.083075   0.070227
    21  H    0.144512  -0.027538
    22  H    0.132820   0.023190
    23  H    0.240292  -0.011701
    24  H    0.081905   0.006220
    25  H    0.123459   0.033478
    26  H    0.120952   0.000320
    27  H    0.116578   0.025064
    28  H    0.158817   0.012699
    29  H    0.092068   0.000528
    30  H    0.179131   0.014107
    31  H    0.243744   0.018013
 Sum of Mulliken charges =  -1.00000   1.00000

 Dipole moment (field-independent basis, Debye):
    X=             -1.6873    Y=             -1.0073    Z=              0.5899  Tot=              2.0517
 Quadrupole moment (field-independent basis, Debye-Ang):
   XX=           -145.0204   YY=           -127.2741   ZZ=           -117.2967
   XY=             -7.0609   XZ=              1.6309   YZ=              3.7302

 Summary of Natural Population Analysis:

                                       Natural Population
                Natural  -----------------------------------------------
    Atom  No    Charge         Core      Valence    Rydberg      Total
 -----------------------------------------------------------------------
      C    1   -0.30068      0.99967     2.29665    0.00437     3.30068
      C    2   -0.01951      0.99960     2.00576    0.01415     3.01951
      O    3   -0.29373      0.99988     3.28239    0.01146     4.29373
      C    4   -0.08209      0.99959     2.06615    0.01635     3.08209
      S    5    0.09630      4.99957     2.88500    0.01913     7.90370
      C    6    0.06225      0.99951     1.91813    0.02012     2.93775
      C    7   -0.02969      0.99935     2.01988    0.01047     3.02969
      C    8    0.06278      0.99956     1.92375    0.01391     2.93722
      C    9   -0.16151      0.99948     2.15458    0.00746     3.16151
      C   10    0.19479      0.99955     1.79360    0.01206     2.80521
      N   11   -0.28250      0.99962     2.76885    0.01403     3.78250
      C   12   -0.29911      0.99965     2.29486    0.00461     3.29911
      C   13   -0.29715      0.99964     2.29257    0.00494     3.29715
      C   14    0.41700      0.99971     1.55700    0.02628     2.58300
      O   15   -0.30274      0.99987     3.29615    0.00672     4.30274
      O   16   -0.34714      0.99988     3.33963    0.00764     4.34714
      H   17    0.09751      0.00000     0.40086    0.00164     0.40249
      H   18    0.09777      0.00000     0.40085    0.00138     0.40223
      H   19    0.09598      0.00000     0.40253    0.00149     0.40402
      H   20    0.08667      0.00000     0.41207    0.00127     0.41333
      H   21    0.08842      0.00000     0.40987    0.00171     0.41158
      H   22    0.07856      0.00000     0.41907    0.00237     0.42144
      H   23    0.11111      0.00000     0.38705    0.00185     0.38889
      H   24    0.09082      0.00000     0.40801    0.00117     0.40918
      H   25    0.10579      0.00000     0.39315    0.00106     0.39421
      H   26    0.09118      0.00000     0.40805    0.00077     0.40882
      H   27    0.10288      0.00000     0.39606    0.00106     0.39712
      H   28    0.10671      0.00000     0.39218    0.00111     0.39329
      H   29    0.08867      0.00000     0.41020    0.00113     0.41133
      H   30    0.11385      0.00000     0.38516    0.00099     0.38615
      H   31    0.22890      0.00000     0.26599    0.00511     0.27110
 =======================================================================
   * Total *    0.00207     19.99411    43.78604    0.21778    63.99793

 Normal termination of Gaussian 16 at Thu Dec 10 22:21:44 2020.
