 Gaussian 16, Revision A.03,

 -----------------------------------------------------------
 # opt freq B3LYP/6-31G(d) empiricaldispersion=gd3bj scf=xqc
 -----------------------------------------------------------

 -----------------------------
 CID_2456333_JID_4677_neutraal
 -----------------------------
 Symbolic Z-matrix:
 Charge =  0 Multiplicity = 1

 SCF Done:  E(RB3LYP) =  -934.137828265     A.U. after   15 cycles
 SCF Done:  E(RB3LYP) =  -934.141015109     A.U. after   12 cycles
 SCF Done:  E(RB3LYP) =  -934.141292190     A.U. after   12 cycles
 SCF Done:  E(RB3LYP) =  -934.141477240     A.U. after   10 cycles
 SCF Done:  E(RB3LYP) =  -934.141498800     A.U. after   10 cycles
 SCF Done:  E(RB3LYP) =  -934.141513980     A.U. after   11 cycles
 SCF Done:  E(RB3LYP) =  -934.141522590     A.U. after    9 cycles
 SCF Done:  E(RB3LYP) =  -934.141537805     A.U. after   10 cycles
 SCF Done:  E(RB3LYP) =  -934.141542762     A.U. after   10 cycles
 SCF Done:  E(RB3LYP) =  -934.141544053     A.U. after    9 cycles
 SCF Done:  E(RB3LYP) =  -934.141544682     A.U. after    8 cycles
 Optimization completed.
    -- Stationary point found.
 Normal termination of Gaussian 16 at Thu Dec 10 10:20:02 2020.

 --------------------------------------------------------------------
 #N Geom=AllCheck Guess=TCheck SCRF=Check GenChk RB3LYP/6-31G(d) Freq
 --------------------------------------------------------------------

 Structure from the checkpoint file:  "JID_4677.chk"
 -----------------------------
 CID_2456333_JID_4677_neutraal
 -----------------------------
 Charge =  0 Multiplicity = 1

 SCF Done:  E(RB3LYP) =  -934.141544682     A.U. after    1 cycles

  Exact polarizability: 247.466   1.536 141.951   5.775  -4.132  66.001
 Approx polarizability: 333.043  -3.563 261.672  13.725 -10.765 100.202

                      1                      2                      3
                      A                      A                      A
 Frequencies --     28.6392                33.7954                47.4794
 Red. masses --      2.8074                 6.2861                 4.1076
 Frc consts  --      0.0014                 0.0042                 0.0055
 IR Inten    --      0.0308                 0.8208                 0.0131

                      4                      5                      6
                      A                      A                      A
 Frequencies --    102.0414               115.8779               210.0159
 Red. masses --      4.2612                 4.1209                 4.7090
 Frc consts  --      0.0261                 0.0326                 0.1224
 IR Inten    --      0.0365                 0.9087                 0.3532

                      7                      8                      9
                      A                      A                      A
 Frequencies --    219.3562               251.7794               270.4211
 Red. masses --      1.3259                 6.3880                 4.4637
 Frc consts  --      0.0376                 0.2386                 0.1923
 IR Inten    --      0.0282                 2.4696                 2.7538

                     10                     11                     12
                      A                      A                      A
 Frequencies --    291.8187               381.5749               399.6615
 Red. masses --      2.9421                 2.4903                 2.0859
 Frc consts  --      0.1476                 0.2136                 0.1963
 IR Inten    --      0.2060                 2.1566                24.5005

                     13                     14                     15
                      A                      A                      A
 Frequencies --    419.3444               426.1760               518.8497
 Red. masses --      3.2147                 1.9273                 3.6428
 Frc consts  --      0.3331                 0.2062                 0.5778
 IR Inten    --      0.1696                56.1585                 3.7917

                     16                     17                     18
                      A                      A                      A
 Frequencies --    527.4393               565.9034               582.8509
 Red. masses --      3.4690                 2.8950                 9.0367
 Frc consts  --      0.5686                 0.5462                 1.8087
 IR Inten    --     25.4917                13.9572                 4.1839

                     19                     20                     21
                      A                      A                      A
 Frequencies --    603.0940               658.0533               690.3218
 Red. masses --      3.5085                 6.9240                 1.4299
 Frc consts  --      0.7519                 1.7666                 0.4015
 IR Inten    --     12.6911                 0.1268                14.7265

                     22                     23                     24
                      A                      A                      A
 Frequencies --    731.9862               739.6748               761.6580
 Red. masses --      5.5966                 4.9533                 3.8790
 Frc consts  --      1.7668                 1.5967                 1.3258
 IR Inten    --      1.5778                 3.3115                 3.0883

                     25                     26                     27
                      A                      A                      A
 Frequencies --    798.6874               824.0925               844.8911
 Red. masses --      1.1771                 1.4211                 6.8776
 Frc consts  --      0.4424                 0.5686                 2.8926
 IR Inten    --      1.0015                21.6594                 9.2774

                     28                     29                     30
                      A                      A                      A
 Frequencies --    860.0515               862.2608               883.5180
 Red. masses --      3.6199                 1.5867                 5.0416
 Frc consts  --      1.5776                 0.6950                 2.3187
 IR Inten    --      8.5693                19.0802                10.0637

                     31                     32                     33
                      A                      A                      A
 Frequencies --    889.4735               939.4006               978.2840
 Red. masses --      1.3069                 1.3052                 1.3303
 Frc consts  --      0.6092                 0.6786                 0.7501
 IR Inten    --      1.6700                 0.0256                 0.9826

                     34                     35                     36
                      A                      A                      A
 Frequencies --    981.1034              1041.7258              1080.5090
 Red. masses --      2.2654                 2.8212                 1.4741
 Frc consts  --      1.2848                 1.8038                 1.0140
 IR Inten    --      1.9327                 0.3837                 0.3943

                     37                     38                     39
                      A                      A                      A
 Frequencies --   1092.6541              1094.0846              1151.9493
 Red. masses --      1.4922                 1.8296                 2.2631
 Frc consts  --      1.0496                 1.2904                 1.7694
 IR Inten    --     25.6684                 8.5816                80.8680

                     40                     41                     42
                      A                      A                      A
 Frequencies --   1161.5501              1220.7360              1243.3830
 Red. masses --      1.2850                 1.1462                 2.5514
 Frc consts  --      1.0215                 1.0063                 2.3240
 IR Inten    --     11.2126                 7.0143                 0.6648

                     43                     44                     45
                      A                      A                      A
 Frequencies --   1252.1101              1285.4805              1296.1770
 Red. masses --      2.7633                 1.5914                 1.8713
 Frc consts  --      2.5525                 1.5494                 1.8524
 IR Inten    --     27.4636                 9.4652                57.3187

                     46                     47                     48
                      A                      A                      A
 Frequencies --   1343.4458              1362.6234              1373.7188
 Red. masses --      2.0274                 1.6062                 1.7421
 Frc consts  --      2.1560                 1.7571                 1.9369
 IR Inten    --      1.5795                65.1615                 0.6945

                     49                     50                     51
                      A                      A                      A
 Frequencies --   1373.8166              1435.2584              1465.3852
 Red. masses --      2.3893                 1.2206                 2.7434
 Frc consts  --      2.6569                 1.4814                 3.4709
 IR Inten    --     41.1517                 1.7445                52.4892

                     52                     53                     54
                      A                      A                      A
 Frequencies --   1517.4115              1525.7810              1538.0313
 Red. masses --      1.0650                 1.0413                 1.0826
 Frc consts  --      1.4448                 1.4282                 1.5088
 IR Inten    --      0.8625                 7.4486                 2.2915

                     55                     56                     57
                      A                      A                      A
 Frequencies --   1540.5961              1564.2343              1585.5351
 Red. masses --      3.4522                 2.3823                 2.5050
 Frc consts  --      4.8276                 3.4344                 3.7103
 IR Inten    --      8.4799                43.0174               194.0785

                     58                     59                     60
                      A                      A                      A
 Frequencies --   1611.3745              1651.7832              1678.6904
 Red. masses --      8.7259                 3.7947                 5.8392
 Frc consts  --     13.3491                 6.1001                 9.6949
 IR Inten    --    722.6103               127.6108                42.9254

                     61                     62                     63
                      A                      A                      A
 Frequencies --   3042.7269              3047.1170              3077.0300
 Red. masses --      1.0600                 1.0346                 1.1037
 Frc consts  --      5.7818                 5.6596                 6.1568
 IR Inten    --     40.5624                40.4922                10.4090

                     64                     65                     66
                      A                      A                      A
 Frequencies --   3116.8765              3121.9637              3162.6746
 Red. masses --      1.1027                 1.1034                 1.0872
 Frc consts  --      6.3119                 6.3365                 6.4074
 IR Inten    --     57.3518                34.6294                20.5301

                     67                     68                     69
                      A                      A                      A
 Frequencies --   3177.7505              3185.4171              3232.5957
 Red. masses --      1.0898                 1.0936                 1.0914
 Frc consts  --      6.4840                 6.5380                 6.7194
 IR Inten    --     21.6950                20.9301                14.5842

                     70                     71                     72
                      A                      A                      A
 Frequencies --   3266.1492              3289.0030              3624.9116
 Red. masses --      1.0920                 1.0978                 1.0763
 Frc consts  --      6.8635                 6.9970                 8.3329
 IR Inten    --      5.8090                 1.8924                29.0516

 - Thermochemistry -
 -------------------
 Temperature   298.150 Kelvin.  Pressure   1.00000 Atm.
 Atom     1 has atomic number  6 and mass  12.00000

 Molecular mass:   204.07212 amu.
 Principal axes and moments of inertia in atomic units:
                           1         2         3
     Eigenvalues --   840.132987288.899347934.89679
           X            0.99999   0.00154  -0.00455
           Y           -0.00153   1.00000   0.00252
           Z            0.00456  -0.00251   0.99999
 This molecule is an asymmetric top.
 Rotational symmetry number  1.
 Warning -- assumption of classical behavior for rotation
           may cause significant error
 Rotational temperatures (Kelvin)      0.10310     0.01188     0.01092
 Rotational constants (GHZ):           2.14816     0.24760     0.22744
 Zero-point vibrational energy     551908.1 (Joules/Mol)
                                  131.90921 (Kcal/Mol)
 Warning -- explicit consideration of  19 degrees of freedom as
           vibrations may cause significant error
 Vibrational temperatures:     41.21    48.62    68.31   146.81   166.72
          (Kelvin)            302.17   315.60   362.25   389.08   419.86
                              549.00   575.02   603.34   613.17   746.51
                              758.87   814.21   838.59   867.72   946.79
                              993.22  1053.16  1064.23  1095.86  1149.13
                             1185.69  1215.61  1237.42  1240.60  1271.19
                             1279.75  1351.59  1407.53  1411.59  1498.81
                             1554.61  1572.09  1574.14  1657.40  1671.21
                             1756.37  1788.95  1801.51  1849.52  1864.91
                             1932.92  1960.51  1976.47  1976.62  2065.02
                             2108.36  2183.22  2195.26  2212.88  2216.57
                             2250.58  2281.23  2318.41  2376.55  2415.26
                             4377.81  4384.12  4427.16  4484.49  4491.81
                             4550.38  4572.07  4583.10  4650.98  4699.26
                             4732.14  5215.44

 Zero-point correction=                           0.210211 (Hartree/Particle)
 Thermal correction to Energy=                    0.223066
 Thermal correction to Enthalpy=                  0.224010
 Thermal correction to Gibbs Free Energy=         0.168898
 Sum of electronic and zero-point Energies=           -933.931334
 Sum of electronic and thermal Energies=              -933.918479
 Sum of electronic and thermal Enthalpies=            -933.917535
 Sum of electronic and thermal Free Energies=         -933.972646

                     E (Thermal)             CV                S
                      KCal/Mol        Cal/Mol-Kelvin    Cal/Mol-Kelvin
 Total                  139.976             48.961            115.993
 Electronic               0.000              0.000              0.000
 Translational            0.889              2.981             41.844
 Rotational               0.889              2.981             32.252
 Vibrational            138.198             42.999             41.896
 Vibration     1          0.593              1.984              5.922
 Vibration     2          0.594              1.983              5.593
 Vibration     3          0.595              1.979              4.920
 Vibration     4          0.604              1.948              3.415
 Vibration     5          0.608              1.936              3.168
 Vibration     6          0.642              1.826              2.044
 Vibration     7          0.647              1.812              1.964
 Vibration     8          0.664              1.760              1.718
 Vibration     9          0.674              1.728              1.594
 Vibration    10          0.687              1.689              1.463
 Vibration    11          0.751              1.509              1.033
 Vibration    12          0.766              1.471              0.964
 Vibration    13          0.782              1.428              0.894
 Vibration    14          0.788              1.413              0.871
 Vibration    15          0.874              1.208              0.613
 Vibration    16          0.882              1.189              0.593
 Vibration    17          0.922              1.105              0.512
 Vibration    18          0.940              1.068              0.480
 Vibration    19          0.961              1.025              0.444

                           ! Non-Optimized Parameters !
 Normal termination of Gaussian 16 at Thu Dec 10 10:26:08 2020.

 ----------------------------------------------------------------------
 # B3LYP/6-311++G(d,p) empiricaldispersion=gd3bj scf=xqc pop=npa geom=c
 heck
 ----------------------------------------------------------------------

 -------------------------------------
 CID_2456333_JID_4677_Energie_neutraal
 -------------------------------------
 Structure from the checkpoint file:  "JID_4677.chk"
 Charge =  0 Multiplicity = 1

 SCF Done:  E(RB3LYP) =  -934.309865653     A.U. after   15 cycles
 Normal termination of Gaussian 16 at Thu Dec 10 10:28:52 2020.

 ----------------------------------------------------------------------
 # B3LYP/6-311++G(d,p) empiricaldispersion=gd3bj scf=xqc pop=npa geom=c
 heck
 ----------------------------------------------------------------------

 -----------------------------------
 CID_2456333_JID_4677_Energie_kation
 -----------------------------------
 Structure from the checkpoint file:  "JID_4677.chk"
 Charge =  1 Multiplicity = 2

 SCF Done:  E(UB3LYP) =  -934.047514334     A.U. after   21 cycles
 Normal termination of Gaussian 16 at Thu Dec 10 10:35:56 2020.
 Gaussian 16:  ES64L-G16RevA.03 25-Dec-2016

 ----------------------------------------------------------------------
 # B3LYP/6-311++G(d,p) empiricaldispersion=gd3bj scf=xqc pop=npa geom=c
 heck
 ----------------------------------------------------------------------

 ----------------------------------
 CID_2456333_JID_4677_Energie_anion
 ----------------------------------
 Structure from the checkpoint file:  "JID_4677.chk"
 Charge = -1 Multiplicity = 2

                         Standard orientation:
 ---------------------------------------------------------------------
 Center     Atomic      Atomic             Coordinates (Angstroms)
 Number     Number       Type             X           Y           Z
 ---------------------------------------------------------------------
      1          6           0       -5.185064    0.555051    0.993564
      2          6           0       -4.568627    0.354028   -0.400725
      3          6           0       -3.092797    0.037172   -0.336655
      4          6           0       -2.131004    1.052459   -0.342296
      5          6           0       -0.767227    0.787620   -0.233730
      6          6           0       -0.334493   -0.540102   -0.113622
      7          6           0       -1.285655   -1.572273   -0.107140
      8          6           0       -2.640044   -1.282339   -0.216798
      9          7           0        1.016816   -0.913237   -0.002214
     10          6           0        2.134061   -0.124635    0.019742
     11          7           0        2.173967    1.176369   -0.061962
     12          6           0        3.477088    1.626923   -0.006327
     13          6           0        4.449385    0.686326    0.118279
     14         16           0        3.726153   -0.906961    0.174523
     15          1           0       -5.066812   -0.347005    1.604285
     16          1           0       -6.254637    0.784545    0.924704
     17          1           0       -4.690811    1.378431    1.520948
     18          1           0       -5.098572   -0.456325   -0.917123
     19          1           0       -4.724942    1.260107   -0.999260
     20          1           0       -2.453362    2.087046   -0.437222
     21          1           0       -0.038408    1.585609   -0.244213
     22          1           0       -0.958714   -2.606796   -0.020195
     23          1           0       -3.359181   -2.098157   -0.211792
     24          1           0        1.179195   -1.906815    0.074577
     25          1           0        3.658470    2.694047   -0.063702
     26          1           0        5.520112    0.813379    0.180109
 ---------------------------------------------------------------------

 SCF Done:  E(UB3LYP) =  -934.298163200     A.U. after   33 cycles
 SCF Done:  E(UB3LYP) =  -934.298163200     a.u. after    1 cycles

 The electronic state is 2-A.
 Alpha  occ. eigenvalues --  -88.77604 -14.25300 -14.20286 -10.16889 -10.11373
 Alpha  occ. eigenvalues --  -10.10650 -10.09685 -10.06988 -10.06752 -10.06663
 Alpha  occ. eigenvalues --  -10.06652 -10.06557 -10.06060 -10.06020  -7.86205
 Alpha  occ. eigenvalues --   -5.82504  -5.82172  -5.81753  -0.88946  -0.83091
 Alpha  occ. eigenvalues --   -0.74941  -0.69742  -0.68440  -0.64546  -0.63845
 Alpha  occ. eigenvalues --   -0.60697  -0.53915  -0.52595  -0.49439  -0.48990
 Alpha  occ. eigenvalues --   -0.45887  -0.42748  -0.41209  -0.37655  -0.36535
 Alpha  occ. eigenvalues --   -0.35127  -0.33759  -0.33657  -0.32094  -0.31572
 Alpha  occ. eigenvalues --   -0.31178  -0.30313  -0.28326  -0.27137  -0.26598
 Alpha  occ. eigenvalues --   -0.25148  -0.23804  -0.23287  -0.22482  -0.18326
 Alpha  occ. eigenvalues --   -0.17716  -0.15205  -0.14882  -0.09652   0.04524
 Alpha virt. eigenvalues --    0.06273   0.06816   0.07167   0.08338   0.08684
 Alpha virt. eigenvalues --    0.08902   0.09198   0.09301   0.10628   0.10894
 Alpha virt. eigenvalues --    0.11113   0.12447   0.12595   0.12762   0.13128

  Beta  occ. eigenvalues --  -88.77586 -14.25269 -14.20276 -10.16792 -10.11339
  Beta  occ. eigenvalues --  -10.10644 -10.09602 -10.06977 -10.06721 -10.06646
  Beta  occ. eigenvalues --  -10.06635 -10.06537 -10.06027 -10.06006  -7.86187
  Beta  occ. eigenvalues --   -5.82469  -5.82164  -5.81718  -0.88841  -0.83021
  Beta  occ. eigenvalues --   -0.74879  -0.69612  -0.68362  -0.64474  -0.63764
  Beta  occ. eigenvalues --   -0.60621  -0.53830  -0.52499  -0.49349  -0.48908
  Beta  occ. eigenvalues --   -0.45797  -0.42632  -0.41105  -0.37587  -0.36472
  Beta  occ. eigenvalues --   -0.35063  -0.33659  -0.33497  -0.32031  -0.31481
  Beta  occ. eigenvalues --   -0.31134  -0.30229  -0.28220  -0.27048  -0.26430
  Beta  occ. eigenvalues --   -0.25112  -0.23752  -0.23248  -0.22367  -0.18160
  Beta  occ. eigenvalues --   -0.17636  -0.15045  -0.14696  -0.09516
  Beta virt. eigenvalues --    0.06719   0.06883   0.07677   0.08108   0.08570
  Beta virt. eigenvalues --    0.08941   0.09152   0.09385   0.09698   0.10876
  Beta virt. eigenvalues --    0.11087   0.11782   0.12601   0.12649   0.12767

 Mulliken charges and spin densities:
               1          2
     1  C    0.895556  -1.506688
     2  C   -0.159025  -0.182994
     3  C    0.573493   0.451378
     4  C   -0.578264   0.411183
     5  C   -0.283010   0.084275
     6  C    1.112814  -1.285366
     7  C    0.445254  -0.654582
     8  C   -0.585107  -0.185003
     9  N    0.040736   0.070168
    10  C    0.247505  -0.337291
    11  N   -0.060592  -0.034766
    12  C   -0.028311  -0.086120
    13  C   -0.429746   0.072647
    14  S   -0.228671   0.148106
    15  H   -0.042911   0.179627
    16  H   -0.381876   0.504023
    17  H   -0.014297   0.144431
    18  H   -0.256136   0.407173
    19  H   -0.104563   0.239013
    20  H    0.033735   0.117083
    21  H    0.236012   0.023885
    22  H   -1.140767   1.302022
    23  H   -0.270491   0.442459
    24  H   -0.346528   0.669020
    25  H    0.131038   0.002357
    26  H    0.194151   0.003961
 Sum of Mulliken charges =  -1.00000   1.00000

 Dipole moment (field-independent basis, Debye):
    X=              7.0110    Y=              5.0193    Z=             -0.3800  Tot=              8.6309
 Quadrupole moment (field-independent basis, Debye-Ang):
   XX=           -176.5926   YY=           -130.8422   ZZ=           -114.1925
   XY=              3.5712   XZ=              1.5893   YZ=             -0.3636

 Summary of Natural Population Analysis:

                                       Natural Population
                Natural  -----------------------------------------------
    Atom  No    Charge         Core      Valence    Rydberg      Total
 -----------------------------------------------------------------------
      C    1   -0.27993      0.99966     2.27528    0.00499     3.27993
      C    2   -0.19710      0.99961     2.18780    0.00968     3.19710
      C    3   -0.02338      0.99950     2.01323    0.01064     3.02338
      C    4   -0.09397      0.99952     2.08639    0.00806     3.09397
      C    5   -0.11861      0.99953     2.11104    0.00805     3.11861
      C    6    0.08362      0.99947     1.90452    0.01239     2.91638
      C    7   -0.10929      0.99953     2.09948    0.01027     3.10929
      C    8   -0.09331      0.99951     2.08380    0.01000     3.09331
      N    9   -0.29491      0.99961     2.78375    0.01154     3.79491
      C   10    0.15836      0.99961     1.82069    0.02134     2.84164
      N   11   -0.28252      0.99964     2.77114    0.01175     3.78252
      C   12   -0.01407      0.99954     2.00126    0.01327     3.01407
      C   13   -0.21256      0.99953     2.20377    0.00925     3.21256
      S   14    0.16462      4.99949     2.81500    0.02090     7.83538
      H   15    0.09774      0.00000     0.40125    0.00101     0.40226
      H   16    0.09730      0.00000     0.40094    0.00176     0.40270
      H   17    0.09545      0.00000     0.40361    0.00094     0.40455
      H   18    0.09988      0.00000     0.39866    0.00145     0.40012
      H   19    0.09653      0.00000     0.40232    0.00115     0.40347
      H   20    0.09603      0.00000     0.40305    0.00092     0.40397
      H   21    0.12007      0.00000     0.37854    0.00139     0.37993
      H   22    0.10391      0.00000     0.39251    0.00357     0.39609
      H   23    0.10091      0.00000     0.39782    0.00127     0.39909
      H   24    0.20346      0.00000     0.28823    0.00831     0.29654
      H   25    0.09511      0.00000     0.40395    0.00094     0.40489
      H   26    0.10665      0.00000     0.39258    0.00077     0.39335
 =======================================================================
   * Total *   -0.00000     17.99375    35.82064    0.18561    54.00000

 Normal termination of Gaussian 16 at Thu Dec 10 10:46:41 2020.
