 Gaussian 16, Revision A.03,

 -----------------------------------------------------------
 # opt freq B3LYP/6-31G(d) empiricaldispersion=gd3bj scf=xqc
 -----------------------------------------------------------

 -------------------------------
 CID_131973152_JID_3161_neutraal
 -------------------------------
 Symbolic Z-matrix:
 Charge =  0 Multiplicity = 1

 SCF Done:  E(RB3LYP) =  -569.204190365     A.U. after   15 cycles
 SCF Done:  E(RB3LYP) =  -569.218201121     A.U. after   13 cycles
 SCF Done:  E(RB3LYP) =  -569.219877935     A.U. after   12 cycles
 SCF Done:  E(RB3LYP) =  -569.220234713     A.U. after   12 cycles
 SCF Done:  E(RB3LYP) =  -569.221000728     A.U. after   14 cycles
 SCF Done:  E(RB3LYP) =  -569.221498861     A.U. after   13 cycles
 SCF Done:  E(RB3LYP) =  -569.221954707     A.U. after   12 cycles
 SCF Done:  E(RB3LYP) =  -569.222070599     A.U. after   12 cycles
 SCF Done:  E(RB3LYP) =  -569.222080641     A.U. after   11 cycles
 SCF Done:  E(RB3LYP) =  -569.222093479     A.U. after   10 cycles
 SCF Done:  E(RB3LYP) =  -569.223010427     A.U. after    9 cycles
 SCF Done:  E(RB3LYP) =  -569.223010149     A.U. after    9 cycles
 SCF Done:  E(RB3LYP) =  -569.223011491     A.U. after    9 cycles
 SCF Done:  E(RB3LYP) =  -569.223011686     A.U. after    7 cycles
 Optimization completed.
    -- Stationary point found.

 1\1\GINC-NODE125\FOpt\RB3LYP\6-31G(d)\C9H12N4\VSC10255\09-Dec-2020\0\\
 # opt freq B3LYP/6-31G(d) empiricaldispersion=gd3bj scf=xqc\\CID_13197
 3152_JID_3161_neutraal\\0,1\C,0.8056848993,-0.219299386,0.6544552381\C
 ,0.4662777444,-1.201228788,-0.4841450339\C,1.0958917871,-2.5746228314,
 -0.2477787888\C,-1.0372225436,-1.2611203642,-0.6578278626\N,-1.6828894
 144,-2.3435531998,-0.2703766691\C,-3.0272083979,-2.2954665043,-0.43337
 31126\N,-3.8859934899,-3.2800710757,-0.1124381199\N,-5.0915291407,-2.7
 685706464,-0.4568354162\C,-5.0556674183,-1.5220351142,-0.9767950414\C,

 Normal termination of Gaussian 16 at Wed Dec  9 22:33:37 2020.

 --------------------------------------------------------------------
 #N Geom=AllCheck Guess=TCheck SCRF=Check GenChk RB3LYP/6-31G(d) Freq
 --------------------------------------------------------------------

 Structure from the checkpoint file:  "JID_3161.chk"
 -------------------------------
 CID_131973152_JID_3161_neutraal
 -------------------------------
 Charge =  0 Multiplicity = 1

 SCF Done:  E(RB3LYP) =  -569.223011686     A.U. after    1 cycles

  Exact polarizability: 179.394   4.846 114.402  -3.013  -2.672  67.381
 Approx polarizability: 256.376  15.865 207.488  -9.293 -10.082 101.184

                      1                      2                      3
                      A                      A                      A
 Frequencies --     35.5719                76.9784                80.6889
 Red. masses --      2.8577                 1.1564                 3.6800
 Frc consts  --      0.0021                 0.0040                 0.0141
 IR Inten    --      0.0958                 0.6788                 6.1716

                      4                      5                      6
                      A                      A                      A
 Frequencies --    148.6134               161.1159               230.5093
 Red. masses --      3.3321                 3.1069                 1.0404
 Frc consts  --      0.0434                 0.0475                 0.0326
 IR Inten    --      0.1847                 2.6265                 0.2124

                      7                      8                      9
                      A                      A                      A
 Frequencies --    240.4361               265.5092               280.5845
 Red. masses --      2.6975                 1.4620                 3.4158
 Frc consts  --      0.0919                 0.0607                 0.1584
 IR Inten    --      2.5780                 1.7010                 1.1659

                     10                     11                     12
                      A                      A                      A
 Frequencies --    290.3359               336.8030               425.4609
 Red. masses --      2.7154                 2.8370                 5.4656
 Frc consts  --      0.1349                 0.1896                 0.5829
 IR Inten    --      3.1382                 0.7042                 0.4505

                     13                     14                     15
                      A                      A                      A
 Frequencies --    450.0326               451.8929               510.1734
 Red. masses --      3.2513                 3.1787                 4.1856
 Frc consts  --      0.3880                 0.3824                 0.6419
 IR Inten    --      2.3349                 0.9010                 1.7087

                     16                     17                     18
                      A                      A                      A
 Frequencies --    555.2173               587.9788               635.4122
 Red. masses --      3.8640                 5.0405                 5.0662
 Frc consts  --      0.7018                 1.0267                 1.2052
 IR Inten    --      0.0378                 0.3009                 0.2938

                     19                     20                     21
                      A                      A                      A
 Frequencies --    708.3672               731.3116               752.6568
 Red. masses --      6.3758                 4.2872                 1.5035
 Frc consts  --      1.8850                 1.3509                 0.5018
 IR Inten    --      2.7880                 5.5684                21.5562

                     22                     23                     24
                      A                      A                      A
 Frequencies --    776.0804               829.5578               872.0812
 Red. masses --      4.4123                 7.8176                 5.0902
 Frc consts  --      1.5658                 3.1697                 2.2809
 IR Inten    --      5.3871                 5.0286                 0.7846

                     25                     26                     27
                      A                      A                      A
 Frequencies --    903.0506               945.6121               961.9096
 Red. masses --      2.7900                 1.1590                 1.5428
 Frc consts  --      1.3405                 0.6106                 0.8411
 IR Inten    --      2.6807                 0.9390                 5.5519

                     28                     29                     30
                      A                      A                      A
 Frequencies --    965.3965               983.3896              1026.1161
 Red. masses --      2.8692                 1.6000                 6.3754
 Frc consts  --      1.5755                 0.9117                 3.9550
 IR Inten    --     13.3610                 3.2585                 8.8454

                     31                     32                     33
                      A                      A                      A
 Frequencies --   1092.8824              1124.3823              1141.3106
 Red. masses --      1.5477                 1.8371                 2.2636
 Frc consts  --      1.0892                 1.3684                 1.7373
 IR Inten    --     22.8884                37.1977                 6.3195

                     34                     35                     36
                      A                      A                      A
 Frequencies --   1162.0491              1168.9376              1196.8187
 Red. masses --      1.3283                 2.2057                 1.8219
 Frc consts  --      1.0568                 1.7757                 1.5375
 IR Inten    --      0.0871                59.7511                23.1200

                     37                     38                     39
                      A                      A                      A
 Frequencies --   1242.4698              1280.5441              1346.2948
 Red. masses --      1.9920                 6.5830                 1.4486
 Frc consts  --      1.8118                 6.3600                 1.5469
 IR Inten    --     42.0873                 8.1900                 0.7392

                     40                     41                     42
                      A                      A                      A
 Frequencies --   1346.8319              1354.0858              1382.9541
 Red. masses --      2.5851                 2.3991                 2.4626
 Frc consts  --      2.7628                 2.5917                 2.7750
 IR Inten    --     12.2864                26.0220                12.5977

                     43                     44                     45
                      A                      A                      A
 Frequencies --   1411.2633              1425.2582              1440.0995
 Red. masses --      2.0889                 1.8142                 2.1160
 Frc consts  --      2.4512                 2.1713                 2.5855
 IR Inten    --     10.6879                 9.5471                10.0922

                     46                     47                     48
                      A                      A                      A
 Frequencies --   1446.5910              1474.9016              1500.7437
 Red. masses --      1.4352                 1.3730                 1.0417
 Frc consts  --      1.7695                 1.7598                 1.3823
 IR Inten    --      2.7570                28.8289                 8.0691

                     49                     50                     51
                      A                      A                      A
 Frequencies --   1505.5304              1516.3602              1518.0576
 Red. masses --      2.1998                 1.0513                 1.0688
 Frc consts  --      2.9377                 1.4243                 1.4512
 IR Inten    --     39.3661                 2.7090                 5.9955

                     52                     53                     54
                      A                      A                      A
 Frequencies --   1528.9182              1538.4969              1548.5820
 Red. masses --      1.0687                 1.3698                 1.4592
 Frc consts  --      1.4719                 1.9102                 2.0617
 IR Inten    --      8.9962                14.2217                16.4810

                     55                     56                     57
                      A                      A                      A
 Frequencies --   1553.0364              1582.2938              1665.8778
 Red. masses --      2.6701                 6.7131                 7.3958
 Frc consts  --      3.7944                 9.9025                12.0927
 IR Inten    --     14.4964                58.4651               226.9578

                     58                     59                     60
                      A                      A                      A
 Frequencies --   3041.0247              3048.2729              3057.8395
 Red. masses --      1.0797                 1.0382                 1.0369
 Frc consts  --      5.8828                 5.6838                 5.7122
 IR Inten    --      9.5429                32.0994                33.0715

                     61                     62                     63
                      A                      A                      A
 Frequencies --   3083.3365              3114.1221              3124.2162
 Red. masses --      1.0313                 1.1026                 1.1017
 Frc consts  --      5.7769                 6.3002                 6.3356
 IR Inten    --     35.3512                24.8958                44.5994

                     64                     65                     66
                      A                      A                      A
 Frequencies --   3135.2715              3138.7722              3152.7999
 Red. masses --      1.1020                 1.1017                 1.0911
 Frc consts  --      6.3825                 6.3948                 6.3900
 IR Inten    --     24.8305                27.5375                31.8620

                     67                     68                     69
                      A                      A                      A
 Frequencies --   3158.3928              3176.9941              3278.4942
 Red. masses --      1.1062                 1.1062                 1.0974
 Frc consts  --      6.5018                 6.5783                 6.9499
 IR Inten    --      7.1233                 7.4822                 1.5824

 - Thermochemistry -
 -------------------
 Temperature   298.150 Kelvin.  Pressure   1.00000 Atm.
 Atom     1 has atomic number  6 and mass  12.00000

 Molecular mass:   176.10620 amu.
 Principal axes and moments of inertia in atomic units:
                           1         2         3
     Eigenvalues --   861.737803875.768664498.01975
           X            0.99996  -0.00799   0.00287
           Y            0.00795   0.99989   0.01241
           Z           -0.00297  -0.01238   0.99992
 This molecule is an asymmetric top.
 Rotational symmetry number  1.
 Warning -- assumption of classical behavior for rotation
           may cause significant error
 Rotational temperatures (Kelvin)      0.10051     0.02235     0.01926
 Rotational constants (GHZ):           2.09430     0.46565     0.40123
 Zero-point vibrational energy     545640.4 (Joules/Mol)
                                  130.41119 (Kcal/Mol)
 Warning -- explicit consideration of  17 degrees of freedom as
           vibrations may cause significant error
 Vibrational temperatures:     51.18   110.75   116.09   213.82   231.81
          (Kelvin)            331.65   345.93   382.01   403.70   417.73
                              484.58   612.14   647.50   650.17   734.03
                              798.83   845.97   914.22  1019.18  1052.19
                             1082.91  1116.61  1193.55  1254.73  1299.29
                             1360.52  1383.97  1388.99  1414.88  1476.35
                             1572.41  1617.74  1642.09  1671.93  1681.84
                             1721.96  1787.64  1842.42  1937.02  1937.79
                             1948.23  1989.76  2030.49  2050.63  2071.98
                             2081.32  2122.05  2159.24  2166.12  2181.70
                             2184.15  2199.77  2213.55  2228.06  2234.47
                             2276.57  2396.83  4375.36  4385.78  4399.55
                             4436.23  4480.53  4495.05  4510.96  4515.99
                             4536.18  4544.22  4570.99  4717.02

 Zero-point correction=                           0.207823 (Hartree/Particle)
 Thermal correction to Energy=                    0.219634
 Thermal correction to Enthalpy=                  0.220578
 Thermal correction to Gibbs Free Energy=         0.169385
 Sum of electronic and zero-point Energies=           -569.015188
 Sum of electronic and thermal Energies=              -569.003378
 Sum of electronic and thermal Enthalpies=            -569.002434
 Sum of electronic and thermal Free Energies=         -569.053626

                     E (Thermal)             CV                S
                      KCal/Mol        Cal/Mol-Kelvin    Cal/Mol-Kelvin
 Total                  137.822             44.541            107.744
 Electronic               0.000              0.000              0.000
 Translational            0.889              2.981             41.405
 Rotational               0.889              2.981             31.086
 Vibrational            136.045             38.579             35.253
 Vibration     1          0.594              1.982              5.492
 Vibration     2          0.599              1.965              3.966
 Vibration     3          0.600              1.962              3.874
 Vibration     4          0.618              1.904              2.690
 Vibration     5          0.622              1.890              2.537
 Vibration     6          0.652              1.794              1.875
 Vibration     7          0.658              1.779              1.800
 Vibration     8          0.671              1.736              1.625
 Vibration     9          0.680              1.710              1.530
 Vibration    10          0.686              1.692              1.472
 Vibration    11          0.718              1.602              1.227
 Vibration    12          0.787              1.415              0.874
 Vibration    13          0.809              1.361              0.796
 Vibration    14          0.811              1.357              0.790
 Vibration    15          0.865              1.227              0.633
 Vibration    16          0.911              1.128              0.533
 Vibration    17          0.945              1.057              0.471

 Optimization completed.
    -- Stationary point found.

 1\1\GINC-NODE125\Freq\RB3LYP\6-31G(d)\C9H12N4\VSC10255\09-Dec-2020\0\\
 #N Geom=AllCheck Guess=TCheck SCRF=Check GenChk RB3LYP/6-31G(d) Freq\\
 CID_131973152_JID_3161_neutraal\\0,1\C,0.8056848993,-0.219299386,0.654
 4552381\C,0.4662777444,-1.201228788,-0.4841450339\C,1.0958917871,-2.57
 46228314,-0.2477787888\C,-1.0372225436,-1.2611203642,-0.6578278626\N,-
 1.6828894144,-2.3435531998,-0.2703766691\C,-3.0272083979,-2.2954665043
 ,-0.4333731126\N,-3.8859934899,-3.2800710757,-0.1124381199\N,-5.091529
 1407,-2.7685706464,-0.4568354162\C,-5.0556674183,-1.5220351142,-0.9767

 Normal termination of Gaussian 16 at Wed Dec  9 22:39:26 2020.

 ----------------------------------------------------------------------
 # B3LYP/6-311++G(d,p) empiricaldispersion=gd3bj scf=xqc pop=npa geom=c
 heck
 ----------------------------------------------------------------------

 ---------------------------------------
 CID_131973152_JID_3161_Energie_neutraal
 ---------------------------------------
 Structure from the checkpoint file:  "JID_3161.chk"
 Charge =  0 Multiplicity = 1

 SCF Done:  E(RB3LYP) =  -569.369886205     A.U. after   16 cycles
 Normal termination of Gaussian 16 at Wed Dec  9 22:42:12 2020.

 ----------------------------------------------------------------------
 # B3LYP/6-311++G(d,p) empiricaldispersion=gd3bj scf=xqc pop=npa geom=c
 heck
 ----------------------------------------------------------------------

 -------------------------------------
 CID_131973152_JID_3161_Energie_kation
 -------------------------------------
 Structure from the checkpoint file:  "JID_3161.chk"
 Charge =  1 Multiplicity = 2

 SCF Done:  E(UB3LYP) =  -569.054918213     A.U. after   33 cycles
 SCF Done:  E(UB3LYP) =  -569.054918213     a.u. after    2 cycles
 Normal termination of Gaussian 16 at Wed Dec  9 22:56:55 2020.
 Gaussian 16:  ES64L-G16RevA.03 25-Dec-2016

 ------------------------------------
 CID_131973152_JID_3161_Energie_anion
 ------------------------------------
 Structure from the checkpoint file:  "JID_3161.chk"
 Charge = -1 Multiplicity = 2

                         Standard orientation:
 ---------------------------------------------------------------------
 Center     Atomic      Atomic             Coordinates (Angstroms)
 Number     Number       Type             X           Y           Z
 ---------------------------------------------------------------------
      1          6           0        3.550942    0.302936    1.077668
      2          6           0        2.898197   -0.158539   -0.240193
      3          6           0        3.159470   -1.641404   -0.507288
      4          6           0        1.423789    0.187358   -0.212932
      5          7           0        0.541943   -0.783113   -0.074371
      6          6           0       -0.750226   -0.377932   -0.027450
      7          7           0       -1.815769   -1.188251    0.106553
      8          7           0       -2.863920   -0.331003    0.098613
      9          6           0       -2.534519    0.972781   -0.032299
     10          6           0       -1.140680    0.998750   -0.119862
     11          6           0       -0.095326    1.934582   -0.264516
     12          7           0        1.158228    1.539792   -0.309414
     13          6           0       -4.200823   -0.882248    0.228836
     14          1           0        3.144069   -0.262964    1.924209
     15          1           0        3.365692    1.367060    1.251048
     16          1           0        4.633624    0.137288    1.046428
     17          1           0        3.336496    0.441276   -1.049097
     18          1           0        2.735457   -2.261188    0.288043
     19          1           0        2.704365   -1.963393   -1.449056
     20          1           0        4.237944   -1.828674   -0.559439
     21          1           0       -3.284924    1.749519   -0.051996
     22          1           0       -0.285421    3.005281   -0.345349
     23          1           0       -4.280736   -1.421733    1.175516
     24          1           0       -4.925628   -0.066916    0.202683
     25          1           0       -4.389240   -1.575235   -0.594448
 ---------------------------------------------------------------------

 SCF Done:  E(UB3LYP) =  -569.376268519     A.U. after   33 cycles
 SCF Done:  E(UB3LYP) =  -569.376268525     a.u. after    2 cycles

 The electronic state is 2-A.
 Alpha  occ. eigenvalues --  -14.23005 -14.15982 -14.12923 -14.12547 -10.09020
 Alpha  occ. eigenvalues --  -10.06107 -10.05874 -10.04601 -10.03748 -10.03131
 Alpha  occ. eigenvalues --  -10.02891 -10.02742 -10.01510  -0.89815  -0.80341
 Alpha  occ. eigenvalues --   -0.71846  -0.68579  -0.65717  -0.63722  -0.57412
 Alpha  occ. eigenvalues --   -0.55543  -0.50458  -0.48182  -0.43720  -0.42317
 Alpha  occ. eigenvalues --   -0.38409  -0.35792  -0.34758  -0.32517  -0.32345
 Alpha  occ. eigenvalues --   -0.30515  -0.29043  -0.28514  -0.27916  -0.26767
 Alpha  occ. eigenvalues --   -0.25944  -0.25301  -0.22765  -0.20986  -0.20560
 Alpha  occ. eigenvalues --   -0.19865  -0.16389  -0.15098  -0.12672  -0.10411
 Alpha  occ. eigenvalues --   -0.08221  -0.07880   0.05402
 Alpha virt. eigenvalues --    0.07803   0.08739   0.10121   0.10889   0.11420
 Alpha virt. eigenvalues --    0.11626   0.11952   0.12895   0.13446   0.14552
 Alpha virt. eigenvalues --    0.14889   0.15494   0.15574   0.15944   0.16351

  Beta  occ. eigenvalues --  -14.22486 -14.15857 -14.12851 -14.12218 -10.09047
  Beta  occ. eigenvalues --  -10.05987 -10.05924 -10.04320 -10.03759 -10.03110
  Beta  occ. eigenvalues --  -10.02741 -10.02375 -10.01630  -0.89199  -0.79862
  Beta  occ. eigenvalues --   -0.71336  -0.68228  -0.65547  -0.63351  -0.57126
  Beta  occ. eigenvalues --   -0.55517  -0.50042  -0.47855  -0.43415  -0.42020
  Beta  occ. eigenvalues --   -0.38117  -0.35511  -0.33881  -0.32326  -0.32202
  Beta  occ. eigenvalues --   -0.30335  -0.28865  -0.28340  -0.27583  -0.26365
  Beta  occ. eigenvalues --   -0.25889  -0.25122  -0.22056  -0.20926  -0.20278
  Beta  occ. eigenvalues --   -0.19214  -0.14824  -0.14688  -0.12433  -0.09223
  Beta  occ. eigenvalues --   -0.07658  -0.06401
  Beta virt. eigenvalues --    0.07746   0.08665   0.10064   0.10724   0.11137
  Beta virt. eigenvalues --    0.11370   0.11785   0.12805   0.12882   0.13388
  Beta virt. eigenvalues --    0.14498   0.14978   0.15494   0.15718   0.15957

 Mulliken charges and spin densities:
               1          2
     1  C   -0.428893  -0.067997
     2  C    0.428078   0.087549
     3  C   -0.741871  -0.009688
     4  C   -0.880429  -0.016263
     5  N   -0.063016   0.160732
     6  C    0.387894  -0.058791
     7  N   -0.467157   0.096809
     8  N    0.347549   0.096943
     9  C    0.000849   0.289989
    10  C    0.027994  -0.075898
    11  C   -0.677393   0.371464
    12  N   -0.043766   0.021952
    13  C   -0.280152  -0.054339
    14  H    0.120845   0.002462
    15  H    0.128809   0.012553
    16  H    0.049895   0.066037
    17  H    0.143363  -0.001057
    18  H    0.157875  -0.002397
    19  H    0.144068   0.001017
    20  H    0.091564   0.012521
    21  H    0.118965  -0.012079
    22  H    0.102558  -0.030883
    23  H    0.086876   0.079977
    24  H    0.108537   0.003882
    25  H    0.136956   0.025506
 Sum of Mulliken charges =  -1.00000   1.00000

 Dipole moment (field-independent basis, Debye):
    X=             -1.6870    Y=              0.6710    Z=             -0.0149  Tot=              1.8156
 Quadrupole moment (field-independent basis, Debye-Ang):
   XX=            -99.6429   YY=            -98.3224   ZZ=            -87.3965
   XY=             -5.7775   XZ=              0.4567   YZ=              1.2846

 Summary of Natural Population Analysis:

                                       Natural Population
                Natural  -----------------------------------------------
    Atom  No    Charge         Core      Valence    Rydberg      Total
 -----------------------------------------------------------------------
      C    1   -0.27820      0.99965     2.27350    0.00504     3.27820
      C    2   -0.12826      0.99958     2.11974    0.00894     3.12826
      C    3   -0.28229      0.99966     2.27761    0.00502     3.28229
      C    4    0.22690      0.99959     1.75280    0.02072     2.77310
      N    5   -0.22839      0.99963     2.71685    0.01191     3.72839
      C    6    0.16415      0.99952     1.81814    0.01819     2.83585
      N    7   -0.16932      0.99970     2.65584    0.01378     3.66932
      N    8   -0.03026      0.99966     2.51926    0.01134     3.53026
      C    9    0.04035      0.99955     1.95003    0.01007     2.95965
      C   10   -0.12998      0.99949     2.12238    0.00812     3.12998
      C   11    0.14846      0.99958     1.83835    0.01361     2.85154
      N   12   -0.27328      0.99969     2.76353    0.01006     3.77328
      C   13   -0.17291      0.99966     2.16651    0.00674     3.17291
      H   14    0.09404      0.00000     0.40481    0.00115     0.40596
      H   15    0.10572      0.00000     0.39276    0.00152     0.39428
      H   16    0.08583      0.00000     0.41268    0.00149     0.41417
      H   17    0.09521      0.00000     0.40284    0.00195     0.40479
      H   18    0.10365      0.00000     0.39542    0.00093     0.39635
      H   19    0.10113      0.00000     0.39806    0.00081     0.39887
      H   20    0.08485      0.00000     0.41426    0.00089     0.41515
      H   21    0.08883      0.00000     0.41022    0.00096     0.41117
      H   22    0.06822      0.00000     0.42994    0.00183     0.43178
      H   23    0.09767      0.00000     0.40050    0.00183     0.40233
      H   24    0.09050      0.00000     0.40881    0.00069     0.40950
      H   25    0.09738      0.00000     0.40152    0.00109     0.40262
 =======================================================================
   * Total *   -0.00000     12.99496    33.84637    0.15866    47.00000

 Normal termination of Gaussian 16 at Wed Dec  9 23:11:28 2020.
