 Gaussian 16, Revision A.03,

 -----------------------------------------------------------
 # opt freq B3LYP/6-31G(d) empiricaldispersion=gd3bj scf=xqc
 -----------------------------------------------------------

 -------------------------------
 CID_141081919_JID_3643_neutraal
 -------------------------------
 Symbolic Z-matrix:
 Charge =  0 Multiplicity = 1

 SCF Done:  E(RB3LYP) =  -557.021634802     A.U. after   14 cycles
 SCF Done:  E(RB3LYP) =  -557.025303391     A.U. after   12 cycles
 SCF Done:  E(RB3LYP) =  -557.025568745     A.U. after   10 cycles
 SCF Done:  E(RB3LYP) =  -557.025586568     A.U. after    9 cycles
 SCF Done:  E(RB3LYP) =  -557.025590095     A.U. after    8 cycles
 SCF Done:  E(RB3LYP) =  -557.025593219     A.U. after    8 cycles
 SCF Done:  E(RB3LYP) =  -557.025595970     A.U. after    9 cycles
 SCF Done:  E(RB3LYP) =  -557.025598729     A.U. after    8 cycles
 SCF Done:  E(RB3LYP) =  -557.025601868     A.U. after    9 cycles
 SCF Done:  E(RB3LYP) =  -557.025602702     A.U. after    8 cycles
 Optimization completed.
    -- Stationary point found.
 Normal termination of Gaussian 16 at Wed Dec  9 23:50:36 2020.

 --------------------------------------------------------------------
 #N Geom=AllCheck Guess=TCheck SCRF=Check GenChk RB3LYP/6-31G(d) Freq
 --------------------------------------------------------------------

 Structure from the checkpoint file:  "JID_3643.chk"
 -------------------------------
 CID_141081919_JID_3643_neutraal
 -------------------------------
 Charge =  0 Multiplicity = 1

 SCF Done:  E(RB3LYP) =  -557.025602702     A.U. after    1 cycles

  Exact polarizability: 189.017  -5.090 127.415   6.078  -0.178  61.018
 Approx polarizability: 278.938  -6.370 216.605  15.633  -1.121  91.672

                      1                      2                      3
                      A                      A                      A
 Frequencies --     71.9305                83.8798               102.0026
 Red. masses --      3.1967                 1.9889                 1.7723
 Frc consts  --      0.0097                 0.0082                 0.0109
 IR Inten    --      0.2894                 0.0091                 1.9902

                      4                      5                      6
                      A                      A                      A
 Frequencies --    144.9800               167.1456               193.8188
 Red. masses --      1.9835                 4.6243                 1.3791
 Frc consts  --      0.0246                 0.0761                 0.0305
 IR Inten    --      3.9660                 0.2337                 0.4367

                      7                      8                      9
                      A                      A                      A
 Frequencies --    241.1661               253.6559               312.7010
 Red. masses --      2.1480                 3.4678                 1.7422
 Frc consts  --      0.0736                 0.1315                 0.1004
 IR Inten    --      2.0047                 1.1056                70.4215

                     10                     11                     12
                      A                      A                      A
 Frequencies --    315.3250               327.4265               392.8921
 Red. masses --      1.5309                 2.9354                 4.5684
 Frc consts  --      0.0897                 0.1854                 0.4155
 IR Inten    --     44.5597                 0.7306                 6.4720

                     13                     14                     15
                      A                      A                      A
 Frequencies --    403.7824               444.4794               475.0160
 Red. masses --      4.8074                 3.2330                 4.5612
 Frc consts  --      0.4618                 0.3763                 0.6064
 IR Inten    --      1.0848                 0.1582                 0.3423

                     16                     17                     18
                      A                      A                      A
 Frequencies --    529.8692               583.9384               624.4665
 Red. masses --      3.3100                 4.4366                 3.7428
 Frc consts  --      0.5475                 0.8913                 0.8599
 IR Inten    --      2.9378                 3.0597                 5.9369

                     19                     20                     21
                      A                      A                      A
 Frequencies --    634.3332               678.3136               724.1363
 Red. masses --      3.6201                 3.2359                 4.7088
 Frc consts  --      0.8582                 0.8772                 1.4548
 IR Inten    --      5.2550                 4.2325                 1.5883

                     22                     23                     24
                      A                      A                      A
 Frequencies --    743.8781               770.7395               800.6135
 Red. masses --      2.6495                 1.3538                 1.5643
 Frc consts  --      0.8638                 0.4738                 0.5908
 IR Inten    --     11.2332                 0.1428                16.0855

                     25                     26                     27
                      A                      A                      A
 Frequencies --    806.2379               833.9367               836.1692
 Red. masses --      1.5588                 2.0639                 2.4284
 Frc consts  --      0.5970                 0.8457                 1.0004
 IR Inten    --     19.7697                14.7077                14.0123

                     28                     29                     30
                      A                      A                      A
 Frequencies --    858.3592               915.3704               973.1335
 Red. masses --      3.5635                 1.2765                 2.4851
 Frc consts  --      1.5469                 0.6302                 1.3865
 IR Inten    --      4.0858                 1.1095                 3.9570

                     31                     32                     33
                      A                      A                      A
 Frequencies --    990.6742              1077.8540              1095.1884
 Red. masses --      2.4349                 1.5906                 1.6708
 Frc consts  --      1.4080                 1.0888                 1.1807
 IR Inten    --     28.0503                 9.4273                 3.4400

                     34                     35                     36
                      A                      A                      A
 Frequencies --   1118.6909              1158.7122              1163.0157
 Red. masses --      2.1688                 1.2990                 1.3684
 Frc consts  --      1.5992                 1.0276                 1.0905
 IR Inten    --     42.5756                 3.7684                 4.0148

                     37                     38                     39
                      A                      A                      A
 Frequencies --   1170.9572              1208.9091              1216.7373
 Red. masses --      1.6891                 1.3875                 1.9106
 Frc consts  --      1.3645                 1.1948                 1.6666
 IR Inten    --     13.4676               135.4406                 0.0636

                     40                     41                     42
                      A                      A                      A
 Frequencies --   1252.4827              1286.6059              1299.6169
 Red. masses --      1.8593                 2.5290                 1.5762
 Frc consts  --      1.7185                 2.4666                 1.5685
 IR Inten    --     18.6914                72.0632                 0.2140

                     43                     44                     45
                      A                      A                      A
 Frequencies --   1356.1421              1370.5370              1382.9304
 Red. masses --      1.6713                 1.7193                 3.8999
 Frc consts  --      1.8109                 1.9028                 4.3944
 IR Inten    --     13.1097                89.1804                 3.6451

                     46                     47                     48
                      A                      A                      A
 Frequencies --   1416.9220              1435.3304              1446.4087
 Red. masses --      3.6125                 1.4263                 2.9279
 Frc consts  --      4.2732                 1.7313                 3.6090
 IR Inten    --    103.0051                13.9751                40.1738

                     49                     50                     51
                      A                      A                      A
 Frequencies --   1479.4346              1509.0229              1516.6469
 Red. masses --      1.4313                 1.6277                 1.0648
 Frc consts  --      1.8458                 2.1839                 1.4430
 IR Inten    --     25.5485                37.2561                 5.9265

                     52                     53                     54
                      A                      A                      A
 Frequencies --   1521.4511              1527.8007              1537.6823
 Red. masses --      1.4133                 1.0422                 1.0737
 Frc consts  --      1.9275                 1.4332                 1.4958
 IR Inten    --     13.8395                 8.0940                 4.1640

                     55                     56                     57
                      A                      A                      A
 Frequencies --   1541.8696              1562.7915              1615.3757
 Red. masses --      1.2099                 2.6505                 6.6925
 Frc consts  --      1.6948                 3.8140                10.2894
 IR Inten    --     14.3846                13.2586                22.0400

                     58                     59                     60
                      A                      A                      A
 Frequencies --   1640.4647              1690.1690              3030.6804
 Red. masses --      6.5302                 6.6898                 1.0689
 Frc consts  --     10.3541                11.2596                 5.7846
 IR Inten    --     34.8577                73.1210                37.1029

                     61                     62                     63
                      A                      A                      A
 Frequencies --   3040.6256              3053.9536              3090.6460
 Red. masses --      1.0435                 1.0351                 1.0939
 Frc consts  --      5.6843                 5.6878                 6.1561
 IR Inten    --     58.6678                41.5846                 6.9444

                     64                     65                     66
                      A                      A                      A
 Frequencies --   3101.3343              3122.1758              3131.3164
 Red. masses --      1.0982                 1.1019                 1.1032
 Frc consts  --      6.2234                 6.3284                 6.3731
 IR Inten    --     23.6671                52.0023                31.1446

                     67                     68                     69
                      A                      A                      A
 Frequencies --   3164.0350              3165.9404              3196.0121
 Red. masses --      1.0880                 1.0983                 1.0930
 Frc consts  --      6.4174                 6.4860                 6.5780
 IR Inten    --     24.6647                 9.7442                22.9934

                     70                     71                     72
                      A                      A                      A
 Frequencies --   3219.7246              3253.2639              3758.6889
 Red. masses --      1.0909                 1.0956                 1.0659
 Frc consts  --      6.6631                 6.8318                 8.8723
 IR Inten    --      4.9405                 8.1672                49.9554

 - Thermochemistry -
 -------------------
 Temperature   298.150 Kelvin.  Pressure   1.00000 Atm.
 Atom     1 has atomic number  6 and mass  12.00000

 Molecular mass:   175.09971 amu.
 Principal axes and moments of inertia in atomic units:
                           1         2         3
     Eigenvalues --   945.901493700.442704459.60185
           X            0.99990  -0.01334  -0.00443
           Y            0.01332   0.99990  -0.00427
           Z            0.00449   0.00421   0.99998
 This molecule is an asymmetric top.
 Rotational symmetry number  1.
 Warning -- assumption of classical behavior for rotation
           may cause significant error
 Rotational temperatures (Kelvin)      0.09157     0.02341     0.01942
 Rotational constants (GHZ):           1.90796     0.48771     0.40469
 Zero-point vibrational energy     575179.6 (Joules/Mol)
                                  137.47122 (Kcal/Mol)
 Warning -- explicit consideration of  17 degrees of freedom as
           vibrations may cause significant error
 Vibrational temperatures:    103.49   120.68   146.76   208.59   240.49
          (Kelvin)            278.86   346.98   364.95   449.91   453.68
                              471.09   565.28   580.95   639.51   683.44
                              762.36   840.16   898.47   912.66   975.94
                             1041.87  1070.27  1108.92  1151.90  1160.00
                             1199.85  1203.06  1234.99  1317.01  1400.12
                             1425.36  1550.79  1575.73  1609.55  1667.13
                             1673.32  1684.75  1739.35  1750.61  1802.04
                             1851.14  1869.86  1951.19  1971.90  1989.73
                             2038.63  2065.12  2081.06  2128.58  2171.15
                             2182.12  2189.03  2198.16  2212.38  2218.41
                             2248.51  2324.17  2360.26  2431.78  4360.47
                             4374.78  4393.96  4446.75  4462.13  4492.11
                             4505.27  4552.34  4555.08  4598.35  4632.47
                             4680.72  5407.91

 Zero-point correction=                           0.219074 (Hartree/Particle)
 Thermal correction to Energy=                    0.231183
 Thermal correction to Enthalpy=                  0.232127
 Thermal correction to Gibbs Free Energy=         0.181239
 Sum of electronic and zero-point Energies=           -556.806528
 Sum of electronic and thermal Energies=              -556.794420
 Sum of electronic and thermal Enthalpies=            -556.793476
 Sum of electronic and thermal Free Energies=         -556.844363

                     E (Thermal)             CV                S
                      KCal/Mol        Cal/Mol-Kelvin    Cal/Mol-Kelvin
 Total                  145.069             46.885            107.102
 Electronic               0.000              0.000              0.000
 Translational            0.889              2.981             41.388
 Rotational               0.889              2.981             31.124
 Vibrational            143.292             40.923             34.590
 Vibration     1          0.598              1.967              4.100
 Vibration     2          0.601              1.960              3.798
 Vibration     3          0.604              1.948              3.416
 Vibration     4          0.616              1.908              2.737
 Vibration     5          0.624              1.883              2.467
 Vibration     6          0.635              1.848              2.191
 Vibration     7          0.658              1.777              1.794
 Vibration     8          0.665              1.757              1.705
 Vibration     9          0.701              1.649              1.348
 Vibration    10          0.703              1.644              1.334
 Vibration    11          0.711              1.621              1.273
 Vibration    12          0.760              1.485              0.989
 Vibration    13          0.769              1.462              0.949
 Vibration    14          0.804              1.373              0.813
 Vibration    15          0.832              1.305              0.724
 Vibration    16          0.885              1.184              0.587
 Vibration    17          0.941              1.066              0.478

                           ! Non-Optimized Parameters !
 Normal termination of Gaussian 16 at Wed Dec  9 23:56:54 2020.

 ----------------------------------------------------------------------
 # B3LYP/6-311++G(d,p) empiricaldispersion=gd3bj scf=xqc pop=npa geom=c
 heck
 ----------------------------------------------------------------------

 ---------------------------------------
 CID_141081919_JID_3643_Energie_neutraal
 ---------------------------------------
 Structure from the checkpoint file:  "JID_3643.chk"
 Charge =  0 Multiplicity = 1

 SCF Done:  E(RB3LYP) =  -557.180244408     A.U. after   15 cycles
 Normal termination of Gaussian 16 at Wed Dec  9 23:59:12 2020.

 ----------------------------------------------------------------------
 # B3LYP/6-311++G(d,p) empiricaldispersion=gd3bj scf=xqc pop=npa geom=c
 heck
 ----------------------------------------------------------------------

 -------------------------------------
 CID_141081919_JID_3643_Energie_kation
 -------------------------------------
 Structure from the checkpoint file:  "JID_3643.chk"
 Charge =  1 Multiplicity = 2

 SCF Done:  E(UB3LYP) =  -556.923634459     A.U. after   22 cycles
 Normal termination of Gaussian 16 at Thu Dec 10 00:03:44 2020.
 Gaussian 16:  ES64L-G16RevA.03 25-Dec-2016

 ----------------------------------------------------------------------
 # B3LYP/6-311++G(d,p) empiricaldispersion=gd3bj scf=xqc pop=npa geom=c
 heck
 ----------------------------------------------------------------------

 ------------------------------------
 CID_141081919_JID_3643_Energie_anion
 ------------------------------------
 Structure from the checkpoint file:  "JID_3643.chk"
 Charge = -1 Multiplicity = 2

                         Standard orientation:
 ---------------------------------------------------------------------
 Center     Atomic      Atomic             Coordinates (Angstroms)
 Number     Number       Type             X           Y           Z
 ---------------------------------------------------------------------
      1          6           0       -3.920408    0.078265    0.928644
      2          6           0       -3.253119   -0.356960   -0.388686
      3          6           0       -1.762904   -0.458066   -0.301060
      4          6           0       -0.980040   -1.581635   -0.216442
      5          6           0        0.386925   -1.159505   -0.094674
      6          6           0        0.373821    0.263894   -0.109869
      7          7           0       -0.938629    0.672570   -0.243057
      8          6           0       -1.349370    2.058529   -0.287231
      9          6           0        1.535640    1.032277   -0.005642
     10          6           0        2.741807    0.346991    0.110248
     11          6           0        2.785882   -1.062489    0.124261
     12          6           0        1.620629   -1.813169    0.022705
     13          8           0        3.884214    1.102980    0.213330
     14          1           0       -3.669222   -0.622351    1.731323
     15          1           0       -5.010625    0.107077    0.822445
     16          1           0       -3.586143    1.073324    1.241274
     17          1           0       -3.633257   -1.342779   -0.677001
     18          1           0       -3.549343    0.328236   -1.195486
     19          1           0       -1.345997   -2.599262   -0.240694
     20          1           0       -2.370103    2.130788   -0.664407
     21          1           0       -1.307582    2.526353    0.704956
     22          1           0       -0.695238    2.618883   -0.963342
     23          1           0        1.530258    2.116624   -0.005273
     24          1           0        3.748208   -1.562509    0.217332
     25          1           0        1.671257   -2.898453    0.036307
     26          1           0        4.641294    0.503454    0.293797
 ---------------------------------------------------------------------

 SCF Done:  E(UB3LYP) =  -557.167307822     A.U. after   33 cycles
 SCF Done:  E(UB3LYP) =  -557.167307822     a.u. after    1 cycles

 The electronic state is 2-A.
 Alpha  occ. eigenvalues --  -19.04745 -14.25603 -10.12971 -10.10996 -10.10455
 Alpha  occ. eigenvalues --  -10.10232 -10.08189 -10.07502 -10.06726 -10.06681
 Alpha  occ. eigenvalues --  -10.06616 -10.06445 -10.05511  -0.95662  -0.88559
 Alpha  occ. eigenvalues --   -0.74440  -0.70622  -0.67870  -0.64928  -0.60937
 Alpha  occ. eigenvalues --   -0.58982  -0.54208  -0.51350  -0.48970  -0.47276
 Alpha  occ. eigenvalues --   -0.43372  -0.39989  -0.37974  -0.36882  -0.36585
 Alpha  occ. eigenvalues --   -0.35434  -0.33774  -0.32902  -0.31976  -0.30882
 Alpha  occ. eigenvalues --   -0.30179  -0.29650  -0.28066  -0.27866  -0.26821
 Alpha  occ. eigenvalues --   -0.25737  -0.24874  -0.23914  -0.20682  -0.16928
 Alpha  occ. eigenvalues --   -0.11999  -0.09423   0.04233
 Alpha virt. eigenvalues --    0.05493   0.07118   0.07900   0.08263   0.08445
 Alpha virt. eigenvalues --    0.08957   0.10377   0.10632   0.11058   0.11506
 Alpha virt. eigenvalues --    0.11999   0.12783   0.13567   0.14068   0.14593

  Beta  occ. eigenvalues --  -19.04706 -14.25599 -10.12965 -10.10949 -10.10450
  Beta  occ. eigenvalues --  -10.10232 -10.08166 -10.07486 -10.06712 -10.06661
  Beta  occ. eigenvalues --  -10.06618 -10.06403 -10.05498  -0.95587  -0.88544
  Beta  occ. eigenvalues --   -0.74414  -0.70587  -0.67826  -0.64890  -0.60894
  Beta  occ. eigenvalues --   -0.58923  -0.54131  -0.51299  -0.48929  -0.47223
  Beta  occ. eigenvalues --   -0.43321  -0.39942  -0.37928  -0.36842  -0.36553
  Beta  occ. eigenvalues --   -0.35396  -0.33745  -0.32862  -0.31937  -0.30839
  Beta  occ. eigenvalues --   -0.30138  -0.29593  -0.28026  -0.27828  -0.26774
  Beta  occ. eigenvalues --   -0.25695  -0.24839  -0.23891  -0.20632  -0.16882
  Beta  occ. eigenvalues --   -0.11964  -0.09366
  Beta virt. eigenvalues --    0.06607   0.07095   0.07678   0.08098   0.08730
  Beta virt. eigenvalues --    0.08892   0.09497   0.10779   0.11096   0.11484
  Beta virt. eigenvalues --    0.11775   0.12143   0.12880   0.13878   0.14233

 Mulliken charges and spin densities:
               1          2
     1  C    1.074382  -1.574369
     2  C    0.400998  -0.883738
     3  C   -0.312937   0.280163
     4  C    0.168828   0.173706
     5  C    0.469704   0.282958
     6  C    0.087064  -0.135832
     7  N    0.043874   0.165913
     8  C    0.911053  -1.316331
     9  C   -0.676914  -0.239141
    10  C    0.965033  -1.360070
    11  C    0.105278  -0.051089
    12  C   -1.377592   0.921704
    13  O   -0.287294   0.050818
    14  H    0.013997   0.121041
    15  H   -0.605454   0.747723
    16  H   -0.142530   0.290180
    17  H   -0.136162   0.297396
    18  H   -0.184569   0.347987
    19  H   -0.030824   0.171720
    20  H   -0.355601   0.523613
    21  H   -0.187961   0.392614
    22  H   -0.103721   0.246438
    23  H    0.017794   0.146272
    24  H   -0.741445   0.873562
    25  H    0.098183   0.038903
    26  H   -0.213184   0.487858
 Sum of Mulliken charges =  -1.00000   1.00000

 Dipole moment (field-independent basis, Debye):
    X=              0.6904    Y=             -2.3256    Z=             -0.4833  Tot=              2.4736
 Quadrupole moment (field-independent basis, Debye-Ang):
   XX=           -182.9917   YY=           -110.6482   ZZ=           -104.1468
   XY=              8.4781   XZ=             -1.4522   YZ=             -0.0576

 Summary of Natural Population Analysis:

                                       Natural Population
                Natural  -----------------------------------------------
    Atom  No    Charge         Core      Valence    Rydberg      Total
 -----------------------------------------------------------------------
      C    1   -0.28068      0.99966     2.27568    0.00534     3.28068
      C    2   -0.21011      0.99960     2.20101    0.00949     3.21011
      C    3    0.10006      0.99951     1.88717    0.01326     2.89994
      C    4   -0.14211      0.99946     2.13470    0.00794     3.14211
      C    5   -0.05559      0.99950     2.04762    0.00846     3.05559
      C    6    0.09539      0.99949     1.89527    0.00986     2.90461
      N    7   -0.21445      0.99959     2.70550    0.00936     3.71445
      C    8   -0.17562      0.99964     2.16770    0.00827     3.17562
      C    9   -0.14767      0.99948     2.13997    0.00822     3.14767
      C   10    0.15606      0.99941     1.83043    0.01410     2.84394
      C   11   -0.15044      0.99953     2.14034    0.01056     3.15044
      C   12   -0.08438      0.99954     2.07653    0.00832     3.08438
      O   13   -0.34451      0.99988     3.33765    0.00698     4.34451
      H   14    0.09730      0.00000     0.40156    0.00115     0.40270
      H   15    0.10069      0.00000     0.39722    0.00210     0.39931
      H   16    0.09800      0.00000     0.40050    0.00150     0.40200
      H   17    0.10533      0.00000     0.39363    0.00104     0.39467
      H   18    0.10393      0.00000     0.39428    0.00180     0.39607
      H   19    0.10335      0.00000     0.39585    0.00079     0.39665
      H   20    0.10625      0.00000     0.39218    0.00157     0.39375
      H   21    0.09746      0.00000     0.40115    0.00139     0.40254
      H   22    0.09873      0.00000     0.40009    0.00117     0.40127
      H   23    0.10853      0.00000     0.39041    0.00106     0.39147
      H   24    0.10021      0.00000     0.39798    0.00181     0.39979
      H   25    0.09774      0.00000     0.40112    0.00115     0.40226
      H   26    0.23653      0.00000     0.25578    0.00769     0.26347
 =======================================================================
   * Total *    0.00000     12.99429    33.86133    0.14439    47.00000

 Normal termination of Gaussian 16 at Thu Dec 10 00:10:29 2020.
