 Gaussian 16, Revision A.03,

 -----------------------------------------------------------
 # opt freq B3LYP/6-31G(d) empiricaldispersion=gd3bj scf=xqc
 -----------------------------------------------------------

 ------------------------------
 CID_84116465_JID_4485_neutraal
 ------------------------------
 Symbolic Z-matrix:
 Charge =  0 Multiplicity = 1

 SCF Done:  E(RB3LYP) =  -598.505147280     A.U. after   13 cycles
 SCF Done:  E(RB3LYP) =  -598.511298813     A.U. after   11 cycles
 SCF Done:  E(RB3LYP) =  -598.512047482     A.U. after   11 cycles
 SCF Done:  E(RB3LYP) =  -598.512783268     A.U. after   10 cycles
 SCF Done:  E(RB3LYP) =  -598.513019616     A.U. after   10 cycles
 SCF Done:  E(RB3LYP) =  -598.513092747     A.U. after   10 cycles
 SCF Done:  E(RB3LYP) =  -598.513116869     A.U. after    9 cycles
 SCF Done:  E(RB3LYP) =  -598.513126405     A.U. after    9 cycles
 SCF Done:  E(RB3LYP) =  -598.513128527     A.U. after    7 cycles
 SCF Done:  E(RB3LYP) =  -598.513128892     A.U. after    7 cycles
 SCF Done:  E(RB3LYP) =  -598.513129037     A.U. after    7 cycles
 SCF Done:  E(RB3LYP) =  -598.513129070     A.U. after    6 cycles
 Optimization completed.
    -- Stationary point found.
 Normal termination of Gaussian 16 at Thu Dec 10 09:55:53 2020.

 --------------------------------------------------------------------
 #N Geom=AllCheck Guess=TCheck SCRF=Check GenChk RB3LYP/6-31G(d) Freq
 --------------------------------------------------------------------

 Structure from the checkpoint file:  "JID_4485.chk"
 ------------------------------
 CID_84116465_JID_4485_neutraal
 ------------------------------
 Charge =  0 Multiplicity = 1

 SCF Done:  E(RB3LYP) =  -598.513129070     A.U. after    1 cycles

  Exact polarizability: 150.427  -1.711 135.859   3.022   1.725 122.616
 Approx polarizability: 188.656  -2.623 184.439   2.556   3.821 181.345

                      1                      2                      3
                      A                      A                      A
 Frequencies --     16.9730                54.0133                74.0317
 Red. masses --      3.3614                 2.4127                 2.5676
 Frc consts  --      0.0006                 0.0041                 0.0083
 IR Inten    --      0.2054                 0.4416                 1.9189

                      4                      5                      6
                      A                      A                      A
 Frequencies --     83.3297               105.4878               110.1224
 Red. masses --      2.1543                 2.2107                 2.4627
 Frc consts  --      0.0088                 0.0145                 0.0176
 IR Inten    --      2.2170                 0.1400                 0.0425

                      7                      8                      9
                      A                      A                      A
 Frequencies --    132.5407               182.9467               203.4349
 Red. masses --      2.5643                 2.5471                 1.3181
 Frc consts  --      0.0265                 0.0502                 0.0321
 IR Inten    --      0.5856                 1.2049                 0.2896

                     10                     11                     12
                      A                      A                      A
 Frequencies --    219.4966               234.2361               251.9813
 Red. masses --      1.4770                 1.4648                 1.3385
 Frc consts  --      0.0419                 0.0474                 0.0501
 IR Inten    --      0.5625                 0.3452                 2.1004

                     13                     14                     15
                      A                      A                      A
 Frequencies --    267.7119               294.1830               299.3780
 Red. masses --      1.4245                 1.6566                 2.3497
 Frc consts  --      0.0602                 0.0845                 0.1241
 IR Inten    --      0.2322                 3.3270                 0.3169

                     16                     17                     18
                      A                      A                      A
 Frequencies --    319.6239               335.9581               347.5933
 Red. masses --      2.0394                 2.3474                 2.5488
 Frc consts  --      0.1228                 0.1561                 0.1814
 IR Inten    --      0.7298                 3.1202                 0.9274

                     19                     20                     21
                      A                      A                      A
 Frequencies --    389.8499               444.1539               448.7678
 Red. masses --      3.3365                 2.0346                 2.5796
 Frc consts  --      0.2988                 0.2365                 0.3061
 IR Inten    --      3.3196                 3.2652                 1.3573

                     22                     23                     24
                      A                      A                      A
 Frequencies --    478.5643               523.0196               552.3943
 Red. masses --      3.2229                 2.5606                 2.9057
 Frc consts  --      0.4349                 0.4127                 0.5224
 IR Inten    --      1.9883                 4.7411                 0.4627

                     25                     26                     27
                      A                      A                      A
 Frequencies --    606.7632               705.0661               752.9461
 Red. masses --      3.2738                 2.7698                 2.6849
 Frc consts  --      0.7101                 0.8113                 0.8968
 IR Inten    --      0.1328                 1.2579                15.3266

                     28                     29                     30
                      A                      A                      A
 Frequencies --    786.0651               808.8324               825.8111
 Red. masses --      1.4887                 1.4759                 1.4732
 Frc consts  --      0.5420                 0.5689                 0.5919
 IR Inten    --     64.7279                 4.2612                 1.4263

                     31                     32                     33
                      A                      A                      A
 Frequencies --    854.6604               900.9019               918.7963
 Red. masses --      2.0716                 2.3592                 1.8702
 Frc consts  --      0.8915                 1.1282                 0.9302
 IR Inten    --     19.5618                 1.6276                 3.1047

                     34                     35                     36
                      A                      A                      A
 Frequencies --    939.9945               952.0616               971.0450
 Red. masses --      2.0100                 1.7285                 1.7502
 Frc consts  --      1.0464                 0.9231                 0.9724
 IR Inten    --      5.7918                 1.2249                10.5708

                     37                     38                     39
                      A                      A                      A
 Frequencies --   1002.5855              1036.8594              1044.9895
 Red. masses --      1.8458                 1.9592                 1.8719
 Frc consts  --      1.0932                 1.2410                 1.2043
 IR Inten    --     10.7022                11.7392                 2.8254

                     40                     41                     42
                      A                      A                      A
 Frequencies --   1066.9228              1090.0217              1100.4268
 Red. masses --      2.5019                 1.7536                 1.9993
 Frc consts  --      1.6780                 1.2276                 1.4264
 IR Inten    --     18.5322                19.9128                14.8619

                     43                     44                     45
                      A                      A                      A
 Frequencies --   1112.0261              1127.1575              1137.5754
 Red. masses --      2.1302                 1.9001                 1.7483
 Frc consts  --      1.5520                 1.4223                 1.3330
 IR Inten    --      3.1133                 4.2256                50.0976

                     46                     47                     48
                      A                      A                      A
 Frequencies --   1149.9262              1155.0054              1163.0103
 Red. masses --      1.8187                 2.1603                 1.5265
 Frc consts  --      1.4169                 1.6980                 1.2165
 IR Inten    --     15.2230                19.0477                12.2656

                     49                     50                     51
                      A                      A                      A
 Frequencies --   1173.3303              1178.6046              1205.5130
 Red. masses --      1.8176                 1.9388                 2.1830
 Frc consts  --      1.4743                 1.5868                 1.8692
 IR Inten    --     31.6860                22.6843                11.2959

                     52                     53                     54
                      A                      A                      A
 Frequencies --   1212.7759              1231.2010              1243.8801
 Red. masses --      2.4057                 2.2027                 1.4524
 Frc consts  --      2.0847                 1.9673                 1.3240
 IR Inten    --     18.2445                 4.2277                 5.0940

                     55                     56                     57
                      A                      A                      A
 Frequencies --   1268.5514              1291.9924              1322.1771
 Red. masses --      1.9289                 1.4879                 1.2930
 Frc consts  --      1.8288                 1.4634                 1.3318
 IR Inten    --      0.3589                47.7241                 6.3791

                     58                     59                     60
                      A                      A                      A
 Frequencies --   1323.6608              1349.7115              1364.3958
 Red. masses --      1.2441                 1.3172                 1.3891
 Frc consts  --      1.2843                 1.4138                 1.5236
 IR Inten    --      0.5720                 7.1010                30.6824

                     61                     62                     63
                      A                      A                      A
 Frequencies --   1365.7976              1378.9722              1392.4086
 Red. masses --      1.3146                 1.4683                 1.3026
 Frc consts  --      1.4448                 1.6450                 1.4879
 IR Inten    --      4.1894                 3.8368                18.8822

                     64                     65                     66
                      A                      A                      A
 Frequencies --   1409.1279              1412.0845              1420.6773
 Red. masses --      1.3738                 1.3614                 1.2908
 Frc consts  --      1.6072                 1.5994                 1.5349
 IR Inten    --      5.6368                19.0551                 7.1339

                     67                     68                     69
                      A                      A                      A
 Frequencies --   1429.9701              1437.4416              1450.3571
 Red. masses --      1.2879                 1.3028                 1.3156
 Frc consts  --      1.5516                 1.5860                 1.6305
 IR Inten    --      7.4621                11.1796                 7.3069

                     70                     71                     72
                      A                      A                      A
 Frequencies --   1453.4696              1484.1516              1497.1304
 Red. masses --      1.4369                 1.1826                 1.2002
 Frc consts  --      1.7885                 1.5347                 1.5849
 IR Inten    --     25.6093                 2.0373                 5.0867

                     73                     74                     75
                      A                      A                      A
 Frequencies --   1501.8217              1512.3038              1513.6702
 Red. masses --      1.0966                 1.1729                 1.0730
 Frc consts  --      1.4573                 1.5805                 1.4485
 IR Inten    --      3.8222                21.8150                 6.2798

                     76                     77                     78
                      A                      A                      A
 Frequencies --   1515.8847              1520.0731              1521.8964
 Red. masses --      1.0624                 1.0657                 1.0585
 Frc consts  --      1.4383                 1.4509                 1.4445
 IR Inten    --      1.0503                 8.0506                12.7406

                     79                     80                     81
                      A                      A                      A
 Frequencies --   1523.2119              1527.0267              1533.1158
 Red. masses --      1.0567                 1.0591                 1.0783
 Frc consts  --      1.4445                 1.4551                 1.4932
 IR Inten    --      1.6139                 4.8563                 6.8518

                     82                     83                     84
                      A                      A                      A
 Frequencies --   1542.2619              1544.2303              1545.1496
 Red. masses --      1.0530                 1.0530                 1.0676
 Frc consts  --      1.4758                 1.4794                 1.5018
 IR Inten    --     10.2887                 2.3667                10.8546

                     85                     86                     87
                      A                      A                      A
 Frequencies --   1547.8206              1553.5732              2906.1576
 Red. masses --      1.0729                 1.0836                 1.0741
 Frc consts  --      1.5144                 1.5410                 5.3446
 IR Inten    --      7.3433                 5.4511                15.5883

                     88                     89                     90
                      A                      A                      A
 Frequencies --   2908.6121              2920.2291              2922.4939
 Red. masses --      1.0733                 1.0742                 1.0724
 Frc consts  --      5.3501                 5.3970                 5.3964
 IR Inten    --     22.3442                77.8451               129.9872

                     91                     92                     93
                      A                      A                      A
 Frequencies --   2945.9798              2956.5046              3051.3355
 Red. masses --      1.0619                 1.0606                 1.0762
 Frc consts  --      5.4301                 5.4620                 5.9035
 IR Inten    --    116.4488               126.3183                18.0774

                     94                     95                     96
                      A                      A                      A
 Frequencies --   3054.0034              3054.5966              3057.2508
 Red. masses --      1.0758                 1.0826                 1.0358
 Frc consts  --      5.9118                 5.9514                 5.7043
 IR Inten    --     50.0662                22.1295                17.2661

                     97                     98                     99
                      A                      A                      A
 Frequencies --   3059.9052              3064.1297              3071.7167
 Red. masses --      1.0599                 1.0873                 1.0716
 Frc consts  --      5.8467                 6.0146                 5.9574
 IR Inten    --     18.2715                11.1726                50.8568

                    100                    101                    102
                      A                      A                      A
 Frequencies --   3074.0251              3082.7127              3086.2872
 Red. masses --      1.0719                 1.0846                 1.0657
 Frc consts  --      5.9681                 6.0727                 5.9807
 IR Inten    --     67.1250                37.8802                34.2854

                    103                    104                    105
                      A                      A                      A
 Frequencies --   3102.8747              3116.1291              3118.0583
 Red. masses --      1.0868                 1.1032                 1.1027
 Frc consts  --      6.1651                 6.3118                 6.3165
 IR Inten    --     27.3665                31.0158                34.6005

                    106                    107                    108
                      A                      A                      A
 Frequencies --   3124.1000              3126.0167              3132.6911
 Red. masses --      1.1001                 1.0965                 1.1028
 Frc consts  --      6.3260                 6.3132                 6.3764
 IR Inten    --     37.7487                51.8204                38.4108

                    109                    110                    111
                      A                      A                      A
 Frequencies --   3141.9916              3161.1747              3496.2359
 Red. masses --      1.1002                 1.1007                 1.0734
 Frc consts  --      6.3994                 6.4805                 7.7304
 IR Inten    --     10.0120                28.3084                 2.1869

 - Thermochemistry -
 -------------------
 Temperature   298.150 Kelvin.  Pressure   1.00000 Atm.
 Atom     1 has atomic number  6 and mass  12.00000

 Molecular mass:   199.20485 amu.
 Principal axes and moments of inertia in atomic units:
                           1         2         3
     Eigenvalues --  2202.451834145.925245214.26654
           X            0.99998  -0.00470   0.00366
           Y            0.00467   0.99996   0.00792
           Z           -0.00370  -0.00790   0.99996
 This molecule is an asymmetric top.
 Rotational symmetry number  1.
 Warning -- assumption of classical behavior for rotation
           may cause significant error
 Rotational temperatures (Kelvin)      0.03933     0.02089     0.01661
 Rotational constants (GHZ):           0.81942     0.43530     0.34612
 Zero-point vibrational energy     957095.5 (Joules/Mol)
                                  228.75132 (Kcal/Mol)
 Warning -- explicit consideration of  25 degrees of freedom as
           vibrations may cause significant error
 Vibrational temperatures:     24.42    77.71   106.52   119.89   151.77
          (Kelvin)            158.44   190.70   263.22   292.70   315.81
                              337.01   362.54   385.18   423.26   430.74
                              459.87   483.37   500.11   560.91   639.04
                              645.68   688.55   752.51   794.77   873.00
                             1014.43  1083.32  1130.97  1163.73  1188.16
                             1229.67  1296.20  1321.94  1352.44  1369.80
                             1397.12  1442.50  1491.81  1503.51  1535.06
                             1568.30  1583.27  1599.96  1621.73  1636.72
                             1654.49  1661.80  1673.31  1688.16  1695.75
                             1734.46  1744.91  1771.42  1789.67  1825.16
                             1858.89  1902.32  1904.45  1941.93  1963.06
                             1965.08  1984.03  2003.37  2027.42  2031.67
                             2044.04  2057.41  2068.16  2086.74  2091.22
                             2135.36  2154.04  2160.79  2175.87  2177.83
                             2181.02  2187.05  2189.67  2191.56  2197.05
                             2205.81  2218.97  2221.80  2223.13  2226.97
                             2235.25  4181.31  4184.84  4201.56  4204.82
                             4238.61  4253.75  4390.19  4394.03  4394.88
                             4398.70  4402.52  4408.60  4419.52  4422.84
                             4435.34  4440.48  4464.34  4483.41  4486.19
                             4494.88  4497.64  4507.24  4520.63  4548.23
                             5030.30

 Zero-point correction=                           0.364538 (Hartree/Particle)
 Thermal correction to Energy=                    0.380872
 Thermal correction to Enthalpy=                  0.381816
 Thermal correction to Gibbs Free Energy=         0.320298
 Sum of electronic and zero-point Energies=           -598.148591
 Sum of electronic and thermal Energies=              -598.132257
 Sum of electronic and thermal Enthalpies=            -598.131313
 Sum of electronic and thermal Free Energies=         -598.192831

                     E (Thermal)             CV                S
                      KCal/Mol        Cal/Mol-Kelvin    Cal/Mol-Kelvin
 Total                  239.001             61.365            129.476
 Electronic               0.000              0.000              0.000
 Translational            0.889              2.981             41.772
 Rotational               0.889              2.981             32.232
 Vibrational            237.223             55.403             55.471
 Vibration     1          0.593              1.986              6.960
 Vibration     2          0.596              1.976              4.665
 Vibration     3          0.599              1.966              4.043
 Vibration     4          0.600              1.961              3.811
 Vibration     5          0.605              1.945              3.350
 Vibration     6          0.606              1.941              3.267
 Vibration     7          0.613              1.921              2.909
 Vibration     8          0.630              1.863              2.298
 Vibration     9          0.639              1.835              2.102
 Vibration    10          0.647              1.811              1.963
 Vibration    11          0.654              1.788              1.846
 Vibration    12          0.664              1.759              1.717
 Vibration    13          0.673              1.732              1.611
 Vibration    14          0.689              1.685              1.450
 Vibration    15          0.692              1.675              1.420
 Vibration    16          0.706              1.636              1.312
 Vibration    17          0.717              1.604              1.231
 Vibration    18          0.725              1.580              1.177
 Vibration    19          0.758              1.492              1.001
 Vibration    20          0.804              1.374              0.814
 Vibration    21          0.808              1.364              0.800
 Vibration    22          0.835              1.298              0.714
 Vibration    23          0.878              1.199              0.603
 Vibration    24          0.908              1.134              0.539
 Vibration    25          0.965              1.017              0.438

                           ! Non-Optimized Parameters !
 Normal termination of Gaussian 16 at Thu Dec 10 10:08:19 2020.

 ----------------------------------------------------------------------
 # B3LYP/6-311++G(d,p) empiricaldispersion=gd3bj scf=xqc pop=npa geom=c
 heck
 ----------------------------------------------------------------------

 --------------------------------------
 CID_84116465_JID_4485_Energie_neutraal
 --------------------------------------
 Structure from the checkpoint file:  "JID_4485.chk"
 Charge =  0 Multiplicity = 1

 SCF Done:  E(RB3LYP) =  -598.683248784     A.U. after   13 cycles
 Normal termination of Gaussian 16 at Thu Dec 10 10:14:28 2020.

 ----------------------------------------------------------------------
 # B3LYP/6-311++G(d,p) empiricaldispersion=gd3bj scf=xqc pop=npa geom=c
 heck
 ----------------------------------------------------------------------

 ------------------------------------
 CID_84116465_JID_4485_Energie_kation
 ------------------------------------
 Structure from the checkpoint file:  "JID_4485.chk"
 Charge =  1 Multiplicity = 2

 SCF Done:  E(UB3LYP) =  -598.416339894     A.U. after   26 cycles
 Normal termination of Gaussian 16 at Thu Dec 10 10:33:16 2020.
 Gaussian 16:  ES64L-G16RevA.03 25-Dec-2016

 ----------------------------------------------------------------------
 # B3LYP/6-311++G(d,p) empiricaldispersion=gd3bj scf=xqc pop=npa geom=c
 heck
 ----------------------------------------------------------------------

 -----------------------------------
 CID_84116465_JID_4485_Energie_anion
 -----------------------------------
 Structure from the checkpoint file:  "JID_4485.chk"
 Charge = -1 Multiplicity = 2

                         Standard orientation:
 ---------------------------------------------------------------------
 Center     Atomic      Atomic             Coordinates (Angstroms)
 Number     Number       Type             X           Y           Z
 ---------------------------------------------------------------------
      1          6           0        2.866362    2.771864    0.261865
      2          6           0        1.838592    2.171185   -0.695592
      3          7           0        1.296008    0.897465   -0.228652
      4          6           0        2.268513   -0.191671   -0.293036
      5          6           0        1.703400   -1.453778    0.382551
      6          7           0        0.380158   -1.839207   -0.150692
      7          6           0       -0.563471   -0.716184   -0.330681
      8          6           0        0.106804    0.505521   -0.980291
      9          6           0       -1.292629   -0.376685    0.981745
     10          6           0       -2.466169    0.595994    0.833107
     11          7           0       -3.487748    0.113942   -0.093131
     12          6           0       -4.652404    0.988650   -0.145257
     13          6           0        0.488607   -2.663999   -1.349345
     14          6           0        1.715540   -1.311386    1.910996
     15          1           0        2.444370    2.845411    1.269441
     16          1           0        3.151440    3.775458   -0.072347
     17          1           0        3.781792    2.174373    0.318938
     18          1           0        0.994823    2.865729   -0.786490
     19          1           0        2.277417    2.075684   -1.709817
     20          1           0        2.540076   -0.409447   -1.346550
     21          1           0        3.186480    0.105999    0.221734
     22          1           0        2.374345   -2.283775    0.132694
     23          1           0       -1.321966   -1.085675   -1.030469
     24          1           0       -0.590006    1.350543   -1.000572
     25          1           0        0.361469    0.274324   -2.035158
     26          1           0       -1.656726   -1.318455    1.404324
     27          1           0       -0.589849    0.060269    1.694258
     28          1           0       -2.944758    0.705918    1.814849
     29          1           0       -2.095515    1.606112    0.566843
     30          1           0       -3.088612    0.052538   -1.027350
     31          1           0       -4.418290    2.046291   -0.373346
     32          1           0       -5.354545    0.622129   -0.901379
     33          1           0       -5.163819    0.967846    0.824374
     34          1           0        0.927845   -2.156265   -2.227989
     35          1           0        1.105468   -3.542205   -1.130492
     36          1           0       -0.507146   -3.020545   -1.633853
     37          1           0        1.125200   -2.108893    2.370064
     38          1           0        2.745641   -1.380299    2.280786
     39          1           0        1.317064   -0.345525    2.228448
 ---------------------------------------------------------------------

 SCF Done:  E(UB3LYP) =  -598.668306446     A.U. after   29 cycles

 The electronic state is 2-A.
 Alpha  occ. eigenvalues --  -14.20597 -14.20236 -14.20023 -10.10104 -10.09825
 Alpha  occ. eigenvalues --  -10.09541 -10.09173 -10.09007 -10.08926 -10.08906
 Alpha  occ. eigenvalues --  -10.08848 -10.06506 -10.05944 -10.05772  -0.84862
 Alpha  occ. eigenvalues --   -0.80834  -0.80437  -0.69285  -0.66964  -0.64943
 Alpha  occ. eigenvalues --   -0.61116  -0.58332  -0.56115  -0.55351  -0.53533
 Alpha  occ. eigenvalues --   -0.50205  -0.48830  -0.42507  -0.40716  -0.39409
 Alpha  occ. eigenvalues --   -0.38197  -0.37282  -0.35915  -0.35308  -0.35139
 Alpha  occ. eigenvalues --   -0.34645  -0.33111  -0.32666  -0.31086  -0.30512
 Alpha  occ. eigenvalues --   -0.30065  -0.29721  -0.28680  -0.27696  -0.27442
 Alpha  occ. eigenvalues --   -0.27013  -0.26016  -0.25429  -0.24408  -0.24045
 Alpha  occ. eigenvalues --   -0.23082  -0.22414  -0.21909  -0.13445  -0.13205
 Alpha  occ. eigenvalues --   -0.10688   0.04316
 Alpha virt. eigenvalues --    0.06044   0.06570   0.07220   0.08227   0.08554
 Alpha virt. eigenvalues --    0.08609   0.08987   0.09658   0.10404   0.10729
 Alpha virt. eigenvalues --    0.11032   0.11446   0.12068   0.12196   0.12776

  Beta  occ. eigenvalues --  -14.20581 -14.20236 -14.20004 -10.10094 -10.09819
  Beta  occ. eigenvalues --  -10.09523 -10.09160 -10.08988 -10.08908 -10.08873
  Beta  occ. eigenvalues --  -10.08826 -10.06484 -10.05941 -10.05762  -0.84841
  Beta  occ. eigenvalues --   -0.80808  -0.80416  -0.69264  -0.66938  -0.64914
  Beta  occ. eigenvalues --   -0.61079  -0.58295  -0.56054  -0.55305  -0.53486
  Beta  occ. eigenvalues --   -0.50154  -0.48786  -0.42467  -0.40667  -0.39371
  Beta  occ. eigenvalues --   -0.38170  -0.37247  -0.35880  -0.35264  -0.35114
  Beta  occ. eigenvalues --   -0.34611  -0.33084  -0.32634  -0.31057  -0.30487
  Beta  occ. eigenvalues --   -0.30039  -0.29697  -0.28648  -0.27652  -0.27407
  Beta  occ. eigenvalues --   -0.26985  -0.25992  -0.25397  -0.24378  -0.24025
  Beta  occ. eigenvalues --   -0.23060  -0.22388  -0.21888  -0.13379  -0.13160
  Beta  occ. eigenvalues --   -0.10656
  Beta virt. eigenvalues --    0.06353   0.06913   0.07153   0.07654   0.08558
  Beta virt. eigenvalues --    0.08988   0.09088   0.09433   0.09813   0.10638
  Beta virt. eigenvalues --    0.11147   0.11330   0.11758   0.12242   0.12408

 Mulliken charges and spin densities:
               1          2
     1  C    0.433562  -1.005282
     2  C   -0.119618   0.122921
     3  N    0.165089   0.138460
     4  C    0.399422  -0.985064
     5  C   -0.600490   0.513794
     6  N    0.371158  -0.028259
     7  C   -1.257402   0.811437
     8  C    0.363556  -1.112994
     9  C   -0.499810   0.470429
    10  C    0.036493  -0.760037
    11  N   -0.193392   0.140922
    12  C    0.815759  -1.146861
    13  C    0.580436  -0.756540
    14  C    0.076566  -0.560985
    15  H    0.081167   0.056921
    16  H   -0.247836   0.387886
    17  H   -0.210818   0.347487
    18  H   -0.336858   0.474497
    19  H    0.026490   0.069434
    20  H   -0.055853   0.193308
    21  H    0.022983   0.108151
    22  H   -0.481272   0.661560
    23  H    0.413058  -0.210299
    24  H    0.001800   0.178358
    25  H   -0.172937   0.310315
    26  H    0.129940   0.062213
    27  H    0.035346   0.037674
    28  H    0.020237   0.149515
    29  H    0.282524  -0.165277
    30  H   -0.189206   0.394060
    31  H   -0.355310   0.484909
    32  H   -0.246078   0.372057
    33  H   -0.115111   0.233149
    34  H   -0.094505   0.223860
    35  H   -0.077906   0.213103
    36  H   -0.151213   0.280634
    37  H    0.142477   0.013283
    38  H   -0.125682   0.261079
    39  H    0.133238   0.020181
 Sum of Mulliken charges =  -1.00000   1.00000

 Dipole moment (field-independent basis, Debye):
    X=              0.9132    Y=             -1.4641    Z=              2.6133  Tot=              3.1316
 Quadrupole moment (field-independent basis, Debye-Ang):
   XX=           -172.9700   YY=           -146.1009   ZZ=           -126.8312
   XY=              3.6948   XZ=             -4.0104   YZ=              2.1391

 Summary of Natural Population Analysis:

                                       Natural Population
                Natural  -----------------------------------------------
    Atom  No    Charge         Core      Valence    Rydberg      Total
 -----------------------------------------------------------------------
      C    1   -0.28716      0.99966     2.28312    0.00438     3.28716
      C    2   -0.08107      0.99963     2.07048    0.01097     3.08107
      N    3   -0.28704      0.99970     2.77512    0.01222     3.78704
      C    4   -0.09367      0.99958     2.08219    0.01189     3.09367
      C    5   -0.00788      0.99958     1.99407    0.01423     3.00788
      N    6   -0.28426      0.99971     2.77135    0.01321     3.78426
      C    7   -0.00824      0.99956     1.99394    0.01473     3.00824
      C    8   -0.09523      0.99959     2.08290    0.01275     3.09523
      C    9   -0.19495      0.99959     2.18649    0.00887     3.19495
      C   10   -0.08549      0.99963     2.07459    0.01128     3.08549
      N   11   -0.33795      0.99974     2.82691    0.01129     3.83795
      C   12   -0.17747      0.99967     2.16908    0.00873     3.17747
      C   13   -0.17406      0.99963     2.16611    0.00831     3.17406
      C   14   -0.28839      0.99964     2.28239    0.00637     3.28839
      H   15    0.09925      0.00000     0.39934    0.00142     0.40075
      H   16    0.09918      0.00000     0.39986    0.00095     0.40082
      H   17    0.09609      0.00000     0.40257    0.00134     0.40391
      H   18    0.09487      0.00000     0.40352    0.00160     0.40513
      H   19    0.07877      0.00000     0.41973    0.00151     0.42123
      H   20    0.08387      0.00000     0.41448    0.00165     0.41613
      H   21    0.09960      0.00000     0.39881    0.00159     0.40040
      H   22    0.09536      0.00000     0.40281    0.00183     0.40464
      H   23    0.09544      0.00000     0.40214    0.00242     0.40456
      H   24    0.10055      0.00000     0.39754    0.00190     0.39945
      H   25    0.08377      0.00000     0.41457    0.00167     0.41623
      H   26    0.10280      0.00000     0.39576    0.00144     0.39720
      H   27    0.10194      0.00000     0.39646    0.00160     0.39806
      H   28    0.09083      0.00000     0.40803    0.00114     0.40917
      H   29    0.07844      0.00000     0.41999    0.00158     0.42156
      H   30    0.16996      0.00000     0.32598    0.00406     0.33004
      H   31    0.08018      0.00000     0.41791    0.00190     0.41982
      H   32    0.09459      0.00000     0.40439    0.00102     0.40541
      H   33    0.08818      0.00000     0.41054    0.00127     0.41182
      H   34    0.08162      0.00000     0.41696    0.00142     0.41838
      H   35    0.09378      0.00000     0.40510    0.00112     0.40622
      H   36    0.09434      0.00000     0.40460    0.00107     0.40566
      H   37    0.10237      0.00000     0.39653    0.00110     0.39763
      H   38    0.09682      0.00000     0.40243    0.00075     0.40318
      H   39    0.10028      0.00000     0.39825    0.00148     0.39972
 =======================================================================
   * Total *   -0.00000     13.99490    41.81705    0.18805    56.00000

 Normal termination of Gaussian 16 at Thu Dec 10 10:57:25 2020.
