 Gaussian 16, Revision A.03,

 -----------------------------------------------------------
 # opt freq B3LYP/6-31G(d) empiricaldispersion=gd3bj scf=xqc
 -----------------------------------------------------------

 --------------------------------
 CID_108147592_JID_10482_neutraal
 --------------------------------
 Symbolic Z-matrix:
 Charge =  0 Multiplicity = 1

 SCF Done:  E(RB3LYP) =  -984.124557781     A.U. after   15 cycles
 SCF Done:  E(RB3LYP) =  -984.137866977     A.U. after   15 cycles
 SCF Done:  E(RB3LYP) =  -984.139716466     A.U. after   15 cycles
 SCF Done:  E(RB3LYP) =  -984.145229874     A.U. after   15 cycles
 SCF Done:  E(RB3LYP) =  -984.148704786     A.U. after   13 cycles
 SCF Done:  E(RB3LYP) =  -984.150259457     A.U. after   16 cycles
 SCF Done:  E(RB3LYP) =  -984.150827642     A.U. after   14 cycles
 SCF Done:  E(RB3LYP) =  -984.151653932     A.U. after   13 cycles
 SCF Done:  E(RB3LYP) =  -984.151978388     A.U. after   13 cycles
 SCF Done:  E(RB3LYP) =  -984.152236721     A.U. after   13 cycles
 SCF Done:  E(RB3LYP) =  -984.152744078     A.U. after    9 cycles
 SCF Done:  E(RB3LYP) =  -984.152744941     A.U. after   11 cycles
 SCF Done:  E(RB3LYP) =  -984.152745458     A.U. after   10 cycles
 SCF Done:  E(RB3LYP) =  -984.152745568     A.U. after    8 cycles
 SCF Done:  E(RB3LYP) =  -984.152745587     A.U. after    7 cycles
 Optimization completed.
    -- Stationary point found.
 Normal termination of Gaussian 16 at Sat Dec 12 16:38:18 2020.

 --------------------------------------------------------------------
 #N Geom=AllCheck Guess=TCheck SCRF=Check GenChk RB3LYP/6-31G(d) Freq
 --------------------------------------------------------------------

 Structure from the checkpoint file:  "JID_10482.chk"
 --------------------------------
 CID_108147592_JID_10482_neutraal
 --------------------------------
 Charge =  0 Multiplicity = 1

 SCF Done:  E(RB3LYP) =  -984.152745587     A.U. after    1 cycles

  Exact polarizability: 225.271 -12.217 198.728  -0.185  -2.162 102.800
 Approx polarizability: 312.692 -24.640 331.771   1.096  -4.211 157.567

                      1                      2                      3
                      A                      A                      A
 Frequencies --     22.9405                27.5163                38.7186
 Red. masses --      5.0776                 4.1900                 4.3815
 Frc consts  --      0.0016                 0.0019                 0.0039
 IR Inten    --      0.9103                 0.0744                 0.2271

                      4                      5                      6
                      A                      A                      A
 Frequencies --     45.6875                52.6628                62.1329
 Red. masses --      3.6884                 4.3524                 3.0899
 Frc consts  --      0.0045                 0.0071                 0.0070
 IR Inten    --      0.3767                 0.8464                 0.3937

                      7                      8                      9
                      A                      A                      A
 Frequencies --     76.6816               115.1174               151.2874
 Red. masses --      3.9327                 3.7707                 1.5994
 Frc consts  --      0.0136                 0.0294                 0.0216
 IR Inten    --      0.7916                 1.6402                13.3944

                     10                     11                     12
                      A                      A                      A
 Frequencies --    171.3706               194.3089               206.4417
 Red. masses --      3.3653                 4.4889                 4.5656
 Frc consts  --      0.0582                 0.0999                 0.1146
 IR Inten    --      4.7786                 1.0099                 3.0984

                     13                     14                     15
                      A                      A                      A
 Frequencies --    217.6244               219.6296               242.2460
 Red. masses --      3.5095                 3.1904                 1.1228
 Frc consts  --      0.0979                 0.0907                 0.0388
 IR Inten    --      6.6135                 8.7704                 2.2135

                     16                     17                     18
                      A                      A                      A
 Frequencies --    265.7463               269.6338               285.6145
 Red. masses --      1.2138                 2.2639                 6.6007
 Frc consts  --      0.0505                 0.0970                 0.3173
 IR Inten    --      1.7997                 4.5238                 5.3443

                     19                     20                     21
                      A                      A                      A
 Frequencies --    305.4861               331.6863               357.4828
 Red. masses --      2.4827                 4.7750                 6.8502
 Frc consts  --      0.1365                 0.3095                 0.5158
 IR Inten    --     11.1667                 0.1282                 1.4306

                     22                     23                     24
                      A                      A                      A
 Frequencies --    395.3686               403.3597               486.2085
 Red. masses --      3.9408                 4.5133                 3.1296
 Frc consts  --      0.3629                 0.4326                 0.4359
 IR Inten    --      3.4947                 9.2474                13.2614

                     25                     26                     27
                      A                      A                      A
 Frequencies --    504.3141               519.0703               546.2304
 Red. masses --      1.8235                 1.8721                 3.6663
 Frc consts  --      0.2733                 0.2972                 0.6445
 IR Inten    --     78.0592                80.5298                 6.0050

                     28                     29                     30
                      A                      A                      A
 Frequencies --    560.9937               601.7695               620.9997
 Red. masses --      5.6598                 3.6706                 3.7065
 Frc consts  --      1.0495                 0.7831                 0.8422
 IR Inten    --      4.4562                 0.2844                 6.8922

                     31                     32                     33
                      A                      A                      A
 Frequencies --    640.8870               665.3281               695.7296
 Red. masses --      1.1868                 2.9641                 6.7979
 Frc consts  --      0.2872                 0.7731                 1.9387
 IR Inten    --     48.9392                 2.6893                12.3941

                     34                     35                     36
                      A                      A                      A
 Frequencies --    709.4091               757.3567               758.6161
 Red. masses --      7.8071                 3.8766                 8.1621
 Frc consts  --      2.3149                 1.3101                 2.7675
 IR Inten    --      0.4220                 9.7543                11.1143

                     37                     38                     39
                      A                      A                      A
 Frequencies --    761.4995               792.8986               825.6567
 Red. masses --      4.9663                 9.7960                 3.3395
 Frc consts  --      1.6968                 3.6286                 1.3413
 IR Inten    --     15.7218                20.9188                 1.9084

                     40                     41                     42
                      A                      A                      A
 Frequencies --    852.1908               861.7673               913.5428
 Red. masses --      1.5575                 8.6868                 2.1868
 Frc consts  --      0.6664                 3.8009                 1.0752
 IR Inten    --      3.4850                11.5328                 5.5962

                     43                     44                     45
                      A                      A                      A
 Frequencies --    942.2013               957.9370               974.2873
 Red. masses --      2.2424                 3.5258                 2.7515
 Frc consts  --      1.1729                 1.9062                 1.5389
 IR Inten    --      5.9674                16.5169                90.5788

                     46                     47                     48
                      A                      A                      A
 Frequencies --    987.6106               993.4178              1029.7216
 Red. masses --      2.4544                 1.9372                 1.8213
 Frc consts  --      1.4105                 1.1264                 1.1378
 IR Inten    --     16.0498                 7.1716                 8.5371

                     49                     50                     51
                      A                      A                      A
 Frequencies --   1032.1797              1054.3207              1066.3566
 Red. masses --      3.2152                 1.4883                 1.6126
 Frc consts  --      2.0182                 0.9747                 1.0804
 IR Inten    --     12.9337                 3.7921                 4.2699

                     52                     53                     54
                      A                      A                      A
 Frequencies --   1074.8406              1120.9348              1126.3530
 Red. masses --      2.4959                 3.1783                 4.9199
 Frc consts  --      1.6989                 2.3529                 3.6776
 IR Inten    --     29.6554                33.2012                67.9447

                     55                     56                     57
                      A                      A                      A
 Frequencies --   1148.3354              1169.6620              1184.4334
 Red. masses --      2.2855                 2.9929                 1.8731
 Frc consts  --      1.7757                 2.4125                 1.5482
 IR Inten    --     29.1936                42.0362                 4.3475

                     58                     59                     60
                      A                      A                      A
 Frequencies --   1185.2712              1235.7986              1252.8600
 Red. masses --      3.1722                 1.2021                 1.3280
 Frc consts  --      2.6257                 1.0817                 1.2281
 IR Inten    --     37.3221                 3.2447                28.7592

                     61                     62                     63
                      A                      A                      A
 Frequencies --   1266.4744              1275.8314              1287.7361
 Red. masses --      1.7569                 1.8509                 2.0631
 Frc consts  --      1.6603                 1.7751                 2.0157
 IR Inten    --     29.6828                 2.3035               111.2271

                     64                     65                     66
                      A                      A                      A
 Frequencies --   1302.9543              1329.8171              1341.8494
 Red. masses --      1.2558                 1.4186                 5.0592
 Frc consts  --      1.2561                 1.4781                 5.3671
 IR Inten    --     21.2599                48.0212               335.8856

                     67                     68                     69
                      A                      A                      A
 Frequencies --   1366.3561              1371.0636              1375.0693
 Red. masses --      1.7119                 1.2638                 1.4404
 Frc consts  --      1.8831                 1.3998                 1.6047
 IR Inten    --     50.6952                16.4677                11.7793

                     70                     71                     72
                      A                      A                      A
 Frequencies --   1376.6141              1389.3907              1409.6613
 Red. masses --      1.1527                 2.7790                 1.3394
 Frc consts  --      1.2870                 3.1607                 1.5681
 IR Inten    --      3.6520                41.3699                12.0063

                     73                     74                     75
                      A                      A                      A
 Frequencies --   1423.7614              1426.6671              1439.1759
 Red. masses --      1.3696                 1.3612                 1.8831
 Frc consts  --      1.6358                 1.6323                 2.2980
 IR Inten    --     15.5655                11.3465                82.8952

                     76                     77                     78
                      A                      A                      A
 Frequencies --   1443.4941              1450.2217              1501.4649
 Red. masses --      1.3228                 2.0655                 1.4002
 Frc consts  --      1.6240                 2.5594                 1.8598
 IR Inten    --      8.6225                 3.9570                51.2391

                     79                     80                     81
                      A                      A                      A
 Frequencies --   1503.8523              1511.8243              1519.6749
 Red. masses --      1.0730                 1.4284                 2.1479
 Frc consts  --      1.4297                 1.9236                 2.9225
 IR Inten    --     15.2872               152.9310               105.1981

                     82                     83                     84
                      A                      A                      A
 Frequencies --   1523.5599              1534.0718              1544.4697
 Red. masses --      1.1464                 1.0778                 1.0640
 Frc consts  --      1.5679                 1.4945                 1.4953
 IR Inten    --     11.5173                 4.8296                 6.8883

                     85                     86                     87
                      A                      A                      A
 Frequencies --   1554.3901              1585.5399              1607.3718
 Red. masses --      1.1034                 8.9596                 3.2971
 Frc consts  --      1.5708                13.2706                 5.0190
 IR Inten    --      1.0789               332.7715               140.7023

                     88                     89                     90
                      A                      A                      A
 Frequencies --   1636.5361              1642.0248              1745.1480
 Red. masses --      7.4495                 4.0276                 1.0667
 Frc consts  --     11.7551                 6.3982                 1.9141
 IR Inten    --   1075.0380               615.0243                36.1146

                     91                     92                     93
                      A                      A                      A
 Frequencies --   2991.2531              3003.0741              3069.8928
 Red. masses --      1.0721                 1.0731                 1.0429
 Frc consts  --      5.6521                 5.7020                 5.7907
 IR Inten    --     56.9585               114.6795                22.9088

                     94                     95                     96
                      A                      A                      A
 Frequencies --   3073.1587              3080.3859              3084.9078
 Red. masses --      1.0774                 1.0347                 1.0667
 Frc consts  --      5.9949                 5.7847                 5.9808
 IR Inten    --      8.4359                 3.9258                20.8264

                     97                     98                     99
                      A                      A                      A
 Frequencies --   3087.7037              3112.3887              3116.8777
 Red. masses --      1.0808                 1.0927                 1.0950
 Frc consts  --      6.0709                 6.2367                 6.2675
 IR Inten    --     14.1185                31.6563                11.1407

                    100                    101                    102
                      A                      A                      A
 Frequencies --   3130.1681              3141.0480              3145.2348
 Red. masses --      1.1033                 1.1012                 1.0992
 Frc consts  --      6.3691                 6.4014                 6.4068
 IR Inten    --     41.9914                21.2773                 3.3401

                    103                    104                    105
                      A                      A                      A
 Frequencies --   3155.4804              3170.7861              3443.0455
 Red. masses --      1.1034                 1.1061                 1.0477
 Frc consts  --      6.4731                 6.5520                 7.3179
 IR Inten    --     20.6064                14.9056                 2.8825

                    106                    107                    108
                      A                      A                      A
 Frequencies --   3515.6060              3537.5414              3642.4206
 Red. masses --      1.0944                 1.0772                 1.0782
 Frc consts  --      7.9693                 7.9421                 8.4280
 IR Inten    --      0.7873               104.6059                86.2442

 - Thermochemistry -
 -------------------
 Temperature   298.150 Kelvin.  Pressure   1.00000 Atm.
 Atom     1 has atomic number  6 and mass  12.00000

 Molecular mass:   282.14404 amu.
 Principal axes and moments of inertia in atomic units:
                           1         2         3
     Eigenvalues --  3418.211849151.07969**********
           X            0.99999  -0.00439  -0.00085
           Y            0.00439   0.99999   0.00038
           Z            0.00085  -0.00038   1.00000
 This molecule is an asymmetric top.
 Rotational symmetry number  1.
 Warning -- assumption of classical behavior for rotation
           may cause significant error
 Rotational temperatures (Kelvin)      0.02534     0.00946     0.00715
 Rotational constants (GHZ):           0.52798     0.19722     0.14905
 Zero-point vibrational energy     826959.2 (Joules/Mol)
                                  197.64798 (Kcal/Mol)
 Warning -- explicit consideration of  29 degrees of freedom as
           vibrations may cause significant error
 Vibrational temperatures:     33.01    39.59    55.71    65.73    75.77
          (Kelvin)             89.40   110.33   165.63   217.67   246.56
                              279.57   297.02   313.11   316.00   348.54
                              382.35   387.94   410.94   439.53   477.22
                              514.34   568.85   580.34   699.55   725.60
                              746.83   785.90   807.14   865.81   893.48
                              922.09   957.26  1001.00  1020.68  1089.67
                             1091.48  1095.63  1140.80  1187.94  1226.11
                             1239.89  1314.38  1355.62  1378.26  1401.78
                             1420.95  1429.31  1481.54  1485.08  1516.93
                             1534.25  1546.46  1612.78  1620.57  1652.20
                             1682.88  1704.14  1705.34  1778.04  1802.59
                             1822.17  1835.64  1852.77  1874.66  1913.31
                             1930.62  1965.88  1972.65  1978.42  1980.64
                             1999.02  2028.19  2048.48  2052.66  2070.65
                             2076.87  2086.55  2160.27  2163.71  2175.18
                             2186.47  2192.06  2207.19  2222.15  2236.42
                             2281.24  2312.65  2354.61  2362.51  2510.88
                             4303.75  4320.75  4416.89  4421.59  4431.99
                             4438.49  4442.52  4478.03  4484.49  4503.61
                             4519.27  4525.29  4540.03  4562.05  4953.77
                             5058.17  5089.73  5240.63

 Zero-point correction=                           0.314972 (Hartree/Particle)
 Thermal correction to Energy=                    0.334614
 Thermal correction to Enthalpy=                  0.335558
 Thermal correction to Gibbs Free Energy=         0.264238
 Sum of electronic and zero-point Energies=           -983.837773
 Sum of electronic and thermal Energies=              -983.818132
 Sum of electronic and thermal Enthalpies=            -983.817187
 Sum of electronic and thermal Free Energies=         -983.888508

                     E (Thermal)             CV                S
                      KCal/Mol        Cal/Mol-Kelvin    Cal/Mol-Kelvin
 Total                  209.973             72.346            150.106
 Electronic               0.000              0.000              0.000
 Translational            0.889              2.981             42.810
 Rotational               0.889              2.981             34.292
 Vibrational            208.196             66.384             73.004
 Vibration     1          0.593              1.985              6.362
 Vibration     2          0.593              1.984              6.001
 Vibration     3          0.594              1.981              5.324
 Vibration     4          0.595              1.979              4.996
 Vibration     5          0.596              1.977              4.715
 Vibration     6          0.597              1.972              4.388
 Vibration     7          0.599              1.965              3.974
 Vibration     8          0.608              1.937              3.181
 Vibration     9          0.619              1.901              2.656
 Vibration    10          0.626              1.878              2.420
 Vibration    11          0.635              1.848              2.186
 Vibration    12          0.641              1.831              2.075
 Vibration    13          0.646              1.814              1.979
 Vibration    14          0.647              1.811              1.962
 Vibration    15          0.658              1.776              1.786
 Vibration    16          0.672              1.736              1.624
 Vibration    17          0.674              1.729              1.599
 Vibration    18          0.683              1.700              1.500
 Vibration    19          0.696              1.663              1.387
 Vibration    20          0.714              1.612              1.252
 Vibration    21          0.733              1.560              1.133
 Vibration    22          0.762              1.480              0.980
 Vibration    23          0.769              1.463              0.950
 Vibration    24          0.842              1.281              0.694
 Vibration    25          0.860              1.240              0.647
 Vibration    26          0.874              1.208              0.612
 Vibration    27          0.901              1.148              0.552
 Vibration    28          0.917              1.116              0.522
 Vibration    29          0.960              1.028              0.447

 Optimization completed.
    -- Stationary point found.
 Normal termination of Gaussian 16 at Sat Dec 12 16:59:16 2020.

 ----------------------------------------------------------------------
 # B3LYP/6-311++G(d,p) empiricaldispersion=gd3bj scf=xqc pop=npa geom=c
 heck
 ----------------------------------------------------------------------

 ----------------------------------------
 CID_108147592_JID_10482_Energie_neutraal
 ----------------------------------------
 Structure from the checkpoint file:  "JID_10482.chk"
 Charge =  0 Multiplicity = 1

 SCF Done:  E(RB3LYP) =  -984.438773560     A.U. after   15 cycles
 Normal termination of Gaussian 16 at Sat Dec 12 17:08:52 2020.

 ----------------------------------------------------------------------
 # B3LYP/6-311++G(d,p) empiricaldispersion=gd3bj scf=xqc pop=npa geom=c
 heck
 ----------------------------------------------------------------------

 --------------------------------------
 CID_108147592_JID_10482_Energie_kation
 --------------------------------------
 Structure from the checkpoint file:  "JID_10482.chk"
 Charge =  1 Multiplicity = 2

 SCF Done:  E(UB3LYP) =  -984.131526212     A.U. after   33 cycles
 SCF Done:  E(UB3LYP) =  -984.131526212     a.u. after    1 cycles
 Normal termination of Gaussian 16 at Sat Dec 12 17:38:28 2020.
 Gaussian 16:  ES64L-G16RevA.03 25-Dec-2016

 ----------------------------------------------------------------------
 # B3LYP/6-311++G(d,p) empiricaldispersion=gd3bj scf=xqc pop=npa geom=c
 heck
 ----------------------------------------------------------------------

 -------------------------------------
 CID_108147592_JID_10482_Energie_anion
 -------------------------------------
 Structure from the checkpoint file:  "JID_10482.chk"
 Charge = -1 Multiplicity = 2

                         Standard orientation:
 ---------------------------------------------------------------------
 Center     Atomic      Atomic             Coordinates (Angstroms)
 Number     Number       Type             X           Y           Z
 ---------------------------------------------------------------------
      1          6           0       -4.185453   -1.588289    0.088481
      2          6           0       -2.998404   -0.666770    0.012392
      3          6           0       -1.643343   -1.084186   -0.023863
      4          6           0       -0.628903   -0.049775   -0.065790
      5          7           0       -0.989981    1.242839   -0.084962
      6          6           0       -2.297063    1.509800   -0.071010
      7          7           0       -3.318572    0.626806   -0.011783
      8          7           0       -2.638726    2.821905   -0.115707
      9          7           0       -3.949070    3.308050    0.003079
     10          7           0        0.683732   -0.315087   -0.099023
     11          6           0        1.731013    0.707860   -0.117507
     12          6           0        1.977880    1.264208    1.290162
     13          6           0        2.972536    0.102148   -0.799304
     14          6           0        3.636609   -1.056176   -0.001095
     15          6           0        5.001986   -0.474153    0.437803
     16          8           0        4.918884    0.934827    0.245621
     17          6           0        4.124698    1.118233   -0.917034
     18          7           0       -1.294563   -2.471064   -0.011108
     19          8           0       -0.086021   -2.796922    0.027567
     20          8           0       -2.185473   -3.325808   -0.039497
     21          1           0       -5.081143   -0.968347    0.155119
     22          1           0       -4.240873   -2.235436   -0.790742
     23          1           0       -4.120471   -2.256360    0.950872
     24          1           0       -1.898264    3.505875   -0.062554
     25          1           0       -4.468505    2.999642   -0.819408
     26          1           0       -4.386771    2.829557    0.791550
     27          1           0        0.924076   -1.299115   -0.041081
     28          1           0        1.362084    1.523241   -0.747283
     29          1           0        2.278665    0.471812    1.982764
     30          1           0        2.768779    2.018498    1.280779
     31          1           0        1.056733    1.717737    1.665090
     32          1           0        2.662616   -0.239267   -1.792791
     33          1           0        3.763570   -1.949737   -0.617946
     34          1           0        3.034783   -1.345731    0.865394
     35          1           0        5.238282   -0.649909    1.490262
     36          1           0        5.815319   -0.891259   -0.176752
     37          1           0        4.716508    0.919118   -1.825634
     38          1           0        3.796403    2.161359   -0.940051
 ---------------------------------------------------------------------

 SCF Done:  E(UB3LYP) =  -984.469397486     A.U. after   24 cycles

 The electronic state is 2-A.
 Alpha  occ. eigenvalues --  -19.04670 -18.93652 -18.93224 -14.31197 -14.23155
 Alpha  occ. eigenvalues --  -14.23086 -14.19911 -14.16739 -14.16048 -10.13922
 Alpha  occ. eigenvalues --  -10.13696 -10.12800 -10.12777 -10.10784 -10.09313
 Alpha  occ. eigenvalues --  -10.08765 -10.07351 -10.06442 -10.05823 -10.02448
 Alpha  occ. eigenvalues --   -1.01472  -0.96664  -0.89783  -0.85519  -0.83863
 Alpha  occ. eigenvalues --   -0.80993  -0.74986  -0.71740  -0.68880  -0.66716
 Alpha  occ. eigenvalues --   -0.65236  -0.63079  -0.59560  -0.55617  -0.53201
 Alpha  occ. eigenvalues --   -0.52388  -0.49346  -0.48588  -0.46234  -0.43204
 Alpha  occ. eigenvalues --   -0.42510  -0.41093  -0.40474  -0.40003  -0.37958
 Alpha  occ. eigenvalues --   -0.37564  -0.36584  -0.36018  -0.34972  -0.33865
 Alpha  occ. eigenvalues --   -0.33318  -0.32455  -0.31519  -0.30266  -0.29851
 Alpha  occ. eigenvalues --   -0.29051  -0.28531  -0.27270  -0.26804  -0.25886
 Alpha  occ. eigenvalues --   -0.24964  -0.24863  -0.24385  -0.23332  -0.21710
 Alpha  occ. eigenvalues --   -0.19459  -0.18372  -0.18076  -0.17386  -0.13284
 Alpha  occ. eigenvalues --   -0.12500  -0.11967  -0.11899  -0.09317  -0.09071
 Alpha  occ. eigenvalues --    0.03314
 Alpha virt. eigenvalues --    0.06065   0.07841   0.08024   0.08457   0.09708
 Alpha virt. eigenvalues --    0.09989   0.10446   0.10804   0.11152   0.11244
 Alpha virt. eigenvalues --    0.11735   0.12042   0.12753   0.13368   0.13789

  Beta  occ. eigenvalues --  -19.04669 -18.93171 -18.92651 -14.30392 -14.23096
  Beta  occ. eigenvalues --  -14.23065 -14.19886 -14.16787 -14.16151 -10.13921
  Beta  occ. eigenvalues --  -10.13696 -10.12739 -10.12522 -10.10785 -10.09313
  Beta  occ. eigenvalues --  -10.08765 -10.06943 -10.06562 -10.05822 -10.02471
  Beta  occ. eigenvalues --   -1.00240  -0.96664  -0.89598  -0.85375  -0.82967
  Beta  occ. eigenvalues --   -0.80808  -0.74877  -0.71667  -0.68789  -0.66709
  Beta  occ. eigenvalues --   -0.64947  -0.62978  -0.59211  -0.55484  -0.52955
  Beta  occ. eigenvalues --   -0.52316  -0.49223  -0.48255  -0.45848  -0.43066
  Beta  occ. eigenvalues --   -0.42445  -0.41081  -0.40369  -0.39869  -0.37907
  Beta  occ. eigenvalues --   -0.37368  -0.36518  -0.35581  -0.33662  -0.33413
  Beta  occ. eigenvalues --   -0.32885  -0.31934  -0.30825  -0.29601  -0.29142
  Beta  occ. eigenvalues --   -0.28684  -0.28474  -0.26922  -0.26734  -0.25705
  Beta  occ. eigenvalues --   -0.24898  -0.24749  -0.24335  -0.23321  -0.21317
  Beta  occ. eigenvalues --   -0.19458  -0.18367  -0.17981  -0.16710  -0.12498
  Beta  occ. eigenvalues --   -0.11936  -0.11553  -0.09607  -0.08748  -0.08416
  Beta virt. eigenvalues --    0.06042   0.07811   0.08003   0.08449   0.09685
  Beta virt. eigenvalues --    0.09961   0.10429   0.10770   0.10850   0.11175
  Beta virt. eigenvalues --    0.11531   0.12017   0.12497   0.12937   0.13388

 Mulliken charges and spin densities:
               1          2
     1  C   -0.337501  -0.012051
     2  C    0.411652   0.276772
     3  C   -0.453939  -0.084990
     4  C   -0.507299   0.023587
     5  N   -0.224122  -0.017773
     6  C    0.003485   0.133711
     7  N   -0.236929  -0.062887
     8  N   -0.344456   0.031881
     9  N   -0.237716  -0.006410
    10  N    0.103232   0.013656
    11  C   -0.252265  -0.000092
    12  C   -0.466983   0.000153
    13  C    0.343435  -0.001148
    14  C   -0.328025  -0.010409
    15  C   -0.386194  -0.000726
    16  O   -0.076189  -0.000015
    17  C   -0.681285   0.003419
    18  N   -0.424511   0.253619
    19  O   -0.164035   0.186240
    20  O   -0.195200   0.220452
    21  H    0.111201   0.000374
    22  H    0.175852   0.010330
    23  H    0.173395   0.009275
    24  H    0.305138  -0.001604
    25  H    0.233504   0.003666
    26  H    0.223172   0.011032
    27  H    0.402615  -0.000414
    28  H    0.209880   0.007362
    29  H    0.164989  -0.001594
    30  H    0.160008   0.000577
    31  H    0.170596   0.000476
    32  H    0.224982   0.001992
    33  H    0.161185   0.004923
    34  H    0.157421   0.003600
    35  H    0.164737  -0.000005
    36  H    0.125200  -0.000085
    37  H    0.118826   0.001633
    38  H    0.172145   0.001471
 Sum of Mulliken charges =  -1.00000   1.00000

 Dipole moment (field-independent basis, Debye):
    X=              6.7922    Y=              6.1641    Z=             -0.7249  Tot=              9.2009
 Quadrupole moment (field-independent basis, Debye-Ang):
   XX=           -159.7028   YY=           -172.2404   ZZ=           -122.2721
   XY=            -12.0977   XZ=             -3.8418   YZ=             -2.0975

 Summary of Natural Population Analysis:

                                       Natural Population
                Natural  -----------------------------------------------
    Atom  No    Charge         Core      Valence    Rydberg      Total
 -----------------------------------------------------------------------
      C    1   -0.30207      0.99963     2.29752    0.00491     3.30207
      C    2    0.21264      0.99957     1.77516    0.01263     2.78736
      C    3   -0.05683      0.99939     2.04521    0.01223     3.05683
      C    4    0.23977      0.99956     1.74672    0.01395     2.76023
      N    5   -0.32930      0.99964     2.81782    0.01184     3.82930
      C    6    0.33991      0.99961     1.64402    0.01647     2.66009
      N    7   -0.33166      0.99966     2.82063    0.01137     3.83166
      N    8   -0.21498      0.99964     2.70185    0.01349     3.71498
      N    9   -0.32030      0.99978     2.80960    0.01092     3.82030
      N   10   -0.31576      0.99962     2.80249    0.01365     3.81576
      C   11   -0.00623      0.99958     1.99536    0.01129     3.00623
      C   12   -0.29400      0.99964     2.28920    0.00515     3.29400
      C   13   -0.12098      0.99958     2.11276    0.00864     3.12098
      C   14   -0.21071      0.99963     2.20421    0.00687     3.21071
      C   15   -0.01179      0.99962     2.00178    0.01038     3.01179
      O   16   -0.30281      0.99989     3.29195    0.01097     4.30281
      C   17   -0.01156      0.99959     2.00068    0.01130     3.01156
      N   18    0.32645      0.99970     2.14891    0.02495     3.17355
      O   19   -0.23250      0.99990     3.22445    0.00816     4.23250
      O   20   -0.18478      0.99990     3.17689    0.00799     4.18478
      H   21    0.09309      0.00000     0.40569    0.00122     0.40691
      H   22    0.11464      0.00000     0.38430    0.00106     0.38536
      H   23    0.11403      0.00000     0.38488    0.00109     0.38597
      H   24    0.18488      0.00000     0.31314    0.00198     0.31512
      H   25    0.17127      0.00000     0.32687    0.00186     0.32873
      H   26    0.17417      0.00000     0.32384    0.00199     0.32583
      H   27    0.21809      0.00000     0.27967    0.00224     0.28191
      H   28    0.10385      0.00000     0.39444    0.00170     0.39615
      H   29    0.09498      0.00000     0.40402    0.00100     0.40502
      H   30    0.09733      0.00000     0.40166    0.00101     0.40267
      H   31    0.10975      0.00000     0.38925    0.00101     0.39025
      H   32    0.10750      0.00000     0.39143    0.00108     0.39250
      H   33    0.10449      0.00000     0.39458    0.00093     0.39551
      H   34    0.10760      0.00000     0.39130    0.00110     0.39240
      H   35    0.08926      0.00000     0.40971    0.00103     0.41074
      H   36    0.07365      0.00000     0.42492    0.00143     0.42635
      H   37    0.07644      0.00000     0.42220    0.00136     0.42356
      H   38    0.09246      0.00000     0.40648    0.00105     0.40754
 =======================================================================
   * Total *    0.00000     19.99313    54.75558    0.25129    75.00000

 Normal termination of Gaussian 16 at Sat Dec 12 17:59:54 2020.
