 Gaussian 16, Revision A.03,

 -----------------------------------------------------------
 # opt freq B3LYP/6-31G(d) empiricaldispersion=gd3bj scf=xqc
 -----------------------------------------------------------

 ------------------------------
 CID_18355471_JID_9044_neutraal
 ------------------------------
 Symbolic Z-matrix:
 Charge =  0 Multiplicity = 1

 SCF Done:  E(RB3LYP) =  -864.772500632     A.U. after   15 cycles
 SCF Done:  E(RB3LYP) =  -864.776673418     A.U. after   12 cycles
 SCF Done:  E(RB3LYP) =  -864.776652259     A.U. after   13 cycles
 SCF Done:  E(RB3LYP) =  -864.778804187     A.U. after   13 cycles
 SCF Done:  E(RB3LYP) =  -864.779966799     A.U. after   12 cycles
 SCF Done:  E(RB3LYP) =  -864.780348132     A.U. after   12 cycles
 SCF Done:  E(RB3LYP) =  -864.780822904     A.U. after   13 cycles
 SCF Done:  E(RB3LYP) =  -864.781089878     A.U. after   12 cycles
 SCF Done:  E(RB3LYP) =  -864.781808077     A.U. after   12 cycles
 SCF Done:  E(RB3LYP) =  -864.782005139     A.U. after   12 cycles
 SCF Done:  E(RB3LYP) =  -864.782812369     A.U. after    8 cycles
 SCF Done:  E(RB3LYP) =  -864.782812635     A.U. after    9 cycles
 SCF Done:  E(RB3LYP) =  -864.782812650     A.U. after    7 cycles
 SCF Done:  E(RB3LYP) =  -864.782812628     A.U. after    6 cycles
 SCF Done:  E(RB3LYP) =  -864.782812611     A.U. after    6 cycles
 Optimization completed.
    -- Stationary point found.
 Normal termination of Gaussian 16 at Sun Dec 13 21:20:09 2020.

 --------------------------------------------------------------------
 #N Geom=AllCheck Guess=TCheck SCRF=Check GenChk RB3LYP/6-31G(d) Freq
 --------------------------------------------------------------------

 Structure from the checkpoint file:  "JID_9044.chk"
 ------------------------------
 CID_18355471_JID_9044_neutraal
 ------------------------------
 Charge =  0 Multiplicity = 1

 SCF Done:  E(RB3LYP) =  -864.782812611     A.U. after    1 cycles

  Exact polarizability: 212.836 -14.611 154.380 -11.793  -6.636 136.995
 Approx polarizability: 267.201 -27.552 246.278 -34.251 -12.475 226.912

                      1                      2                      3
                      A                      A                      A
 Frequencies --     13.5492                20.0698                23.3543
 Red. masses --      3.8344                 7.4276                 4.8285
 Frc consts  --      0.0004                 0.0018                 0.0016
 IR Inten    --      0.0873                 0.6533                 0.4623

                      4                      5                      6
                      A                      A                      A
 Frequencies --     30.2400                39.2521                45.4219
 Red. masses --      6.2229                 6.7506                 4.4090
 Frc consts  --      0.0034                 0.0061                 0.0054
 IR Inten    --      0.9812                 0.9503                 0.2723

                      7                      8                      9
                      A                      A                      A
 Frequencies --     68.2329                97.0504               149.2618
 Red. masses --      3.4838                 3.7527                 4.7578
 Frc consts  --      0.0096                 0.0208                 0.0625
 IR Inten    --      0.1845                 0.1691                 1.8839

                     10                     11                     12
                      A                      A                      A
 Frequencies --    196.8008               200.6735               244.3074
 Red. masses --      1.4683                 3.2726                 2.3978
 Frc consts  --      0.0335                 0.0776                 0.0843
 IR Inten    --      0.0748                 1.4944                 0.8866

                     13                     14                     15
                      A                      A                      A
 Frequencies --    245.9168               254.5717               266.2551
 Red. masses --      1.4075                 1.4808                 1.8885
 Frc consts  --      0.0502                 0.0565                 0.0789
 IR Inten    --      0.1242                 0.4229                 2.1098

                     16                     17                     18
                      A                      A                      A
 Frequencies --    295.2188               312.6330               333.4732
 Red. masses --      1.2403                 3.4941                 2.9015
 Frc consts  --      0.0637                 0.2012                 0.1901
 IR Inten    --      0.0036                 0.0412                 0.1376

                     19                     20                     21
                      A                      A                      A
 Frequencies --    356.9869               364.3906               384.9263
 Red. masses --      3.1621                 3.2672                 2.9186
 Frc consts  --      0.2374                 0.2556                 0.2548
 IR Inten    --      0.2011                 7.1638                 4.5589

                     22                     23                     24
                      A                      A                      A
 Frequencies --    386.9703               425.4934               434.3026
 Red. masses --      2.1428                 3.1429                 3.1071
 Frc consts  --      0.1891                 0.3352                 0.3453
 IR Inten    --      1.0687                 0.2946                 0.6809

                     25                     26                     27
                      A                      A                      A
 Frequencies --    448.8127               484.6201               517.8676
 Red. masses --      3.7854                 2.4921                 2.4866
 Frc consts  --      0.4493                 0.3448                 0.3929
 IR Inten    --      3.9075                36.2033                 6.4540

                     28                     29                     30
                      A                      A                      A
 Frequencies --    525.7059               533.3293               581.0574
 Red. masses --      1.2323                 3.0983                 3.0853
 Frc consts  --      0.2007                 0.5192                 0.6137
 IR Inten    --     63.7289                 7.9892                13.7090

                     31                     32                     33
                      A                      A                      A
 Frequencies --    618.9930               636.9430               659.2188
 Red. masses --      3.7307                 3.1216                 6.7165
 Frc consts  --      0.8422                 0.7462                 1.7197
 IR Inten    --     16.9374                17.7550                 0.7597

                     34                     35                     36
                      A                      A                      A
 Frequencies --    664.4739               686.7049               749.4715
 Red. masses --      2.8740                 1.5903                 2.7367
 Frc consts  --      0.7476                 0.4419                 0.9057
 IR Inten    --     31.9708                74.2125                 4.9908

                     37                     38                     39
                      A                      A                      A
 Frequencies --    758.5473               777.0660               800.1136
 Red. masses --      5.9926                 3.3413                 2.5130
 Frc consts  --      2.0316                 1.1887                 0.9479
 IR Inten    --     15.5795                 9.6943                11.8408

                     40                     41                     42
                      A                      A                      A
 Frequencies --    847.8010               861.0313               863.2505
 Red. masses --      2.4453                 2.3113                 1.3309
 Frc consts  --      1.0356                 1.0096                 0.5844
 IR Inten    --      8.9489                10.5787                 0.6883

                     43                     44                     45
                      A                      A                      A
 Frequencies --    872.8345               911.0907               931.9092
 Red. masses --      1.7779                 2.4608                 3.6975
 Frc consts  --      0.7981                 1.2035                 1.8919
 IR Inten    --     16.4013                 1.1710                18.3625

                     46                     47                     48
                      A                      A                      A
 Frequencies --    954.6364               956.2788               974.6849
 Red. masses --      1.7249                 1.6853                 1.3412
 Frc consts  --      0.9262                 0.9080                 0.7507
 IR Inten    --      0.5144                 2.3309                 0.4220

                     49                     50                     51
                      A                      A                      A
 Frequencies --    981.0006               984.6020              1024.5256
 Red. masses --      1.1992                 1.3232                 2.2537
 Frc consts  --      0.6799                 0.7558                 1.3938
 IR Inten    --      0.1349                 1.1660                 2.4251

                     52                     53                     54
                      A                      A                      A
 Frequencies --   1029.7696              1047.1134              1061.5316
 Red. masses --      1.6771                 2.5661                 1.4242
 Frc consts  --      1.0479                 1.6577                 0.9456
 IR Inten    --      5.6868                 8.0054                 0.0077

                     55                     56                     57
                      A                      A                      A
 Frequencies --   1064.9100              1100.6182              1133.4055
 Red. masses --      1.3991                 2.8005                 1.4241
 Frc consts  --      0.9348                 1.9988                 1.0778
 IR Inten    --      6.2179                12.5343                50.1908

                     58                     59                     60
                      A                      A                      A
 Frequencies --   1163.8537              1206.4491              1211.4324
 Red. masses --      1.6809                 1.2758                 1.3907
 Frc consts  --      1.3415                 1.0941                 1.2025
 IR Inten    --    177.6457                24.8249                21.4372

                     61                     62                     63
                      A                      A                      A
 Frequencies --   1219.7296              1225.3749              1242.9080
 Red. masses --      1.4628                 2.4206                 2.1251
 Frc consts  --      1.2822                 2.1415                 1.9342
 IR Inten    --     51.6986               110.3180                 0.9514

                     64                     65                     66
                      A                      A                      A
 Frequencies --   1247.4782              1261.2361              1279.7962
 Red. masses --      2.6918                 2.7773                 2.7019
 Frc consts  --      2.4681                 2.6030                 2.6073
 IR Inten    --      1.2251                 4.4427                35.7812

                     67                     68                     69
                      A                      A                      A
 Frequencies --   1312.2221              1332.6110              1335.1047
 Red. masses --      1.2726                 1.8014                 1.6107
 Frc consts  --      1.2911                 1.8848                 1.6916
 IR Inten    --      6.9258                 2.3044                 5.0108

                     70                     71                     72
                      A                      A                      A
 Frequencies --   1354.1819              1365.2943              1382.8596
 Red. masses --      2.1116                 3.2790                 1.4789
 Frc consts  --      2.2814                 3.6012                 1.6663
 IR Inten    --      4.5020               224.3324                12.0200

                     73                     74                     75
                      A                      A                      A
 Frequencies --   1406.1525              1427.2208              1429.9184
 Red. masses --      1.4344                 1.2097                 1.2336
 Frc consts  --      1.6710                 1.4518                 1.4861
 IR Inten    --     11.5676                 3.6761                 0.6811

                     76                     77                     78
                      A                      A                      A
 Frequencies --   1441.1088              1459.1933              1461.5577
 Red. masses --      2.0103                 1.3539                 2.4099
 Frc consts  --      2.4599                 1.6985                 3.0331
 IR Inten    --     44.9260                 4.9066                 5.5393

                     79                     80                     81
                      A                      A                      A
 Frequencies --   1465.5778              1486.7631              1509.4506
 Red. masses --      1.6266                 1.0957                 1.0495
 Frc consts  --      2.0585                 1.4270                 1.4089
 IR Inten    --     49.9003                14.2795                 0.6291

                     82                     83                     84
                      A                      A                      A
 Frequencies --   1512.5172              1515.1282              1520.8978
 Red. masses --      1.0902                 1.0475                 1.0450
 Frc consts  --      1.4694                 1.4167                 1.4242
 IR Inten    --      5.0905                 1.7074                 1.9744

                     85                     86                     87
                      A                      A                      A
 Frequencies --   1530.1720              1535.3748              1536.9548
 Red. masses --      1.1131                 1.0515                 1.0542
 Frc consts  --      1.5355                 1.4604                 1.4673
 IR Inten    --      9.9787                 0.8906                 1.1428

                     88                     89                     90
                      A                      A                      A
 Frequencies --   1553.3190              1565.2440              1628.2798
 Red. masses --      1.0665                 2.6517                 6.3757
 Frc consts  --      1.5162                 3.8277                 9.9594
 IR Inten    --     32.0116                70.6867                 0.8714

                     91                     92                     93
                      A                      A                      A
 Frequencies --   1670.4401              1763.6091              1836.9940
 Red. masses --      5.9116                 8.2133                 9.2817
 Frc consts  --      9.7190                15.0512                18.4542
 IR Inten    --      4.7283               354.9693               223.4475

                     94                     95                     96
                      A                      A                      A
 Frequencies --   3049.9066              3051.2578              3052.5883
 Red. masses --      1.0636                 1.0385                 1.0390
 Frc consts  --      5.8289                 5.6964                 5.7044
 IR Inten    --     14.9762                30.3705                 5.8254

                     97                     98                     99
                      A                      A                      A
 Frequencies --   3060.0040              3062.4243              3064.6470
 Red. masses --      1.0665                 1.0391                 1.0633
 Frc consts  --      5.8837                 5.7415                 5.8841
 IR Inten    --     39.8596                40.2923                 9.3778

                    100                    101                    102
                      A                      A                      A
 Frequencies --   3091.0354              3101.1110              3110.7549
 Red. masses --      1.1011                 1.1006                 1.1025
 Frc consts  --      6.1984                 6.2360                 6.2860
 IR Inten    --     11.2464                30.0829                 9.8588

                    103                    104                    105
                      A                      A                      A
 Frequencies --   3111.9696              3132.6070              3139.9239
 Red. masses --      1.1016                 1.0989                 1.0951
 Frc consts  --      6.2857                 6.3536                 6.3612
 IR Inten    --     28.0469                33.9305                 7.8688

                    106                    107                    108
                      A                      A                      A
 Frequencies --   3150.1235              3157.0235              3159.9207
 Red. masses --      1.1028                 1.0981                 1.0972
 Frc consts  --      6.4474                 6.4481                 6.4549
 IR Inten    --     19.3712                 2.5181                39.0917

                    109                    110                    111
                      A                      A                      A
 Frequencies --   3180.2435              3192.4700              3209.8608
 Red. masses --      1.0886                 1.0883                 1.0935
 Frc consts  --      6.4871                 6.5353                 6.6378
 IR Inten    --     14.0231                 7.3457                12.5622

                    112                    113                    114
                      A                      A                      A
 Frequencies --   3212.3660              3557.8145              3684.0159
 Red. masses --      1.0945                 1.0743                 1.0640
 Frc consts  --      6.6544                 8.0120                 8.5080
 IR Inten    --      2.9744                22.4574                47.9736

 - Thermochemistry -
 -------------------
 Temperature   298.150 Kelvin.  Pressure   1.00000 Atm.
 Atom     1 has atomic number  6 and mass  12.00000

 Molecular mass:   263.15214 amu.
 Principal axes and moments of inertia in atomic units:
                           1         2         3
     Eigenvalues --  2081.93365********************
           X            0.99992  -0.00053   0.01260
           Y            0.00114   0.99884  -0.04821
           Z           -0.01256   0.04822   0.99876
 This molecule is an asymmetric top.
 Rotational symmetry number  1.
 Warning -- assumption of classical behavior for rotation
           may cause significant error
 Rotational temperatures (Kelvin)      0.04160     0.00734     0.00706
 Rotational constants (GHZ):           0.86686     0.15292     0.14710
 Zero-point vibrational energy     898166.7 (Joules/Mol)
                                  214.66699 (Kcal/Mol)
 Warning -- explicit consideration of  31 degrees of freedom as
           vibrations may cause significant error
 Vibrational temperatures:     19.49    28.88    33.60    43.51    56.47
          (Kelvin)             65.35    98.17   139.63   214.75   283.15
                              288.72   351.50   353.82   366.27   383.08
                              424.75   449.81   479.79   513.62   524.28
                              553.82   556.76   612.19   624.86   645.74
                              697.26   745.10   756.37   767.34   836.01
                              890.59   916.42   948.47   956.03   988.02
                             1078.32  1091.38  1118.02  1151.19  1219.80
                             1238.83  1242.02  1255.81  1310.86  1340.81
                             1373.51  1375.87  1402.35  1411.44  1416.62
                             1474.06  1481.61  1506.56  1527.31  1532.17
                             1583.54  1630.72  1674.53  1735.81  1742.98
                             1754.92  1763.04  1788.27  1794.84  1814.64
                             1841.34  1887.99  1917.33  1920.92  1948.37
                             1964.35  1989.63  2023.14  2053.45  2057.33
                             2073.43  2099.45  2102.86  2108.64  2139.12
                             2171.76  2176.17  2179.93  2188.23  2201.58
                             2209.06  2211.34  2234.88  2252.04  2342.73
                             2403.39  2537.44  2643.02  4388.14  4390.08
                             4391.99  4402.66  4406.15  4409.34  4447.31
                             4461.81  4475.68  4477.43  4507.12  4517.65
                             4532.33  4542.25  4546.42  4575.66  4593.25
                             4618.27  4621.88  5118.90  5300.48

 Zero-point correction=                           0.342094 (Hartree/Particle)
 Thermal correction to Energy=                    0.361918
 Thermal correction to Enthalpy=                  0.362862
 Thermal correction to Gibbs Free Energy=         0.289743
 Sum of electronic and zero-point Energies=           -864.440719
 Sum of electronic and thermal Energies=              -864.420895
 Sum of electronic and thermal Enthalpies=            -864.419951
 Sum of electronic and thermal Free Energies=         -864.493070

                     E (Thermal)             CV                S
                      KCal/Mol        Cal/Mol-Kelvin    Cal/Mol-Kelvin
 Total                  227.107             74.292            153.893
 Electronic               0.000              0.000              0.000
 Translational            0.889              2.981             42.602
 Rotational               0.889              2.981             34.066
 Vibrational            225.329             68.331             77.225
 Vibration     1          0.593              1.986              7.408
 Vibration     2          0.593              1.986              6.627
 Vibration     3          0.593              1.985              6.326
 Vibration     4          0.594              1.984              5.814
 Vibration     5          0.594              1.981              5.296
 Vibration     6          0.595              1.979              5.007
 Vibration     7          0.598              1.969              4.204
 Vibration     8          0.603              1.951              3.513
 Vibration     9          0.618              1.903              2.682
 Vibration    10          0.636              1.844              2.163
 Vibration    11          0.638              1.839              2.127
 Vibration    12          0.660              1.772              1.771
 Vibration    13          0.660              1.770              1.760
 Vibration    14          0.665              1.755              1.699
 Vibration    15          0.672              1.735              1.620
 Vibration    16          0.689              1.683              1.444
 Vibration    17          0.701              1.650              1.348
 Vibration    18          0.715              1.609              1.243
 Vibration    19          0.732              1.561              1.135
 Vibration    20          0.738              1.546              1.103
 Vibration    21          0.754              1.502              1.020
 Vibration    22          0.755              1.498              1.012
 Vibration    23          0.787              1.415              0.874
 Vibration    24          0.795              1.395              0.845
 Vibration    25          0.808              1.364              0.799
 Vibration    26          0.841              1.284              0.698
 Vibration    27          0.873              1.210              0.615
 Vibration    28          0.881              1.193              0.597
 Vibration    29          0.888              1.176              0.580
 Vibration    30          0.938              1.072              0.483
 Vibration    31          0.979              0.992              0.418

                           ! Non-Optimized Parameters !
 Normal termination of Gaussian 16 at Sun Dec 13 21:37:43 2020.

 ----------------------------------------------------------------------
 # B3LYP/6-311++G(d,p) empiricaldispersion=gd3bj scf=xqc pop=npa geom=c
 heck
 ----------------------------------------------------------------------

 --------------------------------------
 CID_18355471_JID_9044_Energie_neutraal
 --------------------------------------
 Structure from the checkpoint file:  "JID_9044.chk"
 Charge =  0 Multiplicity = 1

 SCF Done:  E(RB3LYP) =  -865.036199787     A.U. after   16 cycles
 Normal termination of Gaussian 16 at Sun Dec 13 21:46:50 2020.

 ----------------------------------------------------------------------
 # B3LYP/6-311++G(d,p) empiricaldispersion=gd3bj scf=xqc pop=npa geom=c
 heck
 ----------------------------------------------------------------------

 ------------------------------------
 CID_18355471_JID_9044_Energie_kation
 ------------------------------------
 Structure from the checkpoint file:  "JID_9044.chk"
 Charge =  1 Multiplicity = 2

 SCF Done:  E(UB3LYP) =  -864.725553774     A.U. after   26 cycles
 Normal termination of Gaussian 16 at Sun Dec 13 22:07:44 2020.
 Gaussian 16:  ES64L-G16RevA.03 25-Dec-2016

 ----------------------------------------------------------------------
 # B3LYP/6-311++G(d,p) empiricaldispersion=gd3bj scf=xqc pop=npa geom=c
 heck
 ----------------------------------------------------------------------

 -----------------------------------
 CID_18355471_JID_9044_Energie_anion
 -----------------------------------
 Structure from the checkpoint file:  "JID_9044.chk"
 Charge = -1 Multiplicity = 2

                         Standard orientation:
 ---------------------------------------------------------------------
 Center     Atomic      Atomic             Coordinates (Angstroms)
 Number     Number       Type             X           Y           Z
 ---------------------------------------------------------------------
      1          6           0        5.385352   -0.149673    0.716943
      2          6           0        3.871369    0.048790    0.532952
      3          6           0        3.148283   -0.461678    1.796507
      4          6           0        3.589700    1.551950    0.332182
      5          6           0        3.450472   -0.766038   -0.710589
      6          8           0        4.263805   -1.428771   -1.343692
      7          7           0        2.137315   -0.766833   -1.146878
      8          6           0        0.946651   -0.142108   -0.662212
      9          6           0        0.122879   -0.801574    0.254022
     10          6           0       -1.061952   -0.209217    0.688437
     11          6           0       -1.458807    1.045849    0.209547
     12          6           0       -0.636774    1.688411   -0.725506
     13          6           0        0.549190    1.102576   -1.161645
     14          6           0       -2.768212    1.658096    0.646035
     15          6           0       -3.895088    1.478357   -0.395506
     16          6           0       -4.105322    0.041582   -0.879369
     17          6           0       -4.523956   -0.930248    0.198932
     18          8           0       -4.608559   -0.703513    1.387844
     19          8           0       -4.801169   -2.151038   -0.321956
     20          1           0        5.722212    0.414566    1.593987
     21          1           0        5.938912    0.198399   -0.158937
     22          1           0        5.630855   -1.204761    0.861445
     23          1           0        3.577111    0.025819    2.679711
     24          1           0        2.079085   -0.243050    1.781768
     25          1           0        3.280270   -1.543212    1.914802
     26          1           0        4.038193    1.914868   -0.599664
     27          1           0        2.522013    1.777335    0.312563
     28          1           0        4.035406    2.116364    1.159443
     29          1           0        2.040279   -1.349386   -1.971915
     30          1           0        0.423900   -1.775882    0.626344
     31          1           0       -1.693201   -0.725171    1.406822
     32          1           0       -0.928509    2.661191   -1.114340
     33          1           0        1.184117    1.605905   -1.884213
     34          1           0       -3.088056    1.210149    1.588913
     35          1           0       -2.635747    2.732677    0.821520
     36          1           0       -4.828594    1.861454    0.032245
     37          1           0       -3.672150    2.092309   -1.276797
     38          1           0       -4.864798    0.005854   -1.669486
     39          1           0       -3.188080   -0.355306   -1.331714
     40          1           0       -5.049750   -2.716161    0.433693
 ---------------------------------------------------------------------

 SCF Done:  E(UB3LYP) =  -865.028553249     A.U. after   33 cycles
 SCF Done:  E(UB3LYP) =  -865.028553249     a.u. after    1 cycles

 The electronic state is 2-A.
 Alpha  occ. eigenvalues --  -19.07628 -19.02352 -19.00162 -14.24890 -10.21450
 Alpha  occ. eigenvalues --  -10.18738 -10.11303 -10.11284 -10.08962 -10.08356
 Alpha  occ. eigenvalues --  -10.07976 -10.07969 -10.07949 -10.07890 -10.07743
 Alpha  occ. eigenvalues --  -10.07740 -10.07577 -10.07552 -10.06866  -1.01758
 Alpha  occ. eigenvalues --   -0.95481  -0.92795  -0.83736  -0.76005  -0.73611
 Alpha  occ. eigenvalues --   -0.71121  -0.66468  -0.65550  -0.61405  -0.60864
 Alpha  occ. eigenvalues --   -0.60398  -0.55576  -0.53880  -0.52034  -0.50658
 Alpha  occ. eigenvalues --   -0.47407  -0.45976  -0.43866  -0.40989  -0.39784
 Alpha  occ. eigenvalues --   -0.39512  -0.38754  -0.38088  -0.37196  -0.36607
 Alpha  occ. eigenvalues --   -0.36160  -0.34622  -0.33816  -0.33347  -0.33099
 Alpha  occ. eigenvalues --   -0.32772  -0.31852  -0.30686  -0.30291  -0.29373
 Alpha  occ. eigenvalues --   -0.28598  -0.28524  -0.28398  -0.27222  -0.26146
 Alpha  occ. eigenvalues --   -0.25967  -0.25235  -0.24583  -0.24286  -0.23780
 Alpha  occ. eigenvalues --   -0.23230  -0.18906  -0.17423  -0.17333  -0.16483
 Alpha  occ. eigenvalues --   -0.15224   0.04004
 Alpha virt. eigenvalues --    0.05653   0.06101   0.06632   0.07196   0.07488
 Alpha virt. eigenvalues --    0.07849   0.08285   0.08765   0.09044   0.09222
 Alpha virt. eigenvalues --    0.09549   0.09959   0.10359   0.10592   0.10975

  Beta  occ. eigenvalues --  -19.07584 -19.02341 -19.00163 -14.24899 -10.21450
  Beta  occ. eigenvalues --  -10.18731 -10.11280 -10.11175 -10.08935 -10.08375
  Beta  occ. eigenvalues --  -10.07940 -10.07920 -10.07883 -10.07860 -10.07749
  Beta  occ. eigenvalues --  -10.07710 -10.07574 -10.07492 -10.06866  -1.01703
  Beta  occ. eigenvalues --   -0.95475  -0.92750  -0.83654  -0.75882  -0.73600
  Beta  occ. eigenvalues --   -0.71054  -0.66327  -0.65445  -0.61302  -0.60846
  Beta  occ. eigenvalues --   -0.60384  -0.55484  -0.53827  -0.51968  -0.50534
  Beta  occ. eigenvalues --   -0.47325  -0.45898  -0.43798  -0.40950  -0.39746
  Beta  occ. eigenvalues --   -0.39481  -0.38691  -0.38031  -0.37114  -0.36592
  Beta  occ. eigenvalues --   -0.36133  -0.34591  -0.33758  -0.33294  -0.33054
  Beta  occ. eigenvalues --   -0.32728  -0.31830  -0.30672  -0.30248  -0.29356
  Beta  occ. eigenvalues --   -0.28584  -0.28367  -0.28305  -0.27156  -0.26097
  Beta  occ. eigenvalues --   -0.25876  -0.25225  -0.24537  -0.24189  -0.23714
  Beta  occ. eigenvalues --   -0.23196  -0.18872  -0.17388  -0.17308  -0.16228
  Beta  occ. eigenvalues --   -0.14685
  Beta virt. eigenvalues --    0.05926   0.06607   0.06884   0.07209   0.07266
  Beta virt. eigenvalues --    0.07877   0.08131   0.08419   0.08914   0.09360
  Beta virt. eigenvalues --    0.09451   0.09613   0.10107   0.10501   0.10696

 Mulliken charges and spin densities:
               1          2
     1  C   -0.532886  -0.009186
     2  C    0.217521   0.407991
     3  C   -0.360468  -0.191618
     4  C   -0.193764  -0.373069
     5  C   -0.131269  -0.140790
     6  O   -0.317850   0.001853
     7  N   -0.093080   0.005903
     8  C   -0.027725  -0.741047
     9  C   -0.099327   0.080409
    10  C   -0.503915   0.105422
    11  C    0.816711   0.129264
    12  C   -0.591800   0.324099
    13  C    0.209717  -0.035510
    14  C   -0.175425  -0.466719
    15  C    0.920111  -1.267951
    16  C    0.001668  -0.143164
    17  C    0.103258  -0.385269
    18  O   -0.256505   0.005657
    19  O   -0.142010   0.033138
    20  H    0.121797  -0.003977
    21  H    0.139429   0.023069
    22  H    0.134026   0.029292
    23  H    0.040139   0.098498
    24  H    0.158856  -0.014615
    25  H    0.122439   0.040277
    26  H    0.088489   0.075171
    27  H    0.137343   0.013690
    28  H    0.027018   0.111632
    29  H    0.317057  -0.003691
    30  H    0.047841   0.135538
    31  H   -0.082454   0.271761
    32  H   -0.591214   0.777540
    33  H    0.042049   0.143211
    34  H    0.216000  -0.005263
    35  H   -0.273831   0.452130
    36  H   -0.280708   0.449889
    37  H    0.158623  -0.014906
    38  H   -0.316981   0.531134
    39  H    0.255178  -0.040356
    40  H   -0.304056   0.590564
 Sum of Mulliken charges =  -1.00000   1.00000

 Dipole moment (field-independent basis, Debye):
    X=              6.8828    Y=             -0.4078    Z=              0.0535  Tot=              6.8951
 Quadrupole moment (field-independent basis, Debye-Ang):
   XX=           -230.1011   YY=           -163.9331   ZZ=           -142.6370
   XY=              1.9601   XZ=              9.4093   YZ=             -0.1660

 Summary of Natural Population Analysis:

                                       Natural Population
                Natural  -----------------------------------------------
    Atom  No    Charge         Core      Valence    Rydberg      Total
 -----------------------------------------------------------------------
      C    1   -0.28045      0.99965     2.27421    0.00659     3.28045
      C    2   -0.07914      0.99955     2.07109    0.00850     3.07914
      C    3   -0.28436      0.99963     2.27876    0.00597     3.28436
      C    4   -0.28610      0.99963     2.27878    0.00770     3.28610
      C    5    0.35631      0.99961     1.61968    0.02440     2.64369
      O    6   -0.32922      0.99988     3.32333    0.00602     4.32922
      N    7   -0.32498      0.99964     2.81455    0.01079     3.82498
      C    8    0.07139      0.99945     1.91836    0.01080     2.92861
      C    9   -0.09349      0.99951     2.08437    0.00960     3.09349
      C   10   -0.10542      0.99951     2.09728    0.00863     3.10542
      C   11    0.00685      0.99951     1.98332    0.01033     2.99315
      C   12   -0.09196      0.99950     2.08266    0.00979     3.09196
      C   13   -0.10511      0.99951     2.09600    0.00959     3.10511
      C   14   -0.20341      0.99959     2.19423    0.00959     3.20341
      C   15   -0.18194      0.99963     2.17362    0.00870     3.18194
      C   16   -0.24513      0.99957     2.23675    0.00881     3.24513
      C   17    0.40947      0.99972     1.56605    0.02476     2.59053
      O   18   -0.31025      0.99987     3.30432    0.00607     4.31025
      O   19   -0.34534      0.99988     3.33892    0.00654     4.34534
      H   20    0.09313      0.00000     0.40604    0.00084     0.40687
      H   21    0.10440      0.00000     0.39474    0.00086     0.39560
      H   22    0.10469      0.00000     0.39445    0.00086     0.39531
      H   23    0.09776      0.00000     0.40141    0.00082     0.40224
      H   24    0.11099      0.00000     0.38802    0.00100     0.38901
      H   25    0.09986      0.00000     0.39927    0.00087     0.40014
      H   26    0.09993      0.00000     0.39925    0.00082     0.40007
      H   27    0.11103      0.00000     0.38788    0.00108     0.38897
      H   28    0.09797      0.00000     0.40130    0.00073     0.40203
      H   29    0.19607      0.00000     0.30166    0.00227     0.30393
      H   30    0.10286      0.00000     0.39623    0.00091     0.39714
      H   31    0.10512      0.00000     0.39344    0.00144     0.39488
      H   32    0.10191      0.00000     0.39685    0.00123     0.39809
      H   33    0.10320      0.00000     0.39582    0.00098     0.39680
      H   34    0.11079      0.00000     0.38784    0.00138     0.38921
      H   35    0.10530      0.00000     0.39304    0.00167     0.39470
      H   36    0.10275      0.00000     0.39565    0.00161     0.39725
      H   37    0.09809      0.00000     0.40064    0.00127     0.40191
      H   38    0.11642      0.00000     0.38247    0.00111     0.38358
      H   39    0.11788      0.00000     0.38077    0.00134     0.38212
      H   40    0.24214      0.00000     0.24697    0.01090     0.25786
 =======================================================================
   * Total *   -0.00000     18.99283    51.78001    0.22715    71.00000

 Normal termination of Gaussian 16 at Sun Dec 13 22:35:11 2020.
