 Gaussian 16, Revision A.03,

 -----------------------------------------------------------
 # opt freq B3LYP/6-31G(d) empiricaldispersion=gd3bj scf=xqc
 -----------------------------------------------------------

 -------------------------------
 CID_152377464_JID_7441_neutraal
 -------------------------------
 Symbolic Z-matrix:
 Charge =  0 Multiplicity = 1

 SCF Done:  E(RB3LYP) =  -773.702778738     A.U. after   15 cycles
 SCF Done:  E(RB3LYP) =  -773.708169191     A.U. after   13 cycles
 SCF Done:  E(RB3LYP) =  -773.708328450     A.U. after   13 cycles
 SCF Done:  E(RB3LYP) =  -773.709361550     A.U. after   12 cycles
 SCF Done:  E(RB3LYP) =  -773.709615183     A.U. after   11 cycles
 SCF Done:  E(RB3LYP) =  -773.709678431     A.U. after   12 cycles
 SCF Done:  E(RB3LYP) =  -773.709905601     A.U. after   11 cycles
 SCF Done:  E(RB3LYP) =  -773.709984395     A.U. after   12 cycles
 SCF Done:  E(RB3LYP) =  -773.710046792     A.U. after   11 cycles
 SCF Done:  E(RB3LYP) =  -773.710067908     A.U. after   10 cycles
 SCF Done:  E(RB3LYP) =  -773.710078358     A.U. after    8 cycles
 SCF Done:  E(RB3LYP) =  -773.710078858     A.U. after    9 cycles
 SCF Done:  E(RB3LYP) =  -773.710079141     A.U. after    7 cycles
 SCF Done:  E(RB3LYP) =  -773.710079347     A.U. after    7 cycles
 SCF Done:  E(RB3LYP) =  -773.710079403     A.U. after    7 cycles
 Optimization completed.
    -- Stationary point found.
 Normal termination of Gaussian 16 at Fri Dec 11 12:15:54 2020.

 --------------------------------------------------------------------
 #N Geom=AllCheck Guess=TCheck SCRF=Check GenChk RB3LYP/6-31G(d) Freq
 --------------------------------------------------------------------

 Structure from the checkpoint file:  "JID_7441.chk"
 -------------------------------
 CID_152377464_JID_7441_neutraal
 -------------------------------
 Charge =  0 Multiplicity = 1

 SCF Done:  E(RB3LYP) =  -773.710079402     A.U. after    1 cycles

  Exact polarizability: 186.788   2.972 134.248   0.361   0.047 127.590
 Approx polarizability: 213.502   5.557 200.885   4.514   2.896 209.094

                      1                      2                      3
                      A                      A                      A
 Frequencies --     20.7040                21.9830                29.2356
 Red. masses --      3.2740                 4.1859                 2.7411
 Frc consts  --      0.0008                 0.0012                 0.0014
 IR Inten    --      0.2479                 0.5345                 0.9493

                      4                      5                      6
                      A                      A                      A
 Frequencies --     47.0586                52.2487                65.7857
 Red. masses --      3.7035                 3.8671                 3.7741
 Frc consts  --      0.0048                 0.0062                 0.0096
 IR Inten    --      1.2667                 2.2182                 1.3383

                      7                      8                      9
                      A                      A                      A
 Frequencies --    103.8931               111.2637               133.8662
 Red. masses --      7.5586                 2.2681                 4.7418
 Frc consts  --      0.0481                 0.0165                 0.0501
 IR Inten    --      1.2481                 0.2014                 0.7249

                     10                     11                     12
                      A                      A                      A
 Frequencies --    164.9738               175.1390               213.8683
 Red. masses --      2.6016                 1.9596                 1.3706
 Frc consts  --      0.0417                 0.0354                 0.0369
 IR Inten    --      0.2387                 2.8968                 0.1295

                     13                     14                     15
                      A                      A                      A
 Frequencies --    216.3294               241.6316               291.1230
 Red. masses --      1.5458                 2.9957                 1.7548
 Frc consts  --      0.0426                 0.1031                 0.0876
 IR Inten    --      1.6845                 2.5670                 1.0510

                     16                     17                     18
                      A                      A                      A
 Frequencies --    297.7787               311.7373               348.7347
 Red. masses --      3.0353                 2.3428                 2.3400
 Frc consts  --      0.1586                 0.1341                 0.1677
 IR Inten    --      7.8231                 1.1378                 0.4148

                     19                     20                     21
                      A                      A                      A
 Frequencies --    387.0679               388.6823               413.6558
 Red. masses --      1.8303                 3.7319                 2.2701
 Frc consts  --      0.1616                 0.3322                 0.2289
 IR Inten    --      0.4296                 5.7404                 2.4719

                     22                     23                     24
                      A                      A                      A
 Frequencies --    438.9671               458.9773               471.9253
 Red. masses --      3.4209                 3.0294                 3.2572
 Frc consts  --      0.3884                 0.3760                 0.4274
 IR Inten    --      6.9426                10.7613                 3.3382

                     25                     26                     27
                      A                      A                      A
 Frequencies --    535.2215               543.6327               588.0904
 Red. masses --      3.6953                 2.8448                 3.7921
 Frc consts  --      0.6237                 0.4954                 0.7727
 IR Inten    --      4.3559                 0.8786                 1.1886

                     28                     29                     30
                      A                      A                      A
 Frequencies --    663.8031               687.4039               708.1492
 Red. masses --      3.0537                 2.5716                 2.6716
 Frc consts  --      0.7928                 0.7159                 0.7894
 IR Inten    --      0.3664                 7.3220                 2.9690

                     31                     32                     33
                      A                      A                      A
 Frequencies --    725.5246               759.1482               777.8440
 Red. masses --      1.3759                 4.2394                 1.6108
 Frc consts  --      0.4267                 1.4395                 0.5742
 IR Inten    --     18.0360                 5.3293                 0.8288

                     34                     35                     36
                      A                      A                      A
 Frequencies --    810.9095               829.2745               855.8711
 Red. masses --      1.3050                 2.4207                 2.0752
 Frc consts  --      0.5056                 0.9808                 0.8956
 IR Inten    --      1.0867                 1.0643                 3.0190

                     37                     38                     39
                      A                      A                      A
 Frequencies --    862.6566               873.9012               908.1863
 Red. masses --      1.9410                 2.1244                 2.7384
 Frc consts  --      0.8510                 0.9559                 1.3307
 IR Inten    --      1.3610                13.8128                 3.8134

                     40                     41                     42
                      A                      A                      A
 Frequencies --    917.7652               946.0734               964.2390
 Red. masses --      2.3336                 1.8131                 1.9955
 Frc consts  --      1.1581                 0.9561                 1.0931
 IR Inten    --      3.9761                 3.4232                 5.1478

                     43                     44                     45
                      A                      A                      A
 Frequencies --    987.3085              1002.6360              1007.6756
 Red. masses --      2.1431                 1.9418                 1.9211
 Frc consts  --      1.2309                 1.1501                 1.1493
 IR Inten    --      2.2930                 1.0316                10.9550

                     46                     47                     48
                      A                      A                      A
 Frequencies --   1035.0834              1052.0248              1066.1206
 Red. masses --      2.4325                 2.1296                 1.7379
 Frc consts  --      1.5355                 1.3887                 1.1638
 IR Inten    --     19.2081                 4.2891                 0.3765

                     49                     50                     51
                      A                      A                      A
 Frequencies --   1090.8758              1092.9990              1105.8436
 Red. masses --      1.9146                 1.7309                 1.9077
 Frc consts  --      1.3424                 1.2183                 1.3745
 IR Inten    --     90.6444                37.3384                 6.0493

                     52                     53                     54
                      A                      A                      A
 Frequencies --   1109.6503              1124.4966              1141.9410
 Red. masses --      1.6562                 2.0051                 1.7843
 Frc consts  --      1.2016                 1.4939                 1.3709
 IR Inten    --     21.7997                 6.4847                25.0101

                     55                     56                     57
                      A                      A                      A
 Frequencies --   1147.0198              1169.1386              1202.6842
 Red. masses --      2.0587                 2.3086                 1.3336
 Frc consts  --      1.5958                 1.8592                 1.1365
 IR Inten    --      6.9636                 6.1925                 7.0583

                     58                     59                     60
                      A                      A                      A
 Frequencies --   1230.5876              1237.8153              1252.5412
 Red. masses --      1.3896                 1.4683                 1.8030
 Frc consts  --      1.2398                 1.3255                 1.6666
 IR Inten    --     48.2732                15.0533                78.9293

                     61                     62                     63
                      A                      A                      A
 Frequencies --   1268.3729              1286.4056              1312.4126
 Red. masses --      1.5119                 1.2698                 1.2424
 Frc consts  --      1.4331                 1.2381                 1.2608
 IR Inten    --     12.0677                 2.7671                 2.4328

                     64                     65                     66
                      A                      A                      A
 Frequencies --   1313.7391              1326.0050              1340.0401
 Red. masses --      1.3510                 1.5278                 1.2819
 Frc consts  --      1.3738                 1.5828                 1.3562
 IR Inten    --     58.0418                12.6655                 4.9753

                     67                     68                     69
                      A                      A                      A
 Frequencies --   1347.5905              1361.4283              1368.2855
 Red. masses --      1.2651                 1.4171                 1.4499
 Frc consts  --      1.3536                 1.5476                 1.5993
 IR Inten    --      0.8757                13.2573                 6.4707

                     70                     71                     72
                      A                      A                      A
 Frequencies --   1383.0133              1392.1197              1396.1572
 Red. masses --      1.4156                 1.5565                 1.4872
 Frc consts  --      1.5953                 1.7772                 1.7080
 IR Inten    --     13.3593                27.9640                 8.0872

                     73                     74                     75
                      A                      A                      A
 Frequencies --   1402.2913              1406.0241              1414.1829
 Red. masses --      1.3883                 1.4058                 1.3888
 Frc consts  --      1.6084                 1.6374                 1.6364
 IR Inten    --      6.1122                14.5377                 6.8018

                     76                     77                     78
                      A                      A                      A
 Frequencies --   1419.4608              1435.8545              1438.0192
 Red. masses --      1.4261                 1.3849                 1.2770
 Frc consts  --      1.6930                 1.6823                 1.5559
 IR Inten    --      4.0049                 1.8862                 9.1723

                     79                     80                     81
                      A                      A                      A
 Frequencies --   1443.8795              1478.1914              1509.3987
 Red. masses --      1.2733                 1.0842                 1.0854
 Frc consts  --      1.5640                 1.3958                 1.4570
 IR Inten    --      5.4747                 9.8458                 3.2860

                     82                     83                     84
                      A                      A                      A
 Frequencies --   1510.0748              1516.4991              1521.0080
 Red. masses --      1.0780                 1.0719                 1.0748
 Frc consts  --      1.4484                 1.4524                 1.4650
 IR Inten    --      4.4222                 8.4420                 0.3788

                     85                     86                     87
                      A                      A                      A
 Frequencies --   1524.9666              1528.2775              1530.3155
 Red. masses --      1.0388                 1.0891                 1.0802
 Frc consts  --      1.4234                 1.4987                 1.4904
 IR Inten    --      9.3299                11.4740                 6.2748

                     88                     89                     90
                      A                      A                      A
 Frequencies --   1530.4354              1535.4900              1536.5278
 Red. masses --      1.0626                 1.0650                 1.0719
 Frc consts  --      1.4664                 1.4794                 1.4910
 IR Inten    --      1.1030                 5.8507                14.8921

                     91                     92                     93
                      A                      A                      A
 Frequencies --   1544.1754              1806.7880              1812.0355
 Red. masses --      1.0781                11.5878                11.8692
 Frc consts  --      1.5146                22.2877                22.9617
 IR Inten    --      1.1482               242.8208                69.5646

                     94                     95                     96
                      A                      A                      A
 Frequencies --   3024.0960              3030.1630              3034.9235
 Red. masses --      1.0621                 1.0626                 1.0653
 Frc consts  --      5.7226                 5.7484                 5.7811
 IR Inten    --     20.4835                11.9151                21.3945

                     97                     98                     99
                      A                      A                      A
 Frequencies --   3043.4501              3045.3666              3047.8359
 Red. masses --      1.0558                 1.0600                 1.0624
 Frc consts  --      5.7619                 5.7922                 5.8148
 IR Inten    --      8.7287                15.7666                27.3897

                    100                    101                    102
                      A                      A                      A
 Frequencies --   3051.7496              3057.1838              3060.9923
 Red. masses --      1.0718                 1.0831                 1.0860
 Frc consts  --      5.8814                 5.9643                 5.9954
 IR Inten    --      4.0981                32.1827                10.4053

                    103                    104                    105
                      A                      A                      A
 Frequencies --   3064.4908              3065.3976              3065.7359
 Red. masses --      1.0735                 1.0366                 1.0835
 Frc consts  --      5.9399                 5.7389                 5.9999
 IR Inten    --     40.9055                32.4093                55.2086

                    106                    107                    108
                      A                      A                      A
 Frequencies --   3073.9090              3080.6752              3084.0529
 Red. masses --      1.0973                 1.1019                 1.0592
 Frc consts  --      6.1086                 6.1616                 5.9360
 IR Inten    --     49.8860               105.7203                12.0806

                    109                    110                    111
                      A                      A                      A
 Frequencies --   3092.6134              3102.9263              3109.9176
 Red. masses --      1.0835                 1.0974                 1.1017
 Frc consts  --      6.1055                 6.2254                 6.2781
 IR Inten    --     10.3689                10.5850                46.6136

                    112                    113                    114
                      A                      A                      A
 Frequencies --   3111.9337              3115.9214              3117.2151
 Red. masses --      1.0965                 1.1019                 1.1002
 Frc consts  --      6.2562                 6.3033                 6.2989
 IR Inten    --     17.2897                53.3785                41.6041

                    115                    116                    117
                      A                      A                      A
 Frequencies --   3129.2396              3139.4263              3151.3901
 Red. masses --      1.1048                 1.1038                 1.1051
 Frc consts  --      6.3742                 6.4096                 6.4661
 IR Inten    --      1.2696                25.9068                25.2469

 - Thermochemistry -
 -------------------
 Temperature   298.150 Kelvin.  Pressure   1.00000 Atm.
 Atom     1 has atomic number  6 and mass  12.00000

 Molecular mass:   240.17254 amu.
 Principal axes and moments of inertia in atomic units:
                           1         2         3
     Eigenvalues --  1381.816629298.330539698.06547
           X            0.99999   0.00306  -0.00113
           Y           -0.00310   0.99934  -0.03631
           Z            0.00102   0.03631   0.99934
 This molecule is an asymmetric top.
 Rotational symmetry number  1.
 Warning -- assumption of classical behavior for rotation
           may cause significant error
 Rotational temperatures (Kelvin)      0.06268     0.00931     0.00893
 Rotational constants (GHZ):           1.30606     0.19409     0.18609
 Zero-point vibrational energy     964554.0 (Joules/Mol)
                                  230.53394 (Kcal/Mol)
 Warning -- explicit consideration of  27 degrees of freedom as
           vibrations may cause significant error
 Vibrational temperatures:     29.79    31.63    42.06    67.71    75.17
          (Kelvin)             94.65   149.48   160.08   192.60   237.36
                              251.99   307.71   311.25   347.65   418.86
                              428.44   448.52   501.75   556.90   559.23
                              595.16   631.58   660.37   679.00   770.06
                              782.17   846.13   955.06   989.02  1018.87
                             1043.87  1092.24  1119.14  1166.72  1193.14
                             1231.41  1241.17  1257.35  1306.68  1320.46
                             1361.19  1387.32  1420.52  1442.57  1449.82
                             1489.25  1513.63  1533.91  1569.53  1572.58
                             1591.06  1596.54  1617.90  1643.00  1650.31
                             1682.13  1730.39  1770.54  1780.94  1802.13
                             1824.91  1850.85  1888.27  1890.18  1907.83
                             1928.02  1938.88  1958.79  1968.66  1989.85
                             2002.95  2008.76  2017.58  2022.96  2034.69
                             2042.29  2065.87  2068.99  2077.42  2126.79
                             2171.69  2172.66  2181.90  2188.39  2194.09
                             2198.85  2201.78  2201.96  2209.23  2210.72
                             2221.72  2599.56  2607.11  4351.00  4359.73
                             4366.58  4378.85  4381.60  4385.16  4390.79
                             4398.61  4404.09  4409.12  4410.42  4410.91
                             4422.67  4432.40  4437.26  4449.58  4464.42
                             4474.48  4477.38  4483.12  4484.98  4502.28
                             4516.93  4534.15

 Zero-point correction=                           0.367379 (Hartree/Particle)
 Thermal correction to Energy=                    0.385977
 Thermal correction to Enthalpy=                  0.386921
 Thermal correction to Gibbs Free Energy=         0.317773
 Sum of electronic and zero-point Energies=           -773.342700
 Sum of electronic and thermal Energies=              -773.324102
 Sum of electronic and thermal Enthalpies=            -773.323158
 Sum of electronic and thermal Free Energies=         -773.392306

                     E (Thermal)             CV                S
                      KCal/Mol        Cal/Mol-Kelvin    Cal/Mol-Kelvin
 Total                  242.204             68.819            145.535
 Electronic               0.000              0.000              0.000
 Translational            0.889              2.981             42.330
 Rotational               0.889              2.981             33.188
 Vibrational            240.427             62.858             70.017
 Vibration     1          0.593              1.986              6.566
 Vibration     2          0.593              1.985              6.446
 Vibration     3          0.593              1.984              5.881
 Vibration     4          0.595              1.979              4.937
 Vibration     5          0.596              1.977              4.730
 Vibration     6          0.597              1.971              4.276
 Vibration     7          0.605              1.946              3.380
 Vibration     8          0.607              1.940              3.247
 Vibration     9          0.613              1.920              2.890
 Vibration    10          0.623              1.885              2.492
 Vibration    11          0.627              1.873              2.380
 Vibration    12          0.644              1.820              2.010
 Vibration    13          0.645              1.816              1.990
 Vibration    14          0.658              1.777              1.791
 Vibration    15          0.687              1.690              1.467
 Vibration    16          0.691              1.678              1.429
 Vibration    17          0.700              1.651              1.353
 Vibration    18          0.726              1.578              1.172
 Vibration    19          0.755              1.498              1.011
 Vibration    20          0.757              1.494              1.005
 Vibration    21          0.777              1.441              0.914
 Vibration    22          0.799              1.385              0.830
 Vibration    23          0.817              1.341              0.769
 Vibration    24          0.829              1.312              0.732
 Vibration    25          0.890              1.172              0.576
 Vibration    26          0.899              1.154              0.558
 Vibration    27          0.945              1.057              0.471

 Optimization completed.
    -- Stationary point found.
 Normal termination of Gaussian 16 at Fri Dec 11 12:32:41 2020.

 ----------------------------------------------------------------------
 # B3LYP/6-311++G(d,p) empiricaldispersion=gd3bj scf=xqc pop=npa geom=c
 heck
 ----------------------------------------------------------------------

 ---------------------------------------
 CID_152377464_JID_7441_Energie_neutraal
 ---------------------------------------
 Structure from the checkpoint file:  "JID_7441.chk"
 Charge =  0 Multiplicity = 1

 SCF Done:  E(RB3LYP) =  -773.931030315     A.U. after   15 cycles
 Normal termination of Gaussian 16 at Fri Dec 11 12:42:22 2020.

 ----------------------------------------------------------------------
 # B3LYP/6-311++G(d,p) empiricaldispersion=gd3bj scf=xqc pop=npa geom=c
 heck
 ----------------------------------------------------------------------

 -------------------------------------
 CID_152377464_JID_7441_Energie_kation
 -------------------------------------
 Structure from the checkpoint file:  "JID_7441.chk"
 Charge =  1 Multiplicity = 2

 SCF Done:  E(UB3LYP) =  -773.604130446     A.U. after   28 cycles
 Normal termination of Gaussian 16 at Fri Dec 11 13:01:49 2020.
 Gaussian 16:  ES64L-G16RevA.03 25-Dec-2016

 ----------------------------------------------------------------------
 # B3LYP/6-311++G(d,p) empiricaldispersion=gd3bj scf=xqc pop=npa geom=c
 heck
 ----------------------------------------------------------------------

 ------------------------------------
 CID_152377464_JID_7441_Energie_anion
 ------------------------------------
 Structure from the checkpoint file:  "JID_7441.chk"
 Charge = -1 Multiplicity = 2

                         Standard orientation:
 ---------------------------------------------------------------------
 Center     Atomic      Atomic             Coordinates (Angstroms)
 Number     Number       Type             X           Y           Z
 ---------------------------------------------------------------------
      1          6           0       -5.784883   -0.566810    0.370433
      2          6           0       -4.865996   -0.196147   -0.797430
      3          6           0       -4.032340    1.071325   -0.555484
      4          6           0       -3.098192    1.014142    0.663971
      5          6           0       -2.115794   -0.168148    0.681596
      6          6           0       -1.199271   -0.283343   -0.550611
      7          6           0       -0.361743   -1.572923   -0.538626
      8          6           0        0.548965   -1.660924    0.693272
      9          6           0        1.311169   -0.362867    1.039694
     10          6           0        0.904744    0.934408    0.292077
     11          8           0        1.534618    1.948270    0.519159
     12          6           0       -0.246470    0.911765   -0.694255
     13          8           0        2.748202   -0.522022    0.947867
     14          6           0        3.261024   -0.522947   -0.300361
     15          8           0        2.575951   -0.490145   -1.303705
     16          6           0        4.768301   -0.475002   -0.271590
     17          6           0        5.225760    0.992341   -0.169993
     18          1           0       -5.214595   -0.818611    1.271571
     19          1           0       -6.409047   -1.432646    0.123218
     20          1           0       -6.452935    0.265470    0.624512
     21          1           0       -4.201364   -1.041568   -1.020305
     22          1           0       -5.472571   -0.045934   -1.699958
     23          1           0       -3.445384    1.287682   -1.457680
     24          1           0       -4.712558    1.924816   -0.428594
     25          1           0       -2.540732    1.957681    0.721473
     26          1           0       -3.698703    0.972041    1.581335
     27          1           0       -1.506161   -0.086377    1.592391
     28          1           0       -2.676517   -1.107123    0.783937
     29          1           0       -1.835990   -0.309425   -1.443190
     30          1           0        0.249611   -1.605220   -1.445575
     31          1           0       -1.021923   -2.449156   -0.554696
     32          1           0        1.282135   -2.463092    0.564740
     33          1           0       -0.052919   -1.939024    1.565400
     34          1           0        1.178583   -0.132018    2.100365
     35          1           0       -0.756878    1.878010   -0.635182
     36          1           0        0.236536    0.871267   -1.679371
     37          1           0        5.137433   -1.047002    0.584887
     38          1           0        5.139590   -0.931305   -1.193030
     39          1           0        4.813882    1.462348    0.727772
     40          1           0        6.317862    1.048942   -0.128609
     41          1           0        4.880855    1.562198   -1.038135
 ---------------------------------------------------------------------

 SCF Done:  E(UB3LYP) =  -773.921781346     A.U. after   33 cycles
 SCF Done:  E(UB3LYP) =  -773.921781406     a.u. after    2 cycles

 The electronic state is 2-A.
 Alpha  occ. eigenvalues --  -19.06544 -19.01642 -18.98065 -10.20594 -10.12504
 Alpha  occ. eigenvalues --  -10.12401 -10.09774 -10.08550 -10.07205 -10.07095
 Alpha  occ. eigenvalues --  -10.06893 -10.06815 -10.06496 -10.06272 -10.06264
 Alpha  occ. eigenvalues --  -10.06119 -10.05978  -1.01017  -0.92583  -0.91423
 Alpha  occ. eigenvalues --   -0.73548  -0.70944  -0.69951  -0.66269  -0.63484
 Alpha  occ. eigenvalues --   -0.61840  -0.58710  -0.56757  -0.53989  -0.51539
 Alpha  occ. eigenvalues --   -0.48877  -0.47333  -0.44505  -0.41685  -0.39744
 Alpha  occ. eigenvalues --   -0.38433  -0.37780  -0.37346  -0.36875  -0.36376
 Alpha  occ. eigenvalues --   -0.35223  -0.34909  -0.34039  -0.32759  -0.31528
 Alpha  occ. eigenvalues --   -0.31355  -0.30451  -0.29545  -0.29241  -0.28985
 Alpha  occ. eigenvalues --   -0.27861  -0.27566  -0.27138  -0.26378  -0.25729
 Alpha  occ. eigenvalues --   -0.24990  -0.24189  -0.23837  -0.23241  -0.23119
 Alpha  occ. eigenvalues --   -0.21959  -0.21020  -0.20318  -0.19961  -0.18356
 Alpha  occ. eigenvalues --   -0.12720   0.04376
 Alpha virt. eigenvalues --    0.05874   0.06030   0.07410   0.07798   0.08060
 Alpha virt. eigenvalues --    0.08498   0.08992   0.09633   0.09863   0.10072
 Alpha virt. eigenvalues --    0.10397   0.10876   0.10948   0.11540   0.11879

  Beta  occ. eigenvalues --  -19.06505 -19.01629 -18.97867 -10.20594 -10.12506
  Beta  occ. eigenvalues --  -10.12125 -10.09759 -10.08547 -10.07201 -10.07086
  Beta  occ. eigenvalues --  -10.06886 -10.06798 -10.06485 -10.06269 -10.06256
  Beta  occ. eigenvalues --  -10.06083 -10.06001  -1.00963  -0.92465  -0.91089
  Beta  occ. eigenvalues --   -0.73488  -0.70910  -0.69924  -0.66227  -0.63445
  Beta  occ. eigenvalues --   -0.61664  -0.58662  -0.56695  -0.53941  -0.51492
  Beta  occ. eigenvalues --   -0.48565  -0.47276  -0.44444  -0.41620  -0.39664
  Beta  occ. eigenvalues --   -0.38382  -0.37718  -0.37191  -0.36765  -0.36330
  Beta  occ. eigenvalues --   -0.35116  -0.34847  -0.33915  -0.32687  -0.31474
  Beta  occ. eigenvalues --   -0.31242  -0.30392  -0.29368  -0.29142  -0.28856
  Beta  occ. eigenvalues --   -0.27823  -0.27540  -0.27090  -0.26319  -0.25590
  Beta  occ. eigenvalues --   -0.24921  -0.24022  -0.23790  -0.23186  -0.22636
  Beta  occ. eigenvalues --   -0.21878  -0.20993  -0.20232  -0.19832  -0.18260
  Beta  occ. eigenvalues --   -0.12554
  Beta virt. eigenvalues --    0.05977   0.06480   0.07602   0.07748   0.08238
  Beta virt. eigenvalues --    0.08643   0.08819   0.09138   0.09797   0.10103
  Beta virt. eigenvalues --    0.10405   0.10600   0.11090   0.11187   0.11697

 Mulliken charges and spin densities:
               1          2
     1  C    0.935406  -1.578611
     2  C   -0.813984   0.663171
     3  C    0.066450  -0.334413
     4  C    0.073604  -0.477652
     5  C   -0.328219  -0.118409
     6  C    0.572486   0.183454
     7  C   -0.571569  -0.045950
     8  C    0.778319  -0.765605
     9  C   -0.358682  -0.042049
    10  C   -0.163795   0.134954
    11  O   -0.282718   0.086938
    12  C   -0.525744  -0.125402
    13  O    0.081831  -0.001967
    14  C    0.004623  -0.072959
    15  O   -0.153286   0.007228
    16  C   -0.056434  -0.360416
    17  C   -0.466615   0.031543
    18  H   -0.287285   0.431562
    19  H   -0.340425   0.478078
    20  H   -0.122201   0.255594
    21  H    0.144133  -0.013083
    22  H   -0.172831   0.316843
    23  H    0.104721   0.022563
    24  H   -0.003617   0.165353
    25  H    0.108260   0.041283
    26  H   -0.137854   0.306694
    27  H    0.277081  -0.130782
    28  H   -0.000989   0.215280
    29  H    0.217472   0.003774
    30  H    0.174214   0.006065
    31  H    0.046270   0.111751
    32  H    0.086304   0.092452
    33  H   -0.356915   0.541710
    34  H   -0.437370   0.708404
    35  H    0.158895   0.016989
    36  H    0.204331   0.006866
    37  H    0.034063   0.121055
    38  H    0.091689   0.061397
    39  H    0.157253   0.020936
    40  H    0.108126   0.038493
    41  H    0.155002  -0.003134
 Sum of Mulliken charges =  -1.00000   1.00000

 Dipole moment (field-independent basis, Debye):
    X=              5.9076    Y=              0.2871    Z=             -4.2537  Tot=              7.2853
 Quadrupole moment (field-independent basis, Debye-Ang):
   XX=           -201.5823   YY=           -140.1189   ZZ=           -140.7313
   XY=             -9.9463   XZ=              3.3577   YZ=              2.9700

 Summary of Natural Population Analysis:

                                       Natural Population
                Natural  -----------------------------------------------
    Atom  No    Charge         Core      Valence    Rydberg      Total
 -----------------------------------------------------------------------
      C    1   -0.28779      0.99967     2.28299    0.00513     3.28779
      C    2   -0.19283      0.99964     2.18483    0.00836     3.19283
      C    3   -0.19017      0.99963     2.18218    0.00836     3.19017
      C    4   -0.19125      0.99963     2.18336    0.00827     3.19125
      C    5   -0.19354      0.99961     2.18435    0.00958     3.19354
      C    6   -0.11090      0.99959     2.10194    0.00937     3.11090
      C    7   -0.18579      0.99961     2.17788    0.00830     3.18579
      C    8   -0.20512      0.99961     2.19554    0.00996     3.20512
      C    9    0.02147      0.99949     1.96305    0.01600     2.97853
      C   10    0.32155      0.99965     1.65644    0.02237     2.67845
      O   11   -0.27970      0.99987     3.27304    0.00679     4.27970
      C   12   -0.23944      0.99956     2.23036    0.00952     3.23944
      O   13   -0.27390      0.99986     3.26414    0.00990     4.27390
      C   14    0.41023      0.99968     1.56303    0.02706     2.58977
      O   15   -0.30942      0.99987     3.30432    0.00524     4.30942
      C   16   -0.23188      0.99960     2.22449    0.00780     3.23188
      C   17   -0.28161      0.99966     2.27758    0.00437     3.28161
      H   18    0.09874      0.00000     0.40001    0.00125     0.40126
      H   19    0.09920      0.00000     0.39967    0.00113     0.40080
      H   20    0.09513      0.00000     0.40367    0.00120     0.40487
      H   21    0.09349      0.00000     0.40525    0.00126     0.40651
      H   22    0.09363      0.00000     0.40542    0.00094     0.40637
      H   23    0.09420      0.00000     0.40482    0.00098     0.40580
      H   24    0.09504      0.00000     0.40408    0.00088     0.40496
      H   25    0.09734      0.00000     0.40165    0.00101     0.40266
      H   26    0.09856      0.00000     0.40048    0.00096     0.40144
      H   27    0.09906      0.00000     0.39941    0.00153     0.40094
      H   28    0.09784      0.00000     0.40098    0.00118     0.40216
      H   29    0.09569      0.00000     0.40253    0.00177     0.40431
      H   30    0.10402      0.00000     0.39487    0.00111     0.39598
      H   31    0.09657      0.00000     0.40253    0.00090     0.40343
      H   32    0.10418      0.00000     0.39501    0.00082     0.39582
      H   33    0.10386      0.00000     0.39429    0.00185     0.39614
      H   34    0.11015      0.00000     0.38723    0.00262     0.38985
      H   35    0.10841      0.00000     0.39054    0.00105     0.39159
      H   36    0.11906      0.00000     0.38005    0.00089     0.38094
      H   37    0.10702      0.00000     0.39183    0.00115     0.39298
      H   38    0.10370      0.00000     0.39526    0.00104     0.39630
      H   39    0.10886      0.00000     0.39010    0.00103     0.39114
      H   40    0.09453      0.00000     0.40463    0.00084     0.40547
      H   41    0.10183      0.00000     0.39723    0.00095     0.39817
 =======================================================================
   * Total *    0.00000     16.99422    48.80104    0.20474    66.00000

 Normal termination of Gaussian 16 at Fri Dec 11 13:38:17 2020.
