 Gaussian 16, Revision A.03,

 -----------------------------------------------------------
 # opt freq B3LYP/6-31G(d) empiricaldispersion=gd3bj scf=xqc
 -----------------------------------------------------------

 -------------------------------
 CID_150954172_JID_6975_neutraal
 -------------------------------
 Symbolic Z-matrix:
 Charge =  0 Multiplicity = 1

 SCF Done:  E(RB3LYP) =  -1077.98860671     A.U. after   16 cycles
 SCF Done:  E(RB3LYP) =  -1077.99777864     A.U. after   13 cycles
 SCF Done:  E(RB3LYP) =  -1078.00149171     A.U. after   15 cycles
 SCF Done:  E(RB3LYP) =  -1078.00314861     A.U. after   15 cycles
 SCF Done:  E(RB3LYP) =  -1078.00459191     A.U. after   15 cycles
 SCF Done:  E(RB3LYP) =  -1078.00595316     A.U. after   14 cycles
 SCF Done:  E(RB3LYP) =  -1078.00718748     A.U. after   17 cycles
 SCF Done:  E(RB3LYP) =  -1078.00798907     A.U. after   14 cycles
 SCF Done:  E(RB3LYP) =  -1078.00922877     A.U. after   13 cycles
 SCF Done:  E(RB3LYP) =  -1078.00956726     A.U. after   16 cycles
 SCF Done:  E(RB3LYP) =  -1078.00976044     A.U. after   11 cycles
 SCF Done:  E(RB3LYP) =  -1078.00976236     A.U. after   10 cycles
 SCF Done:  E(RB3LYP) =  -1078.00976233     A.U. after    9 cycles
 SCF Done:  E(RB3LYP) =  -1078.00976265     A.U. after    8 cycles
 SCF Done:  E(RB3LYP) =  -1078.00976274     A.U. after    8 cycles
 Optimization completed.
    -- Stationary point found.
 Normal termination of Gaussian 16 at Fri Dec 11 01:24:37 2020.

 --------------------------------------------------------------------
 #N Geom=AllCheck Guess=TCheck SCRF=Check GenChk RB3LYP/6-31G(d) Freq
 --------------------------------------------------------------------

 Structure from the checkpoint file:  "JID_6975.chk"
 -------------------------------
 CID_150954172_JID_6975_neutraal
 -------------------------------
 Charge =  0 Multiplicity = 1

 SCF Done:  E(RB3LYP) =  -1078.00976274     A.U. after    1 cycles

  Exact polarizability: 167.998   7.843 129.373  -0.633   6.805 132.878
 Approx polarizability: 232.988  15.515 209.759   1.486  14.587 252.875

                      1                      2                      3
                      A                      A                      A
 Frequencies --     25.7327                35.3757                42.6318
 Red. masses --      8.7770                 7.5039                 5.1036
 Frc consts  --      0.0034                 0.0055                 0.0055
 IR Inten    --      0.0401                 0.1911                 0.7332

                      4                      5                      6
                      A                      A                      A
 Frequencies --     62.3355                88.8500               112.2799
 Red. masses --      5.8679                 4.6216                 3.3828
 Frc consts  --      0.0134                 0.0215                 0.0251
 IR Inten    --      1.5980                 0.4237                 0.0713

                      7                      8                      9
                      A                      A                      A
 Frequencies --    157.3609               173.4840               195.8997
 Red. masses --      3.2732                 4.7805                 4.7624
 Frc consts  --      0.0478                 0.0848                 0.1077
 IR Inten    --      1.5105                 1.0308                 1.0513

                     10                     11                     12
                      A                      A                      A
 Frequencies --    247.6487               273.8516               283.9461
 Red. masses --      1.2095                 3.2395                 2.9727
 Frc consts  --      0.0437                 0.1431                 0.1412
 IR Inten    --      0.1101                 2.9606                 3.0731

                     13                     14                     15
                      A                      A                      A
 Frequencies --    309.1211               380.0151               425.8187
 Red. masses --      3.0892                 3.0395                 1.8930
 Frc consts  --      0.1739                 0.2586                 0.2022
 IR Inten    --      2.6624                 1.8945                 1.6749

                     16                     17                     18
                      A                      A                      A
 Frequencies --    434.7466               480.6546               495.1989
 Red. masses --      3.1050                 3.1955                 4.7565
 Frc consts  --      0.3458                 0.4350                 0.6872
 IR Inten    --      4.6771                 3.3846                 2.3088

                     19                     20                     21
                      A                      A                      A
 Frequencies --    539.5315               569.5054               573.8370
 Red. masses --      4.5332                 7.9448                 5.2728
 Frc consts  --      0.7775                 1.5182                 1.0230
 IR Inten    --      9.2588                 6.6299                 2.8799

                     22                     23                     24
                      A                      A                      A
 Frequencies --    597.8503               636.8572               662.1251
 Red. masses --      4.8624                 4.3543                 6.7329
 Frc consts  --      1.0240                 1.0405                 1.7391
 IR Inten    --      9.1344                11.9706                 3.1663

                     25                     26                     27
                      A                      A                      A
 Frequencies --    667.4516               736.3828               755.1995
 Red. masses --      3.1715                 1.2409                 4.7059
 Frc consts  --      0.8325                 0.3965                 1.5813
 IR Inten    --      6.6140                11.0238                17.4003

                     28                     29                     30
                      A                      A                      A
 Frequencies --    790.7990               816.7615               830.8145
 Red. masses --      2.5027                 1.9037                 4.0953
 Frc consts  --      0.9221                 0.7482                 1.6655
 IR Inten    --     10.6890                26.0907                18.1192

                     31                     32                     33
                      A                      A                      A
 Frequencies --    839.5564               866.1831               882.1742
 Red. masses --      2.4790                 3.2890                 4.3671
 Frc consts  --      1.0295                 1.4539                 2.0024
 IR Inten    --      9.3130                 2.6878                29.4575

                     34                     35                     36
                      A                      A                      A
 Frequencies --    890.4064               930.3567               945.5924
 Red. masses --      2.7940                 2.4745                 3.2278
 Frc consts  --      1.3051                 1.2619                 1.7005
 IR Inten    --      7.5772                 2.1354                15.5679

                     37                     38                     39
                      A                      A                      A
 Frequencies --    982.6138               995.8998              1005.3690
 Red. masses --      2.8162                 2.0231                 2.3363
 Frc consts  --      1.6021                 1.1822                 1.3914
 IR Inten    --     16.1676                16.1093                 4.1452

                     40                     41                     42
                      A                      A                      A
 Frequencies --   1067.0446              1086.5108              1114.5045
 Red. masses --      2.7753                 2.1530                 2.4900
 Frc consts  --      1.8618                 1.4975                 1.8223
 IR Inten    --     10.7361                 2.7145                35.1511

                     43                     44                     45
                      A                      A                      A
 Frequencies --   1115.8281              1139.9965              1169.1820
 Red. masses --      2.2099                 1.9668                 1.5834
 Frc consts  --      1.6212                 1.5060                 1.2753
 IR Inten    --     41.8247                 4.2143                 9.6962

                     46                     47                     48
                      A                      A                      A
 Frequencies --   1175.3906              1214.2920              1237.0101
 Red. masses --      1.7302                 1.5014                 1.9575
 Frc consts  --      1.4083                 1.3043                 1.7648
 IR Inten    --     16.3592                 0.5968                44.9667

                     49                     50                     51
                      A                      A                      A
 Frequencies --   1243.1682              1262.2506              1268.2720
 Red. masses --      1.5640                 2.3845                 1.6619
 Frc consts  --      1.4241                 2.2384                 1.5750
 IR Inten    --     15.3725                29.6081                15.8667

                     52                     53                     54
                      A                      A                      A
 Frequencies --   1299.6892              1329.0109              1330.7874
 Red. masses --      1.4973                 1.6688                 1.3509
 Frc consts  --      1.4902                 1.7366                 1.4096
 IR Inten    --      2.1972                 3.5510                 1.0673

                     55                     56                     57
                      A                      A                      A
 Frequencies --   1355.3263              1370.7558              1374.9595
 Red. masses --      1.3223                 1.4796                 1.3526
 Frc consts  --      1.4311                 1.6380                 1.5066
 IR Inten    --      2.5900                36.9157                 4.0074

                     58                     59                     60
                      A                      A                      A
 Frequencies --   1383.6849              1397.9927              1414.6621
 Red. masses --      1.5306                 1.3253                 1.4117
 Frc consts  --      1.7265                 1.5261                 1.6646
 IR Inten    --      0.5311                 9.0723                 0.7363

                     61                     62                     63
                      A                      A                      A
 Frequencies --   1471.9935              1489.4854              1498.5407
 Red. masses --      1.1716                 6.0058                 1.1040
 Frc consts  --      1.4956                 7.8504                 1.4607
 IR Inten    --      1.3240                55.0402                11.8081

                     64                     65                     66
                      A                      A                      A
 Frequencies --   1509.1723              1512.8705              1519.5108
 Red. masses --      1.0479                 1.0938                 1.0923
 Frc consts  --      1.4062                 1.4750                 1.4860
 IR Inten    --      8.7854                 5.3106                 7.7410

                     67                     68                     69
                      A                      A                      A
 Frequencies --   1532.8658              1537.7927              1560.5150
 Red. masses --      1.0976                 1.0514                 6.7779
 Frc consts  --      1.5195                 1.4650                 9.7248
 IR Inten    --      4.1933                 4.6215                14.1817

                     70                     71                     72
                      A                      A                      A
 Frequencies --   2227.1372              3018.8931              3052.5948
 Red. masses --     13.9377                 1.0467                 1.0643
 Frc consts  --     40.7319                 5.6206                 5.8430
 IR Inten    --    536.9629                43.8016                36.8909

                     73                     74                     75
                      A                      A                      A
 Frequencies --   3055.8185              3061.3223              3088.6632
 Red. masses --      1.0638                 1.0639                 1.0626
 Frc consts  --      5.8528                 5.8744                 5.9727
 IR Inten    --     47.7893                43.4145                15.8859

                     76                     77                     78
                      A                      A                      A
 Frequencies --   3103.1397              3103.6564              3110.1554
 Red. masses --      1.1034                 1.0887                 1.0871
 Frc consts  --      6.2604                 6.1786                 6.1958
 IR Inten    --      2.7756                 9.9894                31.1446

                     79                     80                     81
                      A                      A                      A
 Frequencies --   3111.3024              3134.0299              3138.0910
 Red. masses --      1.0991                 1.1049                 1.0989
 Frc consts  --      6.2684                 6.3940                 6.3758
 IR Inten    --     24.4643                26.7703                23.4440

                     82                     83                     84
                      A                      A                      A
 Frequencies --   3143.9759              3246.5784              3277.1730
 Red. masses --      1.1040                 1.0940                 1.0947
 Frc consts  --      6.4297                 6.7940                 6.9268
 IR Inten    --     38.8016                 1.1510                 1.6652

 - Thermochemistry -
 -------------------
 Temperature   298.150 Kelvin.  Pressure   1.00000 Atm.
 Atom     1 has atomic number  6 and mass  12.00000

 Molecular mass:   238.10007 amu.
 Principal axes and moments of inertia in atomic units:
                           1         2         3
     Eigenvalues --  1874.647657057.092037205.14249
           X            0.99988  -0.01151  -0.00993
           Y            0.01323   0.98056   0.19576
           Z            0.00748  -0.19587   0.98060
 This molecule is an asymmetric top.
 Rotational symmetry number  1.
 Warning -- assumption of classical behavior for rotation
           may cause significant error
 Rotational temperatures (Kelvin)      0.04620     0.01227     0.01202
 Rotational constants (GHZ):           0.96271     0.25573     0.25048
 Zero-point vibrational energy     637584.6 (Joules/Mol)
                                  152.38637 (Kcal/Mol)
 Warning -- explicit consideration of  22 degrees of freedom as
           vibrations may cause significant error
 Vibrational temperatures:     37.02    50.90    61.34    89.69   127.84
          (Kelvin)            161.55   226.41   249.60   281.86   356.31
                              394.01   408.54   444.76   546.76   612.66
                              625.50   691.55   712.48   776.27   819.39
                              825.62   860.17   916.30   952.65   960.31
                             1059.49  1086.56  1137.78  1175.14  1195.36
                             1207.93  1246.24  1269.25  1281.10  1338.58
                             1360.50  1413.76  1432.88  1446.50  1535.24
                             1563.25  1603.52  1605.43  1640.20  1682.19
                             1691.12  1747.10  1779.78  1788.64  1816.10
                             1824.76  1869.96  1912.15  1914.71  1950.01
                             1972.21  1978.26  1990.81  2011.40  2035.38
                             2117.87  2143.04  2156.07  2171.36  2176.68
                             2186.24  2205.45  2212.54  2245.23  3204.35
                             4343.51  4392.00  4396.64  4404.56  4443.90
                             4464.73  4465.47  4474.82  4476.47  4509.17
                             4515.01  4523.48  4671.10  4715.12

 Zero-point correction=                           0.242843 (Hartree/Particle)
 Thermal correction to Energy=                    0.257831
 Thermal correction to Enthalpy=                  0.258775
 Thermal correction to Gibbs Free Energy=         0.198427
 Sum of electronic and zero-point Energies=          -1077.766920
 Sum of electronic and thermal Energies=             -1077.751932
 Sum of electronic and thermal Enthalpies=           -1077.750988
 Sum of electronic and thermal Free Energies=        -1077.811336

                     E (Thermal)             CV                S
                      KCal/Mol        Cal/Mol-Kelvin    Cal/Mol-Kelvin
 Total                  161.791             56.312            127.013
 Electronic               0.000              0.000              0.000
 Translational            0.889              2.981             42.304
 Rotational               0.889              2.981             32.922
 Vibrational            160.014             50.351             51.787
 Vibration     1          0.593              1.985              6.134
 Vibration     2          0.594              1.982              5.503
 Vibration     3          0.595              1.980              5.133
 Vibration     4          0.597              1.972              4.382
 Vibration     5          0.602              1.957              3.685
 Vibration     6          0.607              1.939              3.229
 Vibration     7          0.621              1.894              2.581
 Vibration     8          0.627              1.875              2.397
 Vibration     9          0.636              1.846              2.171
 Vibration    10          0.661              1.767              1.747
 Vibration    11          0.676              1.722              1.572
 Vibration    12          0.682              1.703              1.510
 Vibration    13          0.698              1.656              1.367
 Vibration    14          0.750              1.513              1.039
 Vibration    15          0.788              1.414              0.872
 Vibration    16          0.795              1.394              0.843
 Vibration    17          0.837              1.293              0.708
 Vibration    18          0.851              1.261              0.670
 Vibration    19          0.895              1.163              0.566
 Vibration    20          0.926              1.097              0.505
 Vibration    21          0.930              1.088              0.497
 Vibration    22          0.956              1.036              0.453

                           ! Non-Optimized Parameters !
 Normal termination of Gaussian 16 at Fri Dec 11 01:34:52 2020.

 ----------------------------------------------------------------------
 # B3LYP/6-311++G(d,p) empiricaldispersion=gd3bj scf=xqc pop=npa geom=c
 heck
 ----------------------------------------------------------------------

 ---------------------------------------
 CID_150954172_JID_6975_Energie_neutraal
 ---------------------------------------
 Structure from the checkpoint file:  "JID_6975.chk"
 Charge =  0 Multiplicity = 1

 SCF Done:  E(RB3LYP) =  -1078.21827950     A.U. after   17 cycles
 Normal termination of Gaussian 16 at Fri Dec 11 01:39:26 2020.

 ----------------------------------------------------------------------
 # B3LYP/6-311++G(d,p) empiricaldispersion=gd3bj scf=xqc pop=npa geom=c
 heck
 ----------------------------------------------------------------------

 -------------------------------------
 CID_150954172_JID_6975_Energie_kation
 -------------------------------------
 Structure from the checkpoint file:  "JID_6975.chk"
 Charge =  1 Multiplicity = 2

 SCF Done:  E(UB3LYP) =  -1077.94346401     A.U. after   28 cycles
 Normal termination of Gaussian 16 at Fri Dec 11 01:49:39 2020.
 Gaussian 16:  ES64L-G16RevA.03 25-Dec-2016

 ----------------------------------------------------------------------
 # B3LYP/6-311++G(d,p) empiricaldispersion=gd3bj scf=xqc pop=npa geom=c
 heck
 ----------------------------------------------------------------------

 ------------------------------------
 CID_150954172_JID_6975_Energie_anion
 ------------------------------------
 Structure from the checkpoint file:  "JID_6975.chk"
 Charge = -1 Multiplicity = 2

                         Standard orientation:
 ---------------------------------------------------------------------
 Center     Atomic      Atomic             Coordinates (Angstroms)
 Number     Number       Type             X           Y           Z
 ---------------------------------------------------------------------
      1          6           0       -2.724268    1.896016    1.206536
      2          7           0       -2.342726    1.022988    0.094345
      3          6           0       -0.971123    0.497719    0.232014
      4          6           0       -0.556304   -0.372527   -0.976653
      5          6           0       -0.356179   -1.781887   -0.381330
      6          7           0        0.035119   -1.593328    1.022299
      7          6           0       -0.719021   -0.416897    1.473832
      8          6           0        1.478153   -1.555020    1.265565
      9          6           0        2.276941   -0.514995    0.512334
     10          6           0        3.101834   -0.759910   -0.551645
     11         16           0        3.761080    0.720155   -1.172170
     12          6           0        2.871529    1.574031    0.066901
     13          7           0        2.160638    0.823466    0.854598
     14          7           0       -3.275606   -0.112275    0.097342
     15          7           0       -3.938945   -0.136940   -0.957092
     16          7           0       -4.620381   -0.291517   -1.858531
     17          1           0       -2.011416    2.725967    1.237222
     18          1           0       -2.726821    1.390811    2.183939
     19          1           0       -3.722747    2.299215    1.018721
     20          1           0       -0.340940    1.388189    0.290713
     21          1           0        0.379976    0.000750   -1.399556
     22          1           0       -1.309110   -0.345449   -1.769227
     23          1           0       -1.302787   -2.335138   -0.404474
     24          1           0        0.393371   -2.375653   -0.913193
     25          1           0       -0.179636    0.099984    2.269797
     26          1           0       -1.685775   -0.752273    1.868116
     27          1           0        1.624965   -1.400104    2.339885
     28          1           0        1.882113   -2.544499    1.024684
     29          1           0        3.349271   -1.712829   -0.997926
     30          1           0        2.936183    2.652592    0.149956
 ---------------------------------------------------------------------

 SCF Done:  E(UB3LYP) =  -1078.21646538     A.U. after   33 cycles
 SCF Done:  E(UB3LYP) =  -1078.21646538     a.u. after    2 cycles

 The electronic state is 2-A.
 Alpha  occ. eigenvalues --  -88.74653 -14.30010 -14.22082 -14.21417 -14.21121
 Alpha  occ. eigenvalues --  -14.18302 -14.17773 -10.08605 -10.08474 -10.07696
 Alpha  occ. eigenvalues --  -10.07464 -10.07225 -10.07092 -10.06450 -10.06298
 Alpha  occ. eigenvalues --  -10.03998  -7.83330  -5.79600  -5.79262  -5.78968
 Alpha  occ. eigenvalues --   -0.98154  -0.85767  -0.83276  -0.80821  -0.75013
 Alpha  occ. eigenvalues --   -0.66697  -0.65985  -0.62308  -0.59989  -0.56407
 Alpha  occ. eigenvalues --   -0.54176  -0.47553  -0.46876  -0.46379  -0.42180
 Alpha  occ. eigenvalues --   -0.39603  -0.38472  -0.37691  -0.36438  -0.36077
 Alpha  occ. eigenvalues --   -0.33730  -0.33022  -0.31588  -0.30572  -0.30316
 Alpha  occ. eigenvalues --   -0.29195  -0.28798  -0.28220  -0.28144  -0.27733
 Alpha  occ. eigenvalues --   -0.25302  -0.25097  -0.23487  -0.22995  -0.22225
 Alpha  occ. eigenvalues --   -0.21039  -0.19323  -0.16020  -0.14960  -0.12859
 Alpha  occ. eigenvalues --   -0.11472  -0.11036  -0.08403   0.05554
 Alpha virt. eigenvalues --    0.07192   0.08195   0.08651   0.09291   0.10134
 Alpha virt. eigenvalues --    0.10847   0.11360   0.11886   0.12017   0.13007
 Alpha virt. eigenvalues --    0.13149   0.13549   0.13989   0.14335   0.14891

  Beta  occ. eigenvalues --  -88.74601 -14.29600 -14.22133 -14.20963 -14.20892
  Beta  occ. eigenvalues --  -14.18301 -14.17695 -10.08475 -10.08227 -10.07692
  Beta  occ. eigenvalues --  -10.07459 -10.07225 -10.07089 -10.06295 -10.06237
  Beta  occ. eigenvalues --  -10.03997  -7.83283  -5.79580  -5.79243  -5.78788
  Beta  occ. eigenvalues --   -0.97392  -0.85431  -0.83009  -0.80750  -0.74699
  Beta  occ. eigenvalues --   -0.66389  -0.65902  -0.62109  -0.59970  -0.56199
  Beta  occ. eigenvalues --   -0.53954  -0.47323  -0.46515  -0.46205  -0.41990
  Beta  occ. eigenvalues --   -0.39466  -0.38349  -0.37554  -0.35913  -0.35063
  Beta  occ. eigenvalues --   -0.33536  -0.32714  -0.31231  -0.30212  -0.29877
  Beta  occ. eigenvalues --   -0.29065  -0.28505  -0.28020  -0.27627  -0.27160
  Beta  occ. eigenvalues --   -0.25047  -0.24964  -0.23386  -0.22867  -0.22125
  Beta  occ. eigenvalues --   -0.20969  -0.18411  -0.15074  -0.14792  -0.11994
  Beta  occ. eigenvalues --   -0.11040  -0.10754  -0.08287
  Beta virt. eigenvalues --    0.08104   0.08567   0.09199   0.09870   0.10438
  Beta virt. eigenvalues --    0.10732   0.11205   0.11580   0.11952   0.12221
  Beta virt. eigenvalues --    0.13008   0.13153   0.13576   0.13997   0.14527

 Mulliken charges and spin densities:
               1          2
     1  C   -0.191247  -0.071668
     2  N    0.290458  -0.021163
     3  C   -0.627212  -0.112427
     4  C   -0.405948   0.131305
     5  C   -0.204364  -0.109055
     6  N    0.261954   0.008177
     7  C   -0.506477   0.043259
     8  C   -0.966960  -0.008020
     9  C   -0.404367  -0.017975
    10  C    0.307792   0.169114
    11  S   -0.314442   0.078403
    12  C   -0.011179   0.298959
    13  N    0.037898   0.008909
    14  N   -0.145766   0.137110
    15  N    0.203670   0.071329
    16  N   -0.460605   0.249750
    17  H    0.086328   0.011454
    18  H    0.077890   0.037901
    19  H    0.103641   0.036809
    20  H    0.289682  -0.012881
    21  H    0.069749   0.020057
    22  H    0.187638  -0.006613
    23  H    0.115999   0.040192
    24  H    0.108643   0.011888
    25  H    0.174723  -0.007707
    26  H    0.192910   0.036147
    27  H    0.144251   0.001290
    28  H    0.139626  -0.000139
    29  H    0.226191  -0.009154
    30  H    0.219526  -0.015250
 Sum of Mulliken charges =  -1.00000   1.00000

 Dipole moment (field-independent basis, Debye):
    X=              4.1360    Y=              0.1461    Z=              1.9367  Tot=              4.5693
 Quadrupole moment (field-independent basis, Debye-Ang):
   XX=           -175.3201   YY=           -112.0471   ZZ=           -121.7230
   XY=             -8.0565   XZ=            -13.0189   YZ=              2.7670

 Summary of Natural Population Analysis:

                                       Natural Population
                Natural  -----------------------------------------------
    Atom  No    Charge         Core      Valence    Rydberg      Total
 -----------------------------------------------------------------------
      C    1   -0.17791      0.99964     2.17051    0.00775     3.17791
      N    2   -0.17802      0.99970     2.66440    0.01392     3.67802
      C    3   -0.02016      0.99958     2.00357    0.01700     3.02016
      C    4   -0.20834      0.99962     2.20072    0.00800     3.20834
      C    5   -0.08702      0.99963     2.07775    0.00964     3.08702
      N    6   -0.28035      0.99975     2.76589    0.01471     3.78035
      C    7   -0.10048      0.99961     2.09117    0.00971     3.10048
      C    8   -0.08914      0.99957     2.07790    0.01167     3.08914
      C    9    0.04217      0.99948     1.94475    0.01360     2.95783
      C   10   -0.17818      0.99945     2.16899    0.00974     3.17818
      S   11    0.17329      4.99948     2.80423    0.02301     7.82671
      C   12    0.01038      0.99966     1.97402    0.01594     2.98962
      N   13   -0.25027      0.99967     2.73688    0.01373     3.75027
      N   14   -0.16618      0.99972     2.64990    0.01656     3.66618
      N   15    0.14704      0.99971     2.33765    0.01560     3.35296
      N   16    0.00939      0.99982     2.47692    0.01387     3.49061
      H   17    0.09180      0.00000     0.40716    0.00104     0.40820
      H   18    0.08179      0.00000     0.41599    0.00222     0.41821
      H   19    0.09390      0.00000     0.40497    0.00113     0.40610
      H   20    0.10698      0.00000     0.39145    0.00158     0.39302
      H   21    0.10425      0.00000     0.39334    0.00241     0.39575
      H   22    0.10563      0.00000     0.39283    0.00154     0.39437
      H   23    0.09527      0.00000     0.40346    0.00127     0.40473
      H   24    0.09241      0.00000     0.40646    0.00113     0.40759
      H   25    0.09994      0.00000     0.39902    0.00104     0.40006
      H   26    0.10004      0.00000     0.39812    0.00184     0.39996
      H   27    0.09814      0.00000     0.40077    0.00109     0.40186
      H   28    0.09289      0.00000     0.40612    0.00099     0.40711
      H   29    0.10311      0.00000     0.39587    0.00102     0.39689
      H   30    0.08763      0.00000     0.41125    0.00113     0.41237
 =======================================================================
   * Total *   -0.00000     19.99409    42.77205    0.23386    63.00000

 Normal termination of Gaussian 16 at Fri Dec 11 02:12:10 2020.
