 Gaussian 16, Revision A.03,

 -----------------------------------------------------------
 # opt freq B3LYP/6-31G(d) empiricaldispersion=gd3bj scf=xqc
 -----------------------------------------------------------

 ------------------------------
 CID_83482302_JID_3293_neutraal
 ------------------------------
 Symbolic Z-matrix:
 Charge =  0 Multiplicity = 1

 SCF Done:  E(RB3LYP) =  -641.074154650     A.U. after   15 cycles
 SCF Done:  E(RB3LYP) =  -641.085687855     A.U. after   13 cycles
 SCF Done:  E(RB3LYP) =  -641.087649281     A.U. after   12 cycles
 SCF Done:  E(RB3LYP) =  -641.088146363     A.U. after   12 cycles
 SCF Done:  E(RB3LYP) =  -641.088546171     A.U. after   12 cycles
 SCF Done:  E(RB3LYP) =  -641.088701969     A.U. after   11 cycles
 SCF Done:  E(RB3LYP) =  -641.088736826     A.U. after   11 cycles
 SCF Done:  E(RB3LYP) =  -641.088764412     A.U. after    9 cycles
 SCF Done:  E(RB3LYP) =  -641.088770933     A.U. after    9 cycles
 SCF Done:  E(RB3LYP) =  -641.088774597     A.U. after   10 cycles
 SCF Done:  E(RB3LYP) =  -641.088774877     A.U. after    7 cycles
 SCF Done:  E(RB3LYP) =  -641.088775358     A.U. after    8 cycles
 SCF Done:  E(RB3LYP) =  -641.088775508     A.U. after    8 cycles
 SCF Done:  E(RB3LYP) =  -641.088775562     A.U. after    7 cycles
 Optimization completed.
    -- Stationary point found.
 Normal termination of Gaussian 16 at Wed Dec  9 22:48:18 2020.

 --------------------------------------------------------------------
 #N Geom=AllCheck Guess=TCheck SCRF=Check GenChk RB3LYP/6-31G(d) Freq
 --------------------------------------------------------------------

 Structure from the checkpoint file:  "JID_3293.chk"
 ------------------------------
 CID_83482302_JID_3293_neutraal
 ------------------------------
 Charge =  0 Multiplicity = 1

 SCF Done:  E(RB3LYP) =  -641.088775562     A.U. after    1 cycles

  Exact polarizability: 135.667  11.473 113.775   2.936  -0.462  51.180
 Approx polarizability: 191.769  36.988 203.404   4.765   0.559  80.027

                      1                      2                      3
                      A                      A                      A
 Frequencies --     50.1978                90.1485               136.3795
 Red. masses --      5.7376                 3.7075                 5.4193
 Frc consts  --      0.0085                 0.0178                 0.0594
 IR Inten    --      0.6359                 2.5171                 2.0790

                      4                      5                      6
                      A                      A                      A
 Frequencies --    174.9931               212.0633               249.2912
 Red. masses --      5.4368                 2.6994                 5.2856
 Frc consts  --      0.0981                 0.0715                 0.1935
 IR Inten    --      1.2448                11.3618                 1.0776

                      7                      8                      9
                      A                      A                      A
 Frequencies --    267.1292               334.6903               392.2417
 Red. masses --      3.8166                 4.6971                 4.7190
 Frc consts  --      0.1605                 0.3100                 0.4278
 IR Inten    --      4.3899                10.2108                27.6528

                     10                     11                     12
                      A                      A                      A
 Frequencies --    403.6292               419.9752               458.2232
 Red. masses --      1.3979                 3.2350                 1.2308
 Frc consts  --      0.1342                 0.3362                 0.1523
 IR Inten    --    309.9256                15.7090                16.7345

                     13                     14                     15
                      A                      A                      A
 Frequencies --    495.7744               535.7970               538.7786
 Red. masses --      1.5423                 4.2180                 4.4257
 Frc consts  --      0.2234                 0.7134                 0.7569
 IR Inten    --     51.9355                17.9903                 6.8503

                     16                     17                     18
                      A                      A                      A
 Frequencies --    574.4760               598.2898               623.0859
 Red. masses --      3.6765                 4.0871                 3.7368
 Frc consts  --      0.7149                 0.8620                 0.8548
 IR Inten    --     20.4036                 2.4213                32.2671

                     19                     20                     21
                      A                      A                      A
 Frequencies --    661.0037               717.0183               728.6889
 Red. masses --      3.5990                10.1226                 3.8070
 Frc consts  --      0.9265                 3.0662                 1.1910
 IR Inten    --     25.7010                 0.8965                 9.7099

                     22                     23                     24
                      A                      A                      A
 Frequencies --    751.3180               816.1718               852.8599
 Red. masses --      3.6858                 1.8193                 3.8344
 Frc consts  --      1.2258                 0.7140                 1.6433
 IR Inten    --      5.2220                52.3417                 2.8960

                     25                     26                     27
                      A                      A                      A
 Frequencies --    857.9066               979.4881               992.2542
 Red. masses --      6.1538                 2.6056                 2.6431
 Frc consts  --      2.6686                 1.4728                 1.5332
 IR Inten    --      7.4403                 6.6143                 8.7297

                     28                     29                     30
                      A                      A                      A
 Frequencies --   1017.8078              1072.9428              1103.2729
 Red. masses --      2.7814                 2.6154                 1.7421
 Frc consts  --      1.6976                 1.7739                 1.2494
 IR Inten    --      5.7721                10.3200                10.2973

                     31                     32                     33
                      A                      A                      A
 Frequencies --   1107.3678              1204.4446              1220.7683
 Red. masses --      1.7179                 3.7575                 2.1249
 Frc consts  --      1.2412                 3.2116                 1.8657
 IR Inten    --     64.7357                15.0249                34.0466

                     34                     35                     36
                      A                      A                      A
 Frequencies --   1261.7306              1267.6749              1308.9258
 Red. masses --      1.1591                 1.3402                 2.2231
 Frc consts  --      1.0872                 1.2689                 2.2440
 IR Inten    --      2.5521                 3.3087                29.4973

                     37                     38                     39
                      A                      A                      A
 Frequencies --   1326.1728              1351.3852              1401.0644
 Red. masses --      2.1458                 2.3381                 1.9089
 Frc consts  --      2.2235                 2.5158                 2.2078
 IR Inten    --     23.6746               120.3167                19.7182

                     40                     41                     42
                      A                      A                      A
 Frequencies --   1458.5043              1486.8185              1489.2172
 Red. masses --      3.0585                 2.7189                 1.9676
 Frc consts  --      3.8334                 3.5413                 2.5710
 IR Inten    --     60.0273                85.0045                87.1241

                     43                     44                     45
                      A                      A                      A
 Frequencies --   1518.3313              1538.0855              1605.7575
 Red. masses --      1.2059                 1.3488                 4.1061
 Frc consts  --      1.6379                 1.8800                 6.2379
 IR Inten    --     33.1269                 5.5851               136.8827

                     46                     47                     48
                      A                      A                      A
 Frequencies --   1660.3124              1688.1499              1792.0735
 Red. masses --      2.0128                 3.0246                11.3308
 Frc consts  --      3.2692                 5.0785                21.4398
 IR Inten    --     24.8327               527.6633               620.1480

                     49                     50                     51
                      A                      A                      A
 Frequencies --   1822.8369              2993.3403              3053.0288
 Red. masses --      9.1797                 1.0736                 1.0731
 Frc consts  --     17.9711                 5.6677                 5.8932
 IR Inten    --    347.5725                36.1145                15.9341

                     52                     53                     54
                      A                      A                      A
 Frequencies --   3149.1839              3177.0628              3231.4346
 Red. masses --      1.0903                 1.0901                 1.0917
 Frc consts  --      6.3708                 6.4830                 6.7165
 IR Inten    --      3.9953                 6.3613                 4.2270

                     55                     56                     57
                      A                      A                      A
 Frequencies --   3594.0016              3607.9397              3710.9451
 Red. masses --      1.0461                 1.0769                 1.1026
 Frc consts  --      7.9614                 8.2594                 8.9458
 IR Inten    --     63.0175                32.4251                32.4157

 - Thermochemistry -
 -------------------
 Temperature   298.150 Kelvin.  Pressure   1.00000 Atm.
 Atom     1 has atomic number  6 and mass  12.00000

 Molecular mass:   180.06473 amu.
 Principal axes and moments of inertia in atomic units:
                           1         2         3
     Eigenvalues --  1151.576072958.306564005.10659
           X            0.99999  -0.00139   0.00474
           Y            0.00140   1.00000  -0.00273
           Z           -0.00473   0.00274   0.99999
 This molecule is an asymmetric top.
 Rotational symmetry number  1.
 Warning -- assumption of classical behavior for rotation
           may cause significant error
 Rotational temperatures (Kelvin)      0.07521     0.02928     0.02163
 Rotational constants (GHZ):           1.56719     0.61006     0.45061
 Zero-point vibrational energy     425466.6 (Joules/Mol)
                                  101.68895 (Kcal/Mol)
 Warning -- explicit consideration of  17 degrees of freedom as
           vibrations may cause significant error
 Vibrational temperatures:     72.22   129.70   196.22   251.78   305.11
          (Kelvin)            358.67   384.34   481.54   564.35   580.73
                              604.25   659.28   713.31   770.89   775.18
                              826.54   860.81   896.48   951.04  1031.63
                             1048.42  1080.98  1174.29  1227.08  1234.34
                             1409.26  1427.63  1464.40  1543.73  1587.36
                             1593.26  1732.93  1756.41  1815.35  1823.90
                             1883.25  1908.07  1944.34  2015.82  2098.46
                             2139.20  2142.65  2184.54  2212.96  2310.33
                             2388.82  2428.87  2578.39  2622.66  4306.75
                             4392.63  4530.97  4571.08  4649.31  5170.97
                             5191.02  5339.22

 Zero-point correction=                           0.162052 (Hartree/Particle)
 Thermal correction to Energy=                    0.172840
 Thermal correction to Enthalpy=                  0.173784
 Thermal correction to Gibbs Free Energy=         0.125301
 Sum of electronic and zero-point Energies=           -640.926724
 Sum of electronic and thermal Energies=              -640.915936
 Sum of electronic and thermal Enthalpies=            -640.914992
 Sum of electronic and thermal Free Energies=         -640.963475

                     E (Thermal)             CV                S
                      KCal/Mol        Cal/Mol-Kelvin    Cal/Mol-Kelvin
 Total                  108.458             41.790            102.041
 Electronic               0.000              0.000              0.000
 Translational            0.889              2.981             41.471
 Rotational               0.889              2.981             30.990
 Vibrational            106.681             35.828             29.579
 Vibration     1          0.595              1.978              4.810
 Vibration     2          0.602              1.956              3.657
 Vibration     3          0.614              1.917              2.854
 Vibration     4          0.627              1.873              2.381
 Vibration     5          0.643              1.822              2.026
 Vibration     6          0.662              1.764              1.736
 Vibration     7          0.672              1.733              1.615
 Vibration     8          0.716              1.606              1.237
 Vibration     9          0.760              1.487              0.992
 Vibration    10          0.769              1.462              0.949
 Vibration    11          0.783              1.427              0.892
 Vibration    12          0.816              1.343              0.771
 Vibration    13          0.851              1.259              0.669
 Vibration    14          0.891              1.171              0.574
 Vibration    15          0.894              1.164              0.568
 Vibration    16          0.931              1.086              0.496
 Vibration    17          0.956              1.035              0.453

                           ! Non-Optimized Parameters !
 Normal termination of Gaussian 16 at Wed Dec  9 22:53:05 2020.

 ----------------------------------------------------------------------
 # B3LYP/6-311++G(d,p) empiricaldispersion=gd3bj scf=xqc pop=npa geom=c
 heck
 ----------------------------------------------------------------------

 --------------------------------------
 CID_83482302_JID_3293_Energie_neutraal
 --------------------------------------
 Structure from the checkpoint file:  "JID_3293.chk"
 Charge =  0 Multiplicity = 1

 SCF Done:  E(RB3LYP) =  -641.280612764     A.U. after   16 cycles
 Normal termination of Gaussian 16 at Wed Dec  9 22:54:52 2020.

 ----------------------------------------------------------------------
 # B3LYP/6-311++G(d,p) empiricaldispersion=gd3bj scf=xqc pop=npa geom=c
 heck
 ----------------------------------------------------------------------

 ------------------------------------
 CID_83482302_JID_3293_Energie_kation
 ------------------------------------
 Structure from the checkpoint file:  "JID_3293.chk"
 Charge =  1 Multiplicity = 2

 SCF Done:  E(UB3LYP) =  -640.970984628     A.U. after   28 cycles
 Normal termination of Gaussian 16 at Wed Dec  9 22:58:50 2020.
 Gaussian 16:  ES64L-G16RevA.03 25-Dec-2016

 ----------------------------------------------------------------------
 # B3LYP/6-311++G(d,p) empiricaldispersion=gd3bj scf=xqc pop=npa geom=c
 heck
 ----------------------------------------------------------------------

 -----------------------------------
 CID_83482302_JID_3293_Energie_anion
 -----------------------------------
 Structure from the checkpoint file:  "JID_3293.chk"
 Charge = -1 Multiplicity = 2

                         Standard orientation:
 ---------------------------------------------------------------------
 Center     Atomic      Atomic             Coordinates (Angstroms)
 Number     Number       Type             X           Y           Z
 ---------------------------------------------------------------------
      1          6           0        0.956451   -1.814105    0.388999
      2          6           0       -0.174879   -0.837435    0.179494
      3          7           0       -1.379008   -1.315298    0.039174
      4          6           0       -2.395739   -0.398974   -0.111273
      5          6           0       -2.183555    0.963629   -0.123549
      6          6           0       -0.869733    1.499432    0.028638
      7          8           0       -0.530807    2.677123    0.052573
      8          7           0        0.142819    0.478485    0.179495
      9          6           0        1.521026    0.942242    0.365620
     10          6           0        2.581374   -0.022120   -0.148452
     11          8           0        3.696299    0.361164   -0.459836
     12          7           0        2.184052   -1.327157   -0.216076
     13          7           0       -3.627687   -0.967974   -0.288187
     14          1           0        0.665298   -2.759567   -0.070066
     15          1           0        1.074931   -1.993597    1.470569
     16          1           0       -2.994527    1.671168   -0.248078
     17          1           0        1.708565    1.138201    1.429901
     18          1           0        1.619908    1.894741   -0.153088
     19          1           0        2.903979   -1.990392   -0.473615
     20          1           0       -4.448247   -0.398059   -0.146237
     21          1           0       -3.704736   -1.941198   -0.028982
 ---------------------------------------------------------------------

 SCF Done:  E(UB3LYP) =  -641.278007904     A.U. after   33 cycles
 SCF Done:  E(UB3LYP) =  -641.278007904     a.u. after    1 cycles

 The electronic state is 2-A.
 Alpha  occ. eigenvalues --  -18.98991 -18.96578 -14.24819 -14.23779 -14.21598
 Alpha  occ. eigenvalues --  -14.18494 -10.17632 -10.15335 -10.13048 -10.12926
 Alpha  occ. eigenvalues --  -10.11349 -10.11255 -10.03779  -0.94420  -0.92521
 Alpha  occ. eigenvalues --   -0.87793  -0.83837  -0.81613  -0.76889  -0.66267
 Alpha  occ. eigenvalues --   -0.64607  -0.60025  -0.54408  -0.51967  -0.47400
 Alpha  occ. eigenvalues --   -0.44663  -0.42048  -0.40434  -0.40021  -0.37827
 Alpha  occ. eigenvalues --   -0.36421  -0.34157  -0.33508  -0.32450  -0.31678
 Alpha  occ. eigenvalues --   -0.31381  -0.29608  -0.28419  -0.27262  -0.25860
 Alpha  occ. eigenvalues --   -0.22290  -0.17368  -0.16638  -0.15877  -0.14648
 Alpha  occ. eigenvalues --   -0.14059  -0.10857   0.04404
 Alpha virt. eigenvalues --    0.06036   0.07476   0.09077   0.09601   0.10412
 Alpha virt. eigenvalues --    0.10955   0.11253   0.11949   0.13060   0.13728
 Alpha virt. eigenvalues --    0.14032   0.15385   0.15923   0.16686   0.17229

  Beta  occ. eigenvalues --  -18.98991 -18.96583 -14.24666 -14.23719 -14.21539
  Beta  occ. eigenvalues --  -14.18522 -10.17629 -10.15349 -10.12770 -10.12698
  Beta  occ. eigenvalues --  -10.11352 -10.11257 -10.03699  -0.94394  -0.92431
  Beta  occ. eigenvalues --   -0.87569  -0.83687  -0.81464  -0.76731  -0.66013
  Beta  occ. eigenvalues --   -0.64487  -0.59890  -0.54151  -0.51769  -0.47280
  Beta  occ. eigenvalues --   -0.44537  -0.41919  -0.40236  -0.39728  -0.37716
  Beta  occ. eigenvalues --   -0.36312  -0.33994  -0.33395  -0.32114  -0.31609
  Beta  occ. eigenvalues --   -0.31175  -0.29566  -0.28289  -0.27002  -0.25686
  Beta  occ. eigenvalues --   -0.21571  -0.17341  -0.16581  -0.15741  -0.14585
  Beta  occ. eigenvalues --   -0.13690  -0.10334
  Beta virt. eigenvalues --    0.07121   0.07823   0.09427   0.09658   0.10007
  Beta virt. eigenvalues --    0.10652   0.11205   0.11495   0.12230   0.13508
  Beta virt. eigenvalues --    0.13849   0.14043   0.15388   0.15965   0.16900

 Mulliken charges and spin densities:
               1          2
     1  C    0.720221  -1.196002
     2  C   -0.642941   0.609306
     3  N   -0.165293  -0.027803
     4  C    0.286662  -0.300790
     5  C    0.280428   0.068390
     6  C   -0.127147  -0.031952
     7  O   -0.403642  -0.002899
     8  N    0.055357   0.012336
     9  C    0.097782  -0.321044
    10  C    0.067277   0.029435
    11  O   -0.377337   0.008442
    12  N   -0.267456   0.080454
    13  N   -0.334002   0.026108
    14  H   -0.056307   0.252035
    15  H   -0.310808   0.535184
    16  H    0.132352   0.028526
    17  H    0.198897   0.015936
    18  H    0.222844   0.011110
    19  H   -0.356730   0.682015
    20  H   -0.198165   0.453833
    21  H    0.178009   0.067381
 Sum of Mulliken charges =  -1.00000   1.00000

 Dipole moment (field-independent basis, Debye):
    X=             -1.7573    Y=              0.0503    Z=              0.5465  Tot=              1.8410
 Quadrupole moment (field-independent basis, Debye-Ang):
   XX=           -138.6239   YY=           -113.7555   ZZ=            -90.1084
   XY=              8.8567   XZ=              2.0677   YZ=              2.4161

 Summary of Natural Population Analysis:

                                       Natural Population
                Natural  -----------------------------------------------
    Atom  No    Charge         Core      Valence    Rydberg      Total
 -----------------------------------------------------------------------
      C    1   -0.10851      0.99958     2.09685    0.01208     3.10851
      C    2    0.30283      0.99960     1.68309    0.01448     2.69717
      N    3   -0.29826      0.99964     2.78992    0.00870     3.79826
      C    4    0.23106      0.99954     1.75487    0.01453     2.76894
      C    5   -0.20827      0.99947     2.19946    0.00934     3.20827
      C    6    0.31856      0.99961     1.65939    0.02244     2.68144
      O    7   -0.34278      0.99988     3.33726    0.00564     4.34278
      N    8   -0.21901      0.99959     2.71180    0.00762     3.71901
      C    9   -0.13135      0.99958     2.12134    0.01043     3.13135
      C   10    0.33937      0.99967     1.63814    0.02282     2.66063
      O   11   -0.32234      0.99987     3.31641    0.00605     4.32234
      N   12   -0.31164      0.99967     2.80147    0.01049     3.81164
      N   13   -0.38873      0.99970     2.87935    0.00968     3.88873
      H   14    0.11297      0.00000     0.38548    0.00156     0.38703
      H   15    0.10402      0.00000     0.39269    0.00330     0.39598
      H   16    0.10458      0.00000     0.39437    0.00105     0.39542
      H   17    0.10663      0.00000     0.39254    0.00083     0.39337
      H   18    0.12737      0.00000     0.37145    0.00118     0.37263
      H   19    0.20113      0.00000     0.28978    0.00909     0.29887
      H   20    0.19048      0.00000     0.30568    0.00384     0.30952
      H   21    0.19190      0.00000     0.30651    0.00159     0.30810
 =======================================================================
   * Total *   -0.00000     12.99540    33.82785    0.17675    47.00000

 Normal termination of Gaussian 16 at Wed Dec  9 23:03:26 2020.
