 Gaussian 16, Revision A.03,

 -----------------------------------------------------------
 # opt freq B3LYP/6-31G(d) empiricaldispersion=gd3bj scf=xqc
 -----------------------------------------------------------

 ------------------------------
 CID_13285651_JID_6840_neutraal
 ------------------------------
 Symbolic Z-matrix:
 Charge =  0 Multiplicity = 1

 SCF Done:  E(RB3LYP) =  -805.872513525     A.U. after   14 cycles
 SCF Done:  E(RB3LYP) =  -805.877424510     A.U. after   13 cycles
 SCF Done:  E(RB3LYP) =  -805.878398953     A.U. after   13 cycles
 SCF Done:  E(RB3LYP) =  -805.878948667     A.U. after   13 cycles
 SCF Done:  E(RB3LYP) =  -805.879438355     A.U. after   13 cycles
 SCF Done:  E(RB3LYP) =  -805.879924692     A.U. after   13 cycles
 SCF Done:  E(RB3LYP) =  -805.880220700     A.U. after   13 cycles
 SCF Done:  E(RB3LYP) =  -805.880683332     A.U. after   13 cycles
 SCF Done:  E(RB3LYP) =  -805.880920290     A.U. after   13 cycles
 SCF Done:  E(RB3LYP) =  -805.881056661     A.U. after   11 cycles
 SCF Done:  E(RB3LYP) =  -805.881541363     A.U. after   11 cycles
 SCF Done:  E(RB3LYP) =  -805.881550952     A.U. after    9 cycles
 SCF Done:  E(RB3LYP) =  -805.881557569     A.U. after    9 cycles
 SCF Done:  E(RB3LYP) =  -805.881559171     A.U. after    8 cycles
 SCF Done:  E(RB3LYP) =  -805.881559830     A.U. after    8 cycles
 Optimization completed.
    -- Stationary point found.
 Normal termination of Gaussian 16 at Fri Dec 11 00:55:21 2020.

 --------------------------------------------------------------------
 #N Geom=AllCheck Guess=TCheck SCRF=Check GenChk RB3LYP/6-31G(d) Freq
 --------------------------------------------------------------------

 Structure from the checkpoint file:  "JID_6840.chk"
 ------------------------------
 CID_13285651_JID_6840_neutraal
 ------------------------------
 Charge =  0 Multiplicity = 1

 SCF Done:  E(RB3LYP) =  -805.881559830     A.U. after    1 cycles

  Exact polarizability: 107.561  15.059 123.589   0.116  -0.412  96.102
 Approx polarizability: 160.675  32.337 197.492  10.219   7.013 174.775

                      1                      2                      3
                      A                      A                      A
 Frequencies --     29.9182                50.7086                62.5660
 Red. masses --      7.5279                 7.5545                 6.3853
 Frc consts  --      0.0040                 0.0114                 0.0147
 IR Inten    --      5.0171                 0.9994                 3.0596

                      4                      5                      6
                      A                      A                      A
 Frequencies --     81.5674                92.0342               124.5302
 Red. masses --      7.7511                 6.9501                 7.7361
 Frc consts  --      0.0304                 0.0347                 0.0707
 IR Inten    --      0.7045                13.8785                 3.4030

                      7                      8                      9
                      A                      A                      A
 Frequencies --    207.3663               220.1068               278.2275
 Red. masses --      5.1719                 4.5704                 4.0289
 Frc consts  --      0.1310                 0.1305                 0.1838
 IR Inten    --      7.3509                 3.2091                 0.6124

                     10                     11                     12
                      A                      A                      A
 Frequencies --    294.0374               295.9911               341.7241
 Red. masses --      2.9431                 3.1827                 2.2250
 Frc consts  --      0.1499                 0.1643                 0.1531
 IR Inten    --      3.8577                13.1091                 7.1577

                     13                     14                     15
                      A                      A                      A
 Frequencies --    369.0813               384.5077               410.2698
 Red. masses --      2.7370                 2.4878                 5.3240
 Frc consts  --      0.2197                 0.2167                 0.5280
 IR Inten    --     20.0860                 7.4832                 4.9972

                     16                     17                     18
                      A                      A                      A
 Frequencies --    459.4455               513.9581               622.9516
 Red. masses --      2.7127                 1.7410                 3.9572
 Frc consts  --      0.3374                 0.2710                 0.9048
 IR Inten    --      0.8211                19.0186                82.4391

                     19                     20                     21
                      A                      A                      A
 Frequencies --    631.2613               655.6966               663.2047
 Red. masses --      1.7161                 4.4929                 4.5337
 Frc consts  --      0.4029                 1.1381                 1.1749
 IR Inten    --    138.2355                12.2930                70.2579

                     22                     23                     24
                      A                      A                      A
 Frequencies --    673.8942               687.2939               717.1672
 Red. masses --      1.4823                 8.1715                 4.7804
 Frc consts  --      0.3966                 2.2742                 1.4486
 IR Inten    --    102.6862                 1.9759                11.1052

                     25                     26                     27
                      A                      A                      A
 Frequencies --    727.9119               780.5554               784.3118
 Red. masses --      3.7043                 4.4306                 2.5243
 Frc consts  --      1.1564                 1.5905                 0.9149
 IR Inten    --     93.2525                 9.8336                11.1374

                     28                     29                     30
                      A                      A                      A
 Frequencies --    789.1979               811.1197               823.1941
 Red. masses --      1.7271                 5.5905                 1.4160
 Frc consts  --      0.6338                 2.1671                 0.5653
 IR Inten    --      5.4931                29.0380                 8.1052

                     31                     32                     33
                      A                      A                      A
 Frequencies --    895.7473               955.3307               968.4645
 Red. masses --      3.4463                 3.8408                 5.8834
 Frc consts  --      1.6292                 2.0653                 3.2512
 IR Inten    --      6.1003                 4.2654                 1.6345

                     34                     35                     36
                      A                      A                      A
 Frequencies --    997.2183              1003.9577              1029.8413
 Red. masses --      2.3270                 2.6177                 5.6249
 Frc consts  --      1.3634                 1.5545                 3.5149
 IR Inten    --      1.7666                20.2639                 9.3692

                     37                     38                     39
                      A                      A                      A
 Frequencies --   1057.9595              1140.7369              1173.3241
 Red. masses --      6.7949                 1.8233                 2.1945
 Frc consts  --      4.4810                 1.3979                 1.7800
 IR Inten    --      6.7799                 3.6448               116.8360

                     40                     41                     42
                      A                      A                      A
 Frequencies --   1190.8773              1208.3121              1228.7274
 Red. masses --      1.9546                 1.7599                 1.6548
 Frc consts  --      1.6332                 1.5139                 1.4720
 IR Inten    --     89.9008               122.6507                22.4764

                     43                     44                     45
                      A                      A                      A
 Frequencies --   1239.6300              1279.1878              1307.8741
 Red. masses --      2.2476                 2.0279                 2.2587
 Frc consts  --      2.0349                 1.9551                 2.2763
 IR Inten    --      2.8687                 0.2812                 5.3541

                     46                     47                     48
                      A                      A                      A
 Frequencies --   1340.6116              1358.4075              1388.2116
 Red. masses --      1.4812                 1.9318                 2.7409
 Frc consts  --      1.5685                 2.1003                 3.1121
 IR Inten    --     19.5736                 0.5725                17.2876

                     49                     50                     51
                      A                      A                      A
 Frequencies --   1398.3360              1441.7544              1452.0730
 Red. masses --      2.0347                 5.1701                 2.3840
 Frc consts  --      2.3441                 6.3318                 2.9617
 IR Inten    --     28.4802                31.3340                19.3635

                     52                     53                     54
                      A                      A                      A
 Frequencies --   1485.2298              1496.7426              1504.1814
 Red. masses --      2.1212                 1.2350                 1.7886
 Frc consts  --      2.7569                 1.6301                 2.3843
 IR Inten    --     23.0358                 8.1538                15.1606

                     55                     56                     57
                      A                      A                      A
 Frequencies --   1552.3945              1558.2679              1566.1106
 Red. masses --      3.4638                 4.7420                 4.6743
 Frc consts  --      4.9183                 6.7841                 6.7547
 IR Inten    --     47.2196                51.8747                31.0087

                     58                     59                     60
                      A                      A                      A
 Frequencies --   1607.8697              1689.8616              1854.6797
 Red. masses --      3.0994                 1.4469                10.1483
 Frc consts  --      4.7209                 2.4344                20.5674
 IR Inten    --    114.8135               151.4892               217.0150

                     61                     62                     63
                      A                      A                      A
 Frequencies --   3084.9710              3100.1775              3143.6036
 Red. masses --      1.0652                 1.0615                 1.0995
 Frc consts  --      5.9731                 6.0108                 6.4017
 IR Inten    --      9.6063                 6.4615                 0.6511

                     64                     65                     66
                      A                      A                      A
 Frequencies --   3157.8737              3275.9838              3282.4532
 Red. masses --      1.1044                 1.0986                 1.0978
 Frc consts  --      6.4891                 6.9465                 6.9687
 IR Inten    --      0.2799                 0.1484                 0.1725

                     67                     68                     69
                      A                      A                      A
 Frequencies --   3536.3557              3648.9308              3685.7699
 Red. masses --      1.0500                 1.0970                 1.0643
 Frc consts  --      7.7363                 8.6058                 8.5183
 IR Inten    --     34.3248                52.6466                79.7324

 - Thermochemistry -
 -------------------
 Temperature   298.150 Kelvin.  Pressure   1.00000 Atm.
 Atom     1 has atomic number  6 and mass  12.00000

 Molecular mass:   223.08177 amu.
 Principal axes and moments of inertia in atomic units:
                           1         2         3
     Eigenvalues --  2750.938263021.095364716.88731
           X            0.99593  -0.08897  -0.01466
           Y            0.08895   0.99603  -0.00221
           Z            0.01479   0.00089   0.99989
 This molecule is an asymmetric top.
 Rotational symmetry number  1.
 Warning -- assumption of classical behavior for rotation
           may cause significant error
 Rotational temperatures (Kelvin)      0.03149     0.02867     0.01836
 Rotational constants (GHZ):           0.65605     0.59738     0.38261
 Zero-point vibrational energy     495683.7 (Joules/Mol)
                                  118.47124 (Kcal/Mol)
 Warning -- explicit consideration of  17 degrees of freedom as
           vibrations may cause significant error
 Vibrational temperatures:     43.05    72.96    90.02   117.36   132.42
          (Kelvin)            179.17   298.35   316.68   400.31   423.05
                              425.87   491.66   531.03   553.22   590.29
                              661.04   739.47   896.29   908.24   943.40
                              954.20   969.58   988.86  1031.84  1047.30
                             1123.05  1128.45  1135.48  1167.02  1184.39
                             1288.78  1374.51  1393.40  1434.77  1444.47
                             1481.71  1522.17  1641.27  1688.15  1713.41
                             1738.49  1767.86  1783.55  1840.47  1881.74
                             1928.84  1954.45  1997.33  2011.89  2074.36
                             2089.21  2136.91  2153.48  2164.18  2233.55
                             2242.00  2253.28  2313.37  2431.33  2668.47
                             4438.59  4460.46  4522.94  4543.48  4713.41
                             4722.72  5088.03  5250.00  5303.00

 Zero-point correction=                           0.188796 (Hartree/Particle)
 Thermal correction to Energy=                    0.202420
 Thermal correction to Enthalpy=                  0.203365
 Thermal correction to Gibbs Free Energy=         0.146952
 Sum of electronic and zero-point Energies=           -805.692764
 Sum of electronic and thermal Energies=              -805.679139
 Sum of electronic and thermal Enthalpies=            -805.678195
 Sum of electronic and thermal Free Energies=         -805.734608

                     E (Thermal)             CV                S
                      KCal/Mol        Cal/Mol-Kelvin    Cal/Mol-Kelvin
 Total                  127.021             50.931            118.731
 Electronic               0.000              0.000              0.000
 Translational            0.889              2.981             42.110
 Rotational               0.889              2.981             32.039
 Vibrational            125.243             44.970             44.582
 Vibration     1          0.594              1.984              5.835
 Vibration     2          0.595              1.977              4.790
 Vibration     3          0.597              1.972              4.375
 Vibration     4          0.600              1.962              3.853
 Vibration     5          0.602              1.955              3.616
 Vibration     6          0.610              1.928              3.029
 Vibration     7          0.641              1.829              2.067
 Vibration     8          0.647              1.810              1.958
 Vibration     9          0.679              1.714              1.545
 Vibration    10          0.689              1.685              1.451
 Vibration    11          0.690              1.681              1.439
 Vibration    12          0.721              1.592              1.204
 Vibration    13          0.741              1.536              1.084
 Vibration    14          0.753              1.503              1.021
 Vibration    15          0.774              1.448              0.926
 Vibration    16          0.817              1.340              0.768
 Vibration    17          0.869              1.219              0.624

                           ! Non-Optimized Parameters !
 Normal termination of Gaussian 16 at Fri Dec 11 01:04:09 2020.

 ----------------------------------------------------------------------
 # B3LYP/6-311++G(d,p) empiricaldispersion=gd3bj scf=xqc pop=npa geom=c
 heck
 ----------------------------------------------------------------------

 --------------------------------------
 CID_13285651_JID_6840_Energie_neutraal
 --------------------------------------
 Structure from the checkpoint file:  "JID_6840.chk"
 Charge =  0 Multiplicity = 1

 SCF Done:  E(RB3LYP) =  -806.118050344     A.U. after   15 cycles
 Normal termination of Gaussian 16 at Fri Dec 11 01:07:01 2020.

 ----------------------------------------------------------------------
 # B3LYP/6-311++G(d,p) empiricaldispersion=gd3bj scf=xqc pop=npa geom=c
 heck
 ----------------------------------------------------------------------

 ------------------------------------
 CID_13285651_JID_6840_Energie_kation
 ------------------------------------
 Structure from the checkpoint file:  "JID_6840.chk"
 Charge =  1 Multiplicity = 2

 SCF Done:  E(UB3LYP) =  -805.798244204     A.U. after   27 cycles
 Normal termination of Gaussian 16 at Fri Dec 11 01:13:48 2020.
 Gaussian 16:  ES64L-G16RevA.03 25-Dec-2016

 ----------------------------------------------------------------------
 # B3LYP/6-311++G(d,p) empiricaldispersion=gd3bj scf=xqc pop=npa geom=c
 heck
 ----------------------------------------------------------------------

 -----------------------------------
 CID_13285651_JID_6840_Energie_anion
 -----------------------------------
 Structure from the checkpoint file:  "JID_6840.chk"
 Charge = -1 Multiplicity = 2

                         Standard orientation:
 ---------------------------------------------------------------------
 Center     Atomic      Atomic             Coordinates (Angstroms)
 Number     Number       Type             X           Y           Z
 ---------------------------------------------------------------------
      1          6           0       -2.048200   -0.799453    0.657871
      2          7           0       -2.898879   -0.780573   -0.330082
      3          7           0       -2.790682    0.461473   -0.956634
      4          6           0       -1.881448    1.148141   -0.294818
      5          7           0       -1.367864    0.401647    0.741372
      6          6           0       -0.180244    0.715742    1.521735
      7          6           0        0.998660    0.962824    0.630833
      8          7           0        1.758188    2.033442    0.706453
      9          7           0        2.726587    1.941215   -0.278248
     10          6           0        2.505464    0.825443   -0.922545
     11          7           0        1.423386    0.156782   -0.404116
     12          6           0        0.832269   -1.043859   -0.965690
     13          6           0        0.816276   -2.210813    0.007486
     14          8           0        0.964215   -2.133551    1.205326
     15          8           0        0.573834   -3.355502   -0.653688
     16          7           0       -1.525441    2.461348   -0.511854
     17          1           0       -1.866008   -1.617456    1.339716
     18          1           0       -0.335556    1.620889    2.115359
     19          1           0        0.009678   -0.122957    2.193478
     20          1           0        3.073883    0.452195   -1.763299
     21          1           0       -0.198333   -0.858724   -1.289571
     22          1           0        1.401670   -1.324683   -1.854345
     23          1           0        0.512756   -4.066797    0.012076
     24          1           0       -1.884048    2.813294   -1.391006
     25          1           0       -0.552157    2.701169   -0.352967
 ---------------------------------------------------------------------

 SCF Done:  E(UB3LYP) =  -806.116865921     A.U. after   33 cycles
 SCF Done:  E(UB3LYP) =  -806.116865921     a.u. after    1 cycles

 The electronic state is 2-A.
 Alpha  occ. eigenvalues --  -19.08093 -19.03325 -14.30779 -14.29605 -14.25295
 Alpha  occ. eigenvalues --  -14.24637 -14.24338 -14.23433 -14.22554 -10.22521
 Alpha  occ. eigenvalues --  -10.18331 -10.16366 -10.15866 -10.15252 -10.15214
 Alpha  occ. eigenvalues --  -10.14055  -1.02706  -0.98821  -0.97802  -0.94058
 Alpha  occ. eigenvalues --   -0.85563  -0.85118  -0.83765  -0.74703  -0.70559
 Alpha  occ. eigenvalues --   -0.68652  -0.65815  -0.55820  -0.55589  -0.55328
 Alpha  occ. eigenvalues --   -0.52294  -0.50190  -0.46018  -0.44247  -0.43762
 Alpha  occ. eigenvalues --   -0.43213  -0.41416  -0.41109  -0.40263  -0.39109
 Alpha  occ. eigenvalues --   -0.37379  -0.37060  -0.36664  -0.34413  -0.33865
 Alpha  occ. eigenvalues --   -0.31728  -0.31557  -0.25813  -0.24379  -0.24037
 Alpha  occ. eigenvalues --   -0.22606  -0.22162  -0.20960  -0.20205  -0.18584
 Alpha  occ. eigenvalues --   -0.18497  -0.17395  -0.14388   0.03806
 Alpha virt. eigenvalues --    0.06086   0.06324   0.07291   0.07904   0.07972
 Alpha virt. eigenvalues --    0.09877   0.10039   0.10310   0.10423   0.11334
 Alpha virt. eigenvalues --    0.12264   0.12771   0.13002   0.13207   0.14113

  Beta  occ. eigenvalues --  -19.07999 -19.03270 -14.30763 -14.29601 -14.25273
  Beta  occ. eigenvalues --  -14.24618 -14.24343 -14.23432 -14.22546 -10.22461
  Beta  occ. eigenvalues --  -10.18330 -10.16352 -10.15857 -10.15198 -10.15180
  Beta  occ. eigenvalues --  -10.14039  -1.02557  -0.98794  -0.97789  -0.93927
  Beta  occ. eigenvalues --   -0.85538  -0.85087  -0.83743  -0.74670  -0.70534
  Beta  occ. eigenvalues --   -0.68529  -0.65784  -0.55698  -0.55529  -0.55293
  Beta  occ. eigenvalues --   -0.52241  -0.50133  -0.45943  -0.44167  -0.43667
  Beta  occ. eigenvalues --   -0.43163  -0.41348  -0.41069  -0.40140  -0.39005
  Beta  occ. eigenvalues --   -0.37307  -0.37003  -0.36611  -0.34323  -0.33823
  Beta  occ. eigenvalues --   -0.31636  -0.31425  -0.25791  -0.24184  -0.24007
  Beta  occ. eigenvalues --   -0.22589  -0.22079  -0.20940  -0.20117  -0.18536
  Beta  occ. eigenvalues --   -0.18457  -0.17384  -0.14370
  Beta virt. eigenvalues --    0.06344   0.07116   0.07450   0.07849   0.08259
  Beta virt. eigenvalues --    0.08599   0.10051   0.10240   0.10662   0.10855
  Beta virt. eigenvalues --    0.11463   0.12390   0.12800   0.13314   0.13371

 Mulliken charges and spin densities:
               1          2
     1  C    0.216768  -0.456675
     2  N   -0.099858   0.000266
     3  N   -0.113943   0.031142
     4  C    0.085322  -0.158969
     5  N    0.023445   0.038055
     6  C    0.794481  -1.622721
     7  C   -0.634749   0.314482
     8  N   -0.090860   0.125527
     9  N   -0.049847  -0.091046
    10  C    0.243013  -0.003533
    11  N    0.123886   0.077088
    12  C    0.369634  -0.900691
    13  C    0.433517  -0.318760
    14  O   -0.244674  -0.001102
    15  O   -0.109411   0.035708
    16  N   -0.388397   0.050022
    17  H   -0.273649   0.502122
    18  H    0.184425   0.053094
    19  H    0.141977   0.105090
    20  H   -0.786677   0.998807
    21  H    0.032821   0.205527
    22  H   -0.655929   0.897509
    23  H   -0.589800   0.910580
    24  H    0.104321   0.185630
    25  H    0.284184   0.022848
 Sum of Mulliken charges =  -1.00000   1.00000

 Dipole moment (field-independent basis, Debye):
    X=             -1.2193    Y=              5.4743    Z=              3.2310  Tot=              6.4726
 Quadrupole moment (field-independent basis, Debye-Ang):
   XX=           -149.4415   YY=           -154.8504   ZZ=           -123.4630
   XY=             -6.6238   XZ=             -0.8656   YZ=             -3.0159

 Summary of Natural Population Analysis:

                                       Natural Population
                Natural  -----------------------------------------------
    Atom  No    Charge         Core      Valence    Rydberg      Total
 -----------------------------------------------------------------------
      C    1    0.08889      0.99964     1.89432    0.01716     2.91111
      N    2   -0.15552      0.99972     2.64213    0.01367     3.65552
      N    3   -0.19350      0.99968     2.68070    0.01312     3.69350
      C    4    0.27003      0.99961     1.71276    0.01760     2.72997
      N    5   -0.22974      0.99961     2.72002    0.01011     3.72974
      C    6   -0.10856      0.99956     2.09887    0.01013     3.10856
      C    7    0.17926      0.99959     1.80339    0.01776     2.82074
      N    8   -0.16619      0.99968     2.65415    0.01236     3.66619
      N    9   -0.16239      0.99973     2.64877    0.01390     3.66239
      C   10    0.11185      0.99962     1.87212    0.01641     2.88815
      N   11   -0.20987      0.99961     2.69683    0.01344     3.70987
      C   12   -0.13851      0.99955     2.12581    0.01315     3.13851
      C   13    0.41124      0.99973     1.56377    0.02526     2.58876
      O   14   -0.30687      0.99987     3.30014    0.00686     4.30687
      O   15   -0.33450      0.99987     3.32789    0.00674     4.33450
      N   16   -0.40559      0.99971     2.89768    0.00820     3.90559
      H   17    0.10627      0.00000     0.39193    0.00180     0.39373
      H   18    0.11433      0.00000     0.38442    0.00125     0.38567
      H   19    0.12791      0.00000     0.37081    0.00128     0.37209
      H   20    0.10413      0.00000     0.39353    0.00234     0.39587
      H   21    0.12725      0.00000     0.37001    0.00275     0.37275
      H   22    0.12424      0.00000     0.37353    0.00223     0.37576
      H   23    0.25124      0.00000     0.21580    0.03297     0.24876
      H   24    0.19645      0.00000     0.30167    0.00188     0.30355
      H   25    0.19816      0.00000     0.29991    0.00193     0.30184
 =======================================================================
   * Total *   -0.00000     15.99476    41.74093    0.26431    58.00000

 Normal termination of Gaussian 16 at Fri Dec 11 01:22:09 2020.
