 Gaussian 16, Revision A.03,

 -----------------------------------------------------------
 # opt freq B3LYP/6-31G(d) empiricaldispersion=gd3bj scf=xqc
 -----------------------------------------------------------

 ------------------------------
 CID_62119243_JID_9107_neutraal
 ------------------------------
 Symbolic Z-matrix:
 Charge =  0 Multiplicity = 1

 SCF Done:  E(RB3LYP) =  -930.097151856     A.U. after   14 cycles
 SCF Done:  E(RB3LYP) =  -930.105817420     A.U. after   14 cycles
 SCF Done:  E(RB3LYP) =  -930.100001506     A.U. after   14 cycles
 SCF Done:  E(RB3LYP) =  -930.102720546     A.U. after   13 cycles
 SCF Done:  E(RB3LYP) =  -930.108369530     A.U. after   11 cycles
 SCF Done:  E(RB3LYP) =  -930.109882354     A.U. after   13 cycles
 SCF Done:  E(RB3LYP) =  -930.111014418     A.U. after   12 cycles
 SCF Done:  E(RB3LYP) =  -930.111178971     A.U. after   12 cycles
 SCF Done:  E(RB3LYP) =  -930.111955407     A.U. after   13 cycles
 SCF Done:  E(RB3LYP) =  -930.112691979     A.U. after   13 cycles
 SCF Done:  E(RB3LYP) =  -930.113666683     A.U. after   10 cycles
 SCF Done:  E(RB3LYP) =  -930.113669012     A.U. after   10 cycles
 SCF Done:  E(RB3LYP) =  -930.113669467     A.U. after    8 cycles
 SCF Done:  E(RB3LYP) =  -930.113669601     A.U. after    7 cycles
 Optimization completed.
    -- Stationary point found.
 Normal termination of Gaussian 16 at Sun Dec 13 20:40:38 2020.

 --------------------------------------------------------------------
 #N Geom=AllCheck Guess=TCheck SCRF=Check GenChk RB3LYP/6-31G(d) Freq
 --------------------------------------------------------------------

 Structure from the checkpoint file:  "JID_9107.chk"
 ------------------------------
 CID_62119243_JID_9107_neutraal
 ------------------------------
 Charge =  0 Multiplicity = 1

 SCF Done:  E(RB3LYP) =  -930.113669601     A.U. after    1 cycles

  Exact polarizability: 174.569  -2.585 137.865  -1.531  -5.264 136.366
 Approx polarizability: 231.498  -4.350 204.256  -0.289 -11.861 224.716

                      1                      2                      3
                      A                      A                      A
 Frequencies --     30.3254                35.2841                41.4909
 Red. masses --      4.2148                 4.2500                 7.4937
 Frc consts  --      0.0023                 0.0031                 0.0076
 IR Inten    --      2.9197                 2.7210                 1.3226

                      4                      5                      6
                      A                      A                      A
 Frequencies --     50.6253                70.5967                80.9525
 Red. masses --      2.6124                 6.9549                 7.3217
 Frc consts  --      0.0039                 0.0204                 0.0283
 IR Inten    --      0.3478                 0.7328                 1.7603

                      7                      8                      9
                      A                      A                      A
 Frequencies --     96.8867               106.6707               117.9967
 Red. masses --      1.5525                 2.1649                 3.7286
 Frc consts  --      0.0086                 0.0145                 0.0306
 IR Inten    --      0.6891                 3.5989                 0.4670

                     10                     11                     12
                      A                      A                      A
 Frequencies --    143.2839               165.1341               190.0821
 Red. masses --      4.8338                 3.9924                 2.2688
 Frc consts  --      0.0585                 0.0641                 0.0483
 IR Inten    --      1.2433                 9.0246                 1.3091

                     13                     14                     15
                      A                      A                      A
 Frequencies --    205.6545               207.9223               242.3414
 Red. masses --      3.5860                 3.9855                 2.0393
 Frc consts  --      0.0894                 0.1015                 0.0706
 IR Inten    --      0.9156                 0.5102                 0.3685

                     16                     17                     18
                      A                      A                      A
 Frequencies --    272.2153               276.9965               282.3474
 Red. masses --      2.8177                 1.3555                 1.8700
 Frc consts  --      0.1230                 0.0613                 0.0878
 IR Inten    --      0.6814                 0.8163                 1.5588

                     19                     20                     21
                      A                      A                      A
 Frequencies --    328.9040               331.5772               339.2334
 Red. masses --      1.7383                 3.2786                 3.9270
 Frc consts  --      0.1108                 0.2124                 0.2663
 IR Inten    --      0.8158                 3.1191                 1.9339

                     22                     23                     24
                      A                      A                      A
 Frequencies --    360.8222               390.5675               413.2934
 Red. masses --      2.7778                 3.6907                 5.1612
 Frc consts  --      0.2131                 0.3317                 0.5194
 IR Inten    --      1.0345                 3.4785                 6.0838

                     25                     26                     27
                      A                      A                      A
 Frequencies --    417.3368               452.6007               515.2677
 Red. masses --      2.9548                 3.0875                 1.3091
 Frc consts  --      0.3032                 0.3726                 0.2048
 IR Inten    --      2.5068                 2.4643                50.5495

                     28                     29                     30
                      A                      A                      A
 Frequencies --    577.7374               600.9743               641.8633
 Red. masses --      3.7522                 2.6259                 2.5642
 Frc consts  --      0.7379                 0.5588                 0.6224
 IR Inten    --     11.0195                51.5704                51.7991

                     31                     32                     33
                      A                      A                      A
 Frequencies --    651.4868               657.5081               681.7684
 Red. masses --      1.4488                 3.2306                 5.5678
 Frc consts  --      0.3623                 0.8229                 1.5248
 IR Inten    --     68.2695                22.9260                 6.0566

                     34                     35                     36
                      A                      A                      A
 Frequencies --    703.7984               731.4508               735.9539
 Red. masses --      3.4683                 4.1977                 2.5488
 Frc consts  --      1.0122                 1.3232                 0.8134
 IR Inten    --     25.6420                14.7247                15.9898

                     37                     38                     39
                      A                      A                      A
 Frequencies --    782.2772               789.7162               811.4199
 Red. masses --      3.8166                 2.4824                 2.5737
 Frc consts  --      1.3761                 0.9121                 0.9984
 IR Inten    --     30.1636                35.8017                45.4575

                     40                     41                     42
                      A                      A                      A
 Frequencies --    818.9492               825.0384               860.1658
 Red. masses --      1.6993                 1.5970                 2.8554
 Frc consts  --      0.6715                 0.6405                 1.2448
 IR Inten    --     21.5953                 6.5970                14.7994

                     43                     44                     45
                      A                      A                      A
 Frequencies --    903.8156               919.5569               945.4851
 Red. masses --      1.6436                 2.4532                 2.1929
 Frc consts  --      0.7910                 1.2222                 1.1550
 IR Inten    --      3.9957                 2.9004                 2.3690

                     46                     47                     48
                      A                      A                      A
 Frequencies --    969.1612              1014.4291              1026.3428
 Red. masses --      4.5811                 2.1328                 1.9099
 Frc consts  --      2.5352                 1.2931                 1.1853
 IR Inten    --      2.3461                12.8805                 2.8630

                     49                     50                     51
                      A                      A                      A
 Frequencies --   1059.7612              1075.8327              1086.3888
 Red. masses --      5.5268                 2.1745                 1.5906
 Frc consts  --      3.6571                 1.4829                 1.1061
 IR Inten    --      9.8918                 1.5573                17.9557

                     52                     53                     54
                      A                      A                      A
 Frequencies --   1091.7341              1099.6320              1131.3130
 Red. masses --      2.2009                 1.6449                 3.6007
 Frc consts  --      1.5455                 1.1719                 2.7152
 IR Inten    --      0.7009                 1.9483                32.1582

                     55                     56                     57
                      A                      A                      A
 Frequencies --   1152.4757              1166.0403              1186.2760
 Red. masses --      3.4016                 1.3023                 2.4879
 Frc consts  --      2.6619                 1.0433                 2.0628
 IR Inten    --    228.6361                 1.5123                 0.4072

                     58                     59                     60
                      A                      A                      A
 Frequencies --   1196.8910              1230.4855              1241.2368
 Red. masses --      1.9679                 1.7144                 2.2377
 Frc consts  --      1.6610                 1.5294                 2.0313
 IR Inten    --     69.0615                17.7440                 6.8487

                     61                     62                     63
                      A                      A                      A
 Frequencies --   1263.6586              1271.2173              1306.7496
 Red. masses --      2.8819                 1.4297                 1.2434
 Frc consts  --      2.7114                 1.3612                 1.2510
 IR Inten    --     21.1441                15.6264                 4.5674

                     64                     65                     66
                      A                      A                      A
 Frequencies --   1345.1136              1364.6056              1379.1250
 Red. masses --      1.3396                 2.1745                 1.3252
 Frc consts  --      1.4281                 2.3858                 1.4850
 IR Inten    --     17.1621                 6.2166                 6.3013

                     67                     68                     69
                      A                      A                      A
 Frequencies --   1389.3754              1404.6211              1410.0696
 Red. masses --      4.5831                 1.3633                 1.6286
 Frc consts  --      5.2126                 1.5848                 1.9079
 IR Inten    --     14.0901                29.6512                96.5492

                     70                     71                     72
                      A                      A                      A
 Frequencies --   1425.7052              1430.5329              1438.8233
 Red. masses --      3.1765                 1.3078                 3.6374
 Frc consts  --      3.8042                 1.5768                 4.4367
 IR Inten    --    183.0661                22.9552               175.1862

                     73                     74                     75
                      A                      A                      A
 Frequencies --   1449.9439              1475.1081              1494.4751
 Red. masses --      1.3184                 1.4475                 1.5007
 Frc consts  --      1.6331                 1.8558                 1.9748
 IR Inten    --     30.4460                 3.0251                 0.8864

                     76                     77                     78
                      A                      A                      A
 Frequencies --   1496.7000              1507.7773              1514.0564
 Red. masses --      1.2265                 1.0786                 1.0730
 Frc consts  --      1.6187                 1.4448                 1.4492
 IR Inten    --      4.2397                 7.9690                 5.6364

                     79                     80                     81
                      A                      A                      A
 Frequencies --   1518.6746              1524.6191              1533.0891
 Red. masses --      1.0729                 1.0504                 1.0672
 Frc consts  --      1.4579                 1.4385                 1.4779
 IR Inten    --      4.4510                 9.6100                 4.5186

                     82                     83                     84
                      A                      A                      A
 Frequencies --   1535.6599              1537.0852              1541.4114
 Red. masses --      1.0584                 1.0801                 1.1963
 Frc consts  --      1.4706                 1.5035                 1.6746
 IR Inten    --      4.4794                 7.8400                10.9087

                     85                     86                     87
                      A                      A                      A
 Frequencies --   1548.4413              1556.9183              1576.4763
 Red. masses --      1.0731                 3.2546                 4.2517
 Frc consts  --      1.5160                 4.6482                 6.2257
 IR Inten    --      6.1207                60.1018                20.2998

                     88                     89                     90
                      A                      A                      A
 Frequencies --   1794.2227              1849.8292              3039.9103
 Red. masses --      5.5706                10.1229                 1.0644
 Frc consts  --     10.5658                20.4089                 5.7952
 IR Inten    --    447.0422               203.1920                31.3989

                     91                     92                     93
                      A                      A                      A
 Frequencies --   3058.8418              3066.8416              3069.8878
 Red. masses --      1.0406                 1.0586                 1.0360
 Frc consts  --      5.7364                 5.8662                 5.7526
 IR Inten    --     17.7226                 3.4573                25.2341

                     94                     95                     96
                      A                      A                      A
 Frequencies --   3072.6488              3078.7935              3097.7572
 Red. masses --      1.0688                 1.0574                 1.0621
 Frc consts  --      5.9455                 5.9053                 6.0051
 IR Inten    --     28.3184                20.9526                15.7259

                     97                     98                     99
                      A                      A                      A
 Frequencies --   3118.0441              3123.2402              3140.1128
 Red. masses --      1.1021                 1.1059                 1.1011
 Frc consts  --      6.3128                 6.3558                 6.3971
 IR Inten    --     43.7014                 9.8877                24.0810

                    100                    101                    102
                      A                      A                      A
 Frequencies --   3142.0513              3143.9061              3146.8924
 Red. masses --      1.1013                 1.1031                 1.0996
 Frc consts  --      6.4057                 6.4242                 6.4157
 IR Inten    --      6.6122                18.5089                23.8042

                    103                    104                    105
                      A                      A                      A
 Frequencies --   3155.6743              3170.8608              3274.7602
 Red. masses --      1.1035                 1.1060                 1.0981
 Frc consts  --      6.4746                 6.5517                 6.9385
 IR Inten    --     11.4227                 6.9052                 1.1207

                    106                    107                    108
                      A                      A                      A
 Frequencies --   3556.9739              3618.6519              3673.0967
 Red. masses --      1.0749                 1.0761                 1.0641
 Frc consts  --      8.0130                 8.3019                 8.4584
 IR Inten    --     27.4453                33.0620                55.2654

 - Thermochemistry -
 -------------------
 Temperature   298.150 Kelvin.  Pressure   1.00000 Atm.
 Atom     1 has atomic number  6 and mass  12.00000

 Molecular mass:   269.14879 amu.
 Principal axes and moments of inertia in atomic units:
                           1         2         3
     Eigenvalues --  3293.877637296.296397898.07928
           X            0.99999  -0.00413  -0.00029
           Y            0.00410   0.99714  -0.07544
           Z            0.00060   0.07543   0.99715
 This molecule is an asymmetric top.
 Rotational symmetry number  1.
 Warning -- assumption of classical behavior for rotation
           may cause significant error
 Rotational temperatures (Kelvin)      0.02630     0.01187     0.01097
 Rotational constants (GHZ):           0.54791     0.24735     0.22850
 Zero-point vibrational energy     838381.3 (Joules/Mol)
                                  200.37794 (Kcal/Mol)
 Warning -- explicit consideration of  29 degrees of freedom as
           vibrations may cause significant error
 Vibrational temperatures:     43.63    50.77    59.70    72.84   101.57
          (Kelvin)            116.47   139.40   153.48   169.77   206.15
                              237.59   273.49   295.89   299.15   348.68
                              391.66   398.54   406.23   473.22   477.07
                              488.08   519.14   561.94   594.64   600.45
                              651.19   741.36   831.24   864.67   923.50
                              937.34   946.01   980.91  1012.61  1052.39
                             1058.87  1125.52  1136.23  1167.45  1178.29
                             1187.05  1237.59  1300.39  1323.04  1360.34
                             1394.41  1459.54  1476.68  1524.76  1547.88
                             1563.07  1570.76  1582.13  1627.71  1658.16
                             1677.67  1706.79  1722.06  1770.39  1785.86
                             1818.12  1829.00  1880.12  1935.32  1963.36
                             1984.25  1999.00  2020.94  2028.78  2051.27
                             2058.22  2070.15  2086.15  2122.35  2150.22
                             2153.42  2169.36  2178.39  2185.03  2193.59
                             2205.77  2209.47  2211.52  2217.75  2227.86
                             2240.06  2268.20  2581.49  2661.49  4373.75
                             4400.99  4412.50  4416.88  4420.86  4429.70
                             4456.98  4486.17  4493.65  4517.92  4520.71
                             4523.38  4527.68  4540.31  4562.16  4711.65
                             5117.69  5206.43  5284.77

 Zero-point correction=                           0.319323 (Hartree/Particle)
 Thermal correction to Energy=                    0.339286
 Thermal correction to Enthalpy=                  0.340230
 Thermal correction to Gibbs Free Energy=         0.269524
 Sum of electronic and zero-point Energies=           -929.794347
 Sum of electronic and thermal Energies=              -929.774384
 Sum of electronic and thermal Enthalpies=            -929.773440
 Sum of electronic and thermal Free Energies=         -929.844146

                     E (Thermal)             CV                S
                      KCal/Mol        Cal/Mol-Kelvin    Cal/Mol-Kelvin
 Total                  212.905             73.122            148.813
 Electronic               0.000              0.000              0.000
 Translational            0.889              2.981             42.669
 Rotational               0.889              2.981             33.606
 Vibrational            211.128             67.160             72.538
 Vibration     1          0.594              1.984              5.808
 Vibration     2          0.594              1.982              5.508
 Vibration     3          0.594              1.981              5.187
 Vibration     4          0.595              1.977              4.793
 Vibration     5          0.598              1.968              4.137
 Vibration     6          0.600              1.962              3.868
 Vibration     7          0.603              1.951              3.516
 Vibration     8          0.606              1.944              3.329
 Vibration     9          0.608              1.934              3.133
 Vibration    10          0.616              1.910              2.760
 Vibration    11          0.624              1.885              2.490
 Vibration    12          0.633              1.854              2.227
 Vibration    13          0.640              1.832              2.082
 Vibration    14          0.641              1.829              2.062
 Vibration    15          0.659              1.775              1.786
 Vibration    16          0.675              1.725              1.582
 Vibration    17          0.678              1.716              1.552
 Vibration    18          0.681              1.706              1.519
 Vibration    19          0.712              1.618              1.265
 Vibration    20          0.714              1.612              1.252
 Vibration    21          0.719              1.597              1.216
 Vibration    22          0.735              1.553              1.119
 Vibration    23          0.758              1.490              0.998
 Vibration    24          0.777              1.441              0.915
 Vibration    25          0.780              1.433              0.901
 Vibration    26          0.811              1.355              0.788
 Vibration    27          0.870              1.216              0.621
 Vibration    28          0.934              1.079              0.490
 Vibration    29          0.959              1.030              0.448

                           ! Non-Optimized Parameters !
 Normal termination of Gaussian 16 at Sun Dec 13 21:03:10 2020.

 ----------------------------------------------------------------------
 # B3LYP/6-311++G(d,p) empiricaldispersion=gd3bj scf=xqc pop=npa geom=c
 heck
 ----------------------------------------------------------------------

 --------------------------------------
 CID_62119243_JID_9107_Energie_neutraal
 --------------------------------------
 Structure from the checkpoint file:  "JID_9107.chk"
 Charge =  0 Multiplicity = 1

 SCF Done:  E(RB3LYP) =  -930.391627289     A.U. after   15 cycles
 Normal termination of Gaussian 16 at Sun Dec 13 21:12:53 2020.

 ----------------------------------------------------------------------
 # B3LYP/6-311++G(d,p) empiricaldispersion=gd3bj scf=xqc pop=npa geom=c
 heck
 ----------------------------------------------------------------------

 ------------------------------------
 CID_62119243_JID_9107_Energie_kation
 ------------------------------------
 Structure from the checkpoint file:  "JID_9107.chk"
 Charge =  1 Multiplicity = 2

 SCF Done:  E(UB3LYP) =  -930.065022049     A.U. after   33 cycles
 SCF Done:  E(UB3LYP) =  -930.065022050     a.u. after    2 cycles
 Normal termination of Gaussian 16 at Sun Dec 13 22:10:49 2020.
 Gaussian 16:  ES64L-G16RevA.03 25-Dec-2016

 ----------------------------------------------------------------------
 # B3LYP/6-311++G(d,p) empiricaldispersion=gd3bj scf=xqc pop=npa geom=c
 heck
 ----------------------------------------------------------------------

 -----------------------------------
 CID_62119243_JID_9107_Energie_anion
 -----------------------------------
 Structure from the checkpoint file:  "JID_9107.chk"
 Charge = -1 Multiplicity = 2

                         Standard orientation:
 ---------------------------------------------------------------------
 Center     Atomic      Atomic             Coordinates (Angstroms)
 Number     Number       Type             X           Y           Z
 ---------------------------------------------------------------------
      1          6           0       -2.203791    2.778030   -0.313922
      2          6           0       -2.416693    1.759796   -1.438876
      3          6           0       -1.682249    0.415920   -1.292506
      4          6           0       -2.127310   -0.510738   -0.133069
      5          6           0       -3.658861   -0.719921   -0.160511
      6          6           0       -1.558782   -1.943466   -0.266045
      7          8           0       -1.345863   -2.689159    0.659617
      8          8           0       -1.391317   -2.326706   -1.558525
      9          7           0       -1.805866    0.004999    1.194965
     10          6           0       -0.734145    0.717334    1.690255
     11          8           0       -0.875901    1.435984    2.673407
     12          7           0        0.506239    0.644325    1.047315
     13          6           0        1.102110   -0.605859    0.542937
     14          6           0        2.545577   -0.387382    0.237913
     15          7           0        3.553049   -0.969608    0.851375
     16          7           0        4.720490   -0.499060    0.280142
     17          6           0        4.373312    0.353763   -0.653118
     18          7           0        3.011738    0.472153   -0.729843
     19          6           0        2.236535    1.291133   -1.648916
     20          1           0       -2.646552    2.459777    0.632908
     21          1           0       -2.649078    3.741804   -0.584499
     22          1           0       -1.136620    2.942308   -0.127799
     23          1           0       -3.489676    1.587668   -1.588484
     24          1           0       -2.061288    2.200787   -2.379672
     25          1           0       -1.810348   -0.148649   -2.219723
     26          1           0       -0.612575    0.616790   -1.192856
     27          1           0       -3.972835   -1.107827   -1.133030
     28          1           0       -3.954131   -1.434862    0.613837
     29          1           0       -4.172498    0.227908    0.020412
     30          1           0       -1.104177   -3.259344   -1.521665
     31          1           0       -2.593988    0.119881    1.816876
     32          1           0        1.158400    1.158469    1.631690
     33          1           0        1.027787   -1.430103    1.258647
     34          1           0        0.589515   -0.911493   -0.373583
     35          1           0        5.047865    0.909421   -1.289861
     36          1           0        1.714552    0.664671   -2.379502
     37          1           0        1.502515    1.877913   -1.092707
     38          1           0        2.914019    1.962595   -2.179508
 ---------------------------------------------------------------------

 SCF Done:  E(UB3LYP) =  -930.392188945     A.U. after   33 cycles
 SCF Done:  E(UB3LYP) =  -930.392188945     a.u. after    1 cycles

 The electronic state is 2-A.
 Alpha  occ. eigenvalues --  -19.09236 -19.03846 -19.00325 -14.30372 -14.25591
 Alpha  occ. eigenvalues --  -14.25488 -14.24152 -14.24049 -10.22799 -10.21828
 Alpha  occ. eigenvalues --  -10.16607 -10.15682 -10.15049 -10.14481 -10.13424
 Alpha  occ. eigenvalues --  -10.10231 -10.08962 -10.08518 -10.07144  -1.03419
 Alpha  occ. eigenvalues --   -0.98318  -0.97162  -0.94511  -0.85752  -0.84804
 Alpha  occ. eigenvalues --   -0.83765  -0.74027  -0.72835  -0.68464  -0.65557
 Alpha  occ. eigenvalues --   -0.63886  -0.62033  -0.58452  -0.55016  -0.54720
 Alpha  occ. eigenvalues --   -0.52157  -0.50389  -0.49484  -0.44985  -0.44539
 Alpha  occ. eigenvalues --   -0.42959  -0.42024  -0.40842  -0.40233  -0.39707
 Alpha  occ. eigenvalues --   -0.39002  -0.38606  -0.36610  -0.35732  -0.35334
 Alpha  occ. eigenvalues --   -0.34938  -0.34032  -0.33761  -0.33260  -0.32863
 Alpha  occ. eigenvalues --   -0.32267  -0.31975  -0.31605  -0.30654  -0.28240
 Alpha  occ. eigenvalues --   -0.26295  -0.25670  -0.25240  -0.24661  -0.23352
 Alpha  occ. eigenvalues --   -0.20975  -0.20463  -0.20257  -0.18608  -0.18086
 Alpha  occ. eigenvalues --   -0.18005  -0.17361   0.03114
 Alpha virt. eigenvalues --    0.05299   0.05773   0.06394   0.07032   0.07657
 Alpha virt. eigenvalues --    0.08266   0.08418   0.09224   0.09383   0.10016
 Alpha virt. eigenvalues --    0.10520   0.10673   0.10892   0.10996   0.11368

  Beta  occ. eigenvalues --  -19.09183 -19.03827 -19.00319 -14.30371 -14.25589
  Beta  occ. eigenvalues --  -14.25487 -14.24150 -14.24047 -10.22789 -10.21821
  Beta  occ. eigenvalues --  -10.16601 -10.15681 -10.15037 -10.14474 -10.13357
  Beta  occ. eigenvalues --  -10.10199 -10.08946 -10.08497 -10.07131  -1.03351
  Beta  occ. eigenvalues --   -0.98310  -0.97149  -0.94450  -0.85742  -0.84793
  Beta  occ. eigenvalues --   -0.83756  -0.74017  -0.72805  -0.68430  -0.65490
  Beta  occ. eigenvalues --   -0.63860  -0.61985  -0.58391  -0.54990  -0.54680
  Beta  occ. eigenvalues --   -0.52101  -0.50359  -0.49442  -0.44925  -0.44501
  Beta  occ. eigenvalues --   -0.42933  -0.41994  -0.40809  -0.40204  -0.39680
  Beta  occ. eigenvalues --   -0.38977  -0.38564  -0.36581  -0.35700  -0.35297
  Beta  occ. eigenvalues --   -0.34903  -0.33993  -0.33726  -0.33224  -0.32829
  Beta  occ. eigenvalues --   -0.32240  -0.31945  -0.31582  -0.30613  -0.28217
  Beta  occ. eigenvalues --   -0.26261  -0.25631  -0.25192  -0.24624  -0.23345
  Beta  occ. eigenvalues --   -0.20958  -0.20416  -0.20246  -0.18603  -0.18076
  Beta  occ. eigenvalues --   -0.17999  -0.17349
  Beta virt. eigenvalues --    0.05470   0.06247   0.06478   0.06736   0.07469
  Beta virt. eigenvalues --    0.07987   0.08415   0.08830   0.09535   0.09647
  Beta virt. eigenvalues --    0.10249   0.10584   0.10835   0.11049   0.11348

 Mulliken charges and spin densities:
               1          2
     1  C   -0.348562  -0.190073
     2  C   -0.648642   0.091413
     3  C    0.104529   0.015188
     4  C   -0.434509   0.884353
     5  C    0.253576  -1.122439
     6  C    0.210412  -0.683466
     7  O   -0.198159   0.040649
     8  O   -0.131341   0.085240
     9  N   -0.292851   0.074812
    10  C    0.108971   0.026419
    11  O   -0.293620   0.004911
    12  N   -0.287770  -0.020132
    13  C   -0.391725   0.044823
    14  C   -0.340293  -0.180435
    15  N    0.002026   0.057528
    16  N   -0.183389  -0.038294
    17  C    0.143431   0.025706
    18  N   -0.171649   0.181753
    19  C    0.823245  -1.252412
    20  H    0.135744   0.035399
    21  H   -0.068847   0.226031
    22  H    0.084778   0.073858
    23  H   -0.072702   0.204278
    24  H   -0.328664   0.509817
    25  H   -0.265699   0.513190
    26  H    2.412527  -2.233576
    27  H   -0.154082   0.339550
    28  H    0.113446   0.059038
    29  H    0.107779   0.067555
    30  H   -0.280131   0.581433
    31  H    0.320691   0.029018
    32  H    0.337244   0.012432
    33  H    0.246896   0.024455
    34  H    0.016614   0.201024
    35  H   -0.164742   0.356769
    36  H   -0.582018   0.812295
    37  H   -0.026413   0.210603
    38  H   -0.756102   0.931286
 Sum of Mulliken charges =  -1.00000   1.00000

 Dipole moment (field-independent basis, Debye):
    X=             -3.8306    Y=              0.7602    Z=              2.7601  Tot=              4.7822
 Quadrupole moment (field-independent basis, Debye-Ang):
   XX=           -181.9077   YY=           -168.0766   ZZ=           -173.6724
   XY=              3.7774   XZ=             -3.9831   YZ=              3.2361

 Summary of Natural Population Analysis:

                                       Natural Population
                Natural  -----------------------------------------------
    Atom  No    Charge         Core      Valence    Rydberg      Total
 -----------------------------------------------------------------------
      C    1   -0.28955      0.99966     2.28406    0.00583     3.28955
      C    2   -0.19059      0.99963     2.18257    0.00839     3.19059
      C    3   -0.20017      0.99958     2.18930    0.01129     3.20017
      C    4    0.02097      0.99952     1.96373    0.01578     2.97903
      C    5   -0.28550      0.99963     2.27901    0.00686     3.28550
      C    6    0.40683      0.99964     1.56565    0.02788     2.59317
      O    7   -0.30160      0.99986     3.29563    0.00611     4.30160
      O    8   -0.34461      0.99987     3.33717    0.00757     4.34461
      N    9   -0.32989      0.99964     2.82030    0.00994     3.82989
      C   10    0.41586      0.99969     1.56212    0.02232     2.58414
      O   11   -0.33395      0.99988     3.32931    0.00476     4.33395
      N   12   -0.33886      0.99968     2.83111    0.00807     3.83886
      C   13   -0.11417      0.99956     2.10456    0.01005     3.11417
      C   14    0.17767      0.99959     1.80504    0.01770     2.82233
      N   15   -0.15689      0.99968     2.64537    0.01184     3.65689
      N   16   -0.16199      0.99973     2.64897    0.01330     3.66199
      C   17    0.10021      0.99963     1.88323    0.01693     2.89979
      N   18   -0.20870      0.99961     2.69840    0.01069     3.70870
      C   19   -0.17794      0.99963     2.17033    0.00798     3.17794
      H   20    0.09914      0.00000     0.39997    0.00090     0.40086
      H   21    0.09790      0.00000     0.40141    0.00069     0.40210
      H   22    0.10002      0.00000     0.39872    0.00126     0.39998
      H   23    0.09312      0.00000     0.40572    0.00116     0.40688
      H   24    0.10212      0.00000     0.39662    0.00126     0.39788
      H   25    0.11485      0.00000     0.38263    0.00253     0.38515
      H   26    0.10271      0.00000     0.39355    0.00373     0.39729
      H   27    0.11290      0.00000     0.38611    0.00099     0.38710
      H   28    0.10618      0.00000     0.39296    0.00086     0.39382
      H   29    0.10603      0.00000     0.39307    0.00089     0.39397
      H   30    0.24598      0.00000     0.24371    0.01031     0.25402
      H   31    0.19685      0.00000     0.30126    0.00189     0.30315
      H   32    0.19533      0.00000     0.30268    0.00198     0.30467
      H   33    0.11514      0.00000     0.38327    0.00159     0.38486
      H   34    0.10265      0.00000     0.39461    0.00275     0.39735
      H   35    0.09951      0.00000     0.39900    0.00148     0.40049
      H   36    0.10674      0.00000     0.39061    0.00265     0.39326
      H   37    0.10788      0.00000     0.39011    0.00202     0.39212
      H   38    0.10783      0.00000     0.38942    0.00275     0.39217
 =======================================================================
   * Total *   -0.00000     18.99372    52.74129    0.26499    72.00000

 Normal termination of Gaussian 16 at Sun Dec 13 22:40:16 2020.
