 Gaussian 16, Revision A.03,

 -----------------------------------------------------------
 # opt freq B3LYP/6-31G(d) empiricaldispersion=gd3bj scf=xqc
 -----------------------------------------------------------

 ------------------------------
 CID_91286200_JID_5985_neutraal
 ------------------------------
 Symbolic Z-matrix:
 Charge =  0 Multiplicity = 1

 SCF Done:  E(RB3LYP) =  -728.521969764     A.U. after   15 cycles
 SCF Done:  E(RB3LYP) =  -728.525384722     A.U. after   14 cycles
 SCF Done:  E(RB3LYP) =  -728.526370118     A.U. after   15 cycles
 SCF Done:  E(RB3LYP) =  -728.528788161     A.U. after   14 cycles
 SCF Done:  E(RB3LYP) =  -728.532444522     A.U. after   13 cycles
 SCF Done:  E(RB3LYP) =  -728.532926670     A.U. after   12 cycles
 SCF Done:  E(RB3LYP) =  -728.533264657     A.U. after   12 cycles
 SCF Done:  E(RB3LYP) =  -728.533449699     A.U. after   12 cycles
 SCF Done:  E(RB3LYP) =  -728.534190793     A.U. after   12 cycles
 SCF Done:  E(RB3LYP) =  -728.534539239     A.U. after   12 cycles
 SCF Done:  E(RB3LYP) =  -728.535008233     A.U. after   10 cycles
 SCF Done:  E(RB3LYP) =  -728.535011907     A.U. after    9 cycles
 SCF Done:  E(RB3LYP) =  -728.535012408     A.U. after    8 cycles
 SCF Done:  E(RB3LYP) =  -728.535012484     A.U. after    7 cycles
 SCF Done:  E(RB3LYP) =  -728.535012515     A.U. after    7 cycles
 Optimization completed.
    -- Stationary point found.
 Normal termination of Gaussian 16 at Thu Dec 10 17:51:23 2020.

 --------------------------------------------------------------------
 #N Geom=AllCheck Guess=TCheck SCRF=Check GenChk RB3LYP/6-31G(d) Freq
 --------------------------------------------------------------------

 Structure from the checkpoint file:  "JID_5985.chk"
 ------------------------------
 CID_91286200_JID_5985_neutraal
 ------------------------------
 Charge =  0 Multiplicity = 1

 SCF Done:  E(RB3LYP) =  -728.535012515     A.U. after    1 cycles

  Exact polarizability: 137.976 -12.608 121.741  19.000  16.543 100.963
 Approx polarizability: 202.501 -23.348 186.790  40.901  38.161 167.880

                      1                      2                      3
                      A                      A                      A
 Frequencies --     29.9938                55.8999                64.1857
 Red. masses --      4.1420                 4.7786                 1.4177
 Frc consts  --      0.0022                 0.0088                 0.0034
 IR Inten    --      0.3956                 0.6039                 3.0609

                      4                      5                      6
                      A                      A                      A
 Frequencies --     93.8559               104.3092               110.5196
 Red. masses --      2.2606                 3.8893                 5.9239
 Frc consts  --      0.0117                 0.0249                 0.0426
 IR Inten    --      3.7456                 0.1317                 0.2914

                      7                      8                      9
                      A                      A                      A
 Frequencies --    167.3468               183.2339               204.0163
 Red. masses --      3.6507                 4.9871                 2.0158
 Frc consts  --      0.0602                 0.0987                 0.0494
 IR Inten    --      0.7290                 0.9563                 1.9084

                     10                     11                     12
                      A                      A                      A
 Frequencies --    218.5889               240.6510               325.8787
 Red. masses --      1.8449                 3.7554                 3.8050
 Frc consts  --      0.0519                 0.1281                 0.2381
 IR Inten    --      1.4136                 7.8677                 2.1799

                     13                     14                     15
                      A                      A                      A
 Frequencies --    334.8173               357.5166               361.7922
 Red. masses --      3.0052                 1.3794                 2.1342
 Frc consts  --      0.1985                 0.1039                 0.1646
 IR Inten    --      3.6940                74.9899                40.8188

                     16                     17                     18
                      A                      A                      A
 Frequencies --    408.5921               422.0615               431.8068
 Red. masses --      4.3829                 3.1939                 3.1726
 Frc consts  --      0.4311                 0.3352                 0.3485
 IR Inten    --      1.0589                 4.5839                 4.8377

                     19                     20                     21
                      A                      A                      A
 Frequencies --    473.4669               490.8516               538.1539
 Red. masses --      4.2894                 4.2226                 2.7996
 Frc consts  --      0.5665                 0.5994                 0.4777
 IR Inten    --     16.7265                 7.2064                13.2657

                     22                     23                     24
                      A                      A                      A
 Frequencies --    590.2572               640.8770               660.4391
 Red. masses --      2.9460                 4.0458                 6.6641
 Frc consts  --      0.6047                 0.9791                 1.7126
 IR Inten    --      9.0840                 9.0909                 1.3017

                     25                     26                     27
                      A                      A                      A
 Frequencies --    709.5481               726.8187               770.9874
 Red. masses --      4.5530                 4.5927                 5.0732
 Frc consts  --      1.3506                 1.4295                 1.7768
 IR Inten    --      3.2664                 3.0500                22.9518

                     28                     29                     30
                      A                      A                      A
 Frequencies --    807.5569               823.5517               849.4852
 Red. masses --      1.7657                 1.6304                 4.3080
 Frc consts  --      0.6784                 0.6515                 1.8316
 IR Inten    --     30.1291                13.9084                 8.9966

                     31                     32                     33
                      A                      A                      A
 Frequencies --    858.9553               880.6434               937.1639
 Red. masses --      2.2783                 3.6441                 1.3284
 Frc consts  --      0.9904                 1.6651                 0.6874
 IR Inten    --     19.3389                14.2417                 1.8604

                     34                     35                     36
                      A                      A                      A
 Frequencies --    954.0413               974.3332               985.5838
 Red. masses --      1.3633                 3.1682                 2.7923
 Frc consts  --      0.7311                 1.7721                 1.5981
 IR Inten    --      8.3069                84.7799                 5.4197

                     37                     38                     39
                      A                      A                      A
 Frequencies --   1034.7716              1038.3791              1055.8053
 Red. masses --      2.1961                 2.2704                 3.5273
 Frc consts  --      1.3854                 1.4423                 2.3166
 IR Inten    --      4.5277                12.1081               162.6612

                     40                     41                     42
                      A                      A                      A
 Frequencies --   1074.0552              1137.0674              1168.4102
 Red. masses --      1.7859                 1.4512                 2.1096
 Frc consts  --      1.2138                 1.1055                 1.6969
 IR Inten    --     26.9581                 8.6225                97.6615

                     43                     44                     45
                      A                      A                      A
 Frequencies --   1187.0417              1209.6632              1212.9040
 Red. masses --      1.2593                 1.2378                 1.3152
 Frc consts  --      1.0455                 1.0672                 1.1399
 IR Inten    --      0.7934                73.0320                88.3375

                     46                     47                     48
                      A                      A                      A
 Frequencies --   1227.3772              1235.1802              1257.0190
 Red. masses --      2.1385                 1.4306                 2.2439
 Frc consts  --      1.8981                 1.2860                 2.0890
 IR Inten    --     96.6536                 1.8486               130.2859

                     49                     50                     51
                      A                      A                      A
 Frequencies --   1294.2196              1314.5009              1357.0832
 Red. masses --      2.8028                 3.7233                 1.6581
 Frc consts  --      2.7661                 3.7905                 1.7991
 IR Inten    --    115.6322                97.3569                10.2209

                     52                     53                     54
                      A                      A                      A
 Frequencies --   1372.9706              1388.2228              1413.5357
 Red. masses --      1.3182                 2.7144                 1.2677
 Frc consts  --      1.4641                 3.0821                 1.4924
 IR Inten    --     11.6069                28.1712                15.4465

                     55                     56                     57
                      A                      A                      A
 Frequencies --   1422.7045              1462.6923              1491.0644
 Red. masses --      1.3826                 1.1787                 2.4558
 Frc consts  --      1.6488                 1.4859                 3.2168
 IR Inten    --     51.7377                 8.2469                24.6042

                     58                     59                     60
                      A                      A                      A
 Frequencies --   1498.1939              1500.7058              1506.7892
 Red. masses --      1.2003                 1.0594                 1.0602
 Frc consts  --      1.5874                 1.4057                 1.4183
 IR Inten    --      8.1437                14.3738                 0.5516

                     61                     62                     63
                      A                      A                      A
 Frequencies --   1507.3595              1527.3471              1546.1769
 Red. masses --      1.0746                 1.0691                 1.0513
 Frc consts  --      1.4385                 1.4694                 1.4808
 IR Inten    --     10.9335                 7.7256                12.0368

                     64                     65                     66
                      A                      A                      A
 Frequencies --   1572.3079              1653.5312              1683.4145
 Red. masses --      2.6906                 5.8564                 5.9782
 Frc consts  --      3.9190                 9.4343                 9.9816
 IR Inten    --     83.3818                23.7449                43.4345

                     67                     68                     69
                      A                      A                      A
 Frequencies --   1834.8848              3035.1857              3059.8212
 Red. masses --     10.8947                 1.0470                 1.0636
 Frc consts  --     21.6114                 5.6831                 5.8669
 IR Inten    --    199.7981                57.8363                15.4499

                     70                     71                     72
                      A                      A                      A
 Frequencies --   3071.9676              3098.2566              3105.2932
 Red. masses --      1.0379                 1.0899                 1.0980
 Frc consts  --      5.7709                 6.1642                 6.2382
 IR Inten    --      2.9987                42.5688                32.2129

                     73                     74                     75
                      A                      A                      A
 Frequencies --   3130.1915              3140.4832              3168.9622
 Red. masses --      1.0885                 1.0978                 1.0888
 Frc consts  --      6.2840                 6.3792                 6.4420
 IR Inten    --     39.1361                10.4561                21.9834

                     76                     77                     78
                      A                      A                      A
 Frequencies --   3180.5347              3188.5242              3189.1086
 Red. masses --      1.1047                 1.0936                 1.0985
 Frc consts  --      6.5843                 6.5505                 6.5827
 IR Inten    --      6.9461                 4.4081                11.4100

                     79                     80                     81
                      A                      A                      A
 Frequencies --   3202.7132              3216.4300              3751.9551
 Red. masses --      1.0922                 1.0935                 1.0659
 Frc consts  --      6.6005                 6.6654                 8.8406
 IR Inten    --     16.5413                 6.1859                44.7634

 - Thermochemistry -
 -------------------
 Temperature   298.150 Kelvin.  Pressure   1.00000 Atm.
 Atom     1 has atomic number  6 and mass  12.00000

 Molecular mass:   210.08921 amu.
 Principal axes and moments of inertia in atomic units:
                           1         2         3
     Eigenvalues --  1923.633944006.994784713.55468
           X            0.99996  -0.00725   0.00468
           Y            0.00708   0.99935   0.03530
           Z           -0.00493  -0.03526   0.99937
 This molecule is an asymmetric top.
 Rotational symmetry number  1.
 Warning -- assumption of classical behavior for rotation
           may cause significant error
 Rotational temperatures (Kelvin)      0.04503     0.02162     0.01838
 Rotational constants (GHZ):           0.93819     0.45040     0.38288
 Zero-point vibrational energy     625124.1 (Joules/Mol)
                                  149.40824 (Kcal/Mol)
 Warning -- explicit consideration of  22 degrees of freedom as
           vibrations may cause significant error
 Vibrational temperatures:     43.15    80.43    92.35   135.04   150.08
          (Kelvin)            159.01   240.77   263.63   293.53   314.50
                              346.24   468.87   481.73   514.39   520.54
                              587.87   607.25   621.27   681.21   706.23
                              774.28   849.25   922.08   950.22  1020.88
                             1045.73  1109.28  1161.89  1184.91  1222.22
                             1235.85  1267.05  1348.37  1372.65  1401.85
                             1418.04  1488.81  1494.00  1519.07  1545.33
                             1635.99  1681.08  1707.89  1740.44  1745.10
                             1765.92  1777.15  1808.57  1862.09  1891.27
                             1952.54  1975.40  1997.34  2033.76  2046.95
                             2104.49  2145.31  2155.57  2159.18  2167.93
                             2168.75  2197.51  2224.60  2262.20  2379.06
                             2422.06  2639.99  4366.96  4402.40  4419.88
                             4457.70  4467.82  4503.65  4518.45  4559.43
                             4576.08  4587.58  4588.42  4607.99  4627.73
                             5398.23

 Zero-point correction=                           0.238097 (Hartree/Particle)
 Thermal correction to Energy=                    0.253022
 Thermal correction to Enthalpy=                  0.253966
 Thermal correction to Gibbs Free Energy=         0.195471
 Sum of electronic and zero-point Energies=           -728.296915
 Sum of electronic and thermal Energies=              -728.281991
 Sum of electronic and thermal Enthalpies=            -728.281046
 Sum of electronic and thermal Free Energies=         -728.339541

                     E (Thermal)             CV                S
                      KCal/Mol        Cal/Mol-Kelvin    Cal/Mol-Kelvin
 Total                  158.774             55.569            123.113
 Electronic               0.000              0.000              0.000
 Translational            0.889              2.981             41.931
 Rotational               0.889              2.981             31.963
 Vibrational            156.996             49.607             49.219
 Vibration     1          0.594              1.984              5.830
 Vibration     2          0.596              1.975              4.597
 Vibration     3          0.597              1.971              4.324
 Vibration     4          0.603              1.954              3.578
 Vibration     5          0.605              1.946              3.372
 Vibration     6          0.606              1.941              3.260
 Vibration     7          0.624              1.883              2.465
 Vibration     8          0.631              1.863              2.295
 Vibration     9          0.640              1.834              2.097
 Vibration    10          0.646              1.813              1.971
 Vibration    11          0.658              1.778              1.798
 Vibration    12          0.710              1.624              1.280
 Vibration    13          0.716              1.606              1.237
 Vibration    14          0.733              1.560              1.133
 Vibration    15          0.736              1.551              1.114
 Vibration    16          0.773              1.452              0.932
 Vibration    17          0.784              1.422              0.885
 Vibration    18          0.793              1.401              0.853
 Vibration    19          0.830              1.309              0.728
 Vibration    20          0.847              1.270              0.681
 Vibration    21          0.893              1.166              0.569
 Vibration    22          0.948              1.053              0.467

 Optimization completed.
    -- Stationary point found.
 Normal termination of Gaussian 16 at Thu Dec 10 18:02:21 2020.

 ----------------------------------------------------------------------
 # B3LYP/6-311++G(d,p) empiricaldispersion=gd3bj scf=xqc pop=npa geom=c
 heck
 ----------------------------------------------------------------------

 --------------------------------------
 CID_91286200_JID_5985_Energie_neutraal
 --------------------------------------
 Structure from the checkpoint file:  "JID_5985.chk"
 Charge =  0 Multiplicity = 1

 SCF Done:  E(RB3LYP) =  -728.751714533     A.U. after   15 cycles
 Normal termination of Gaussian 16 at Thu Dec 10 18:06:58 2020.

 ----------------------------------------------------------------------
 # B3LYP/6-311++G(d,p) empiricaldispersion=gd3bj scf=xqc pop=npa geom=c
 heck
 ----------------------------------------------------------------------

 ------------------------------------
 CID_91286200_JID_5985_Energie_kation
 ------------------------------------
 Structure from the checkpoint file:  "JID_5985.chk"
 Charge =  1 Multiplicity = 2

 SCF Done:  E(UB3LYP) =  -728.453741673     A.U. after   23 cycles
 Normal termination of Gaussian 16 at Thu Dec 10 18:17:13 2020.
 Gaussian 16:  ES64L-G16RevA.03 25-Dec-2016

 ----------------------------------------------------------------------
 # B3LYP/6-311++G(d,p) empiricaldispersion=gd3bj scf=xqc pop=npa geom=c
 heck
 ----------------------------------------------------------------------

 -----------------------------------
 CID_91286200_JID_5985_Energie_anion
 -----------------------------------
 Structure from the checkpoint file:  "JID_5985.chk"
 Charge = -1 Multiplicity = 2

                         Standard orientation:
 ---------------------------------------------------------------------
 Center     Atomic      Atomic             Coordinates (Angstroms)
 Number     Number       Type             X           Y           Z
 ---------------------------------------------------------------------
      1          6           0        0.967358    2.990882   -0.367092
      2          6           0        1.245999    1.513878   -0.529234
      3          8           0        0.930281    0.866041   -1.500835
      4          8           0        1.876945    1.046040    0.572991
      5          6           0        2.204982   -0.364204    0.777086
      6          6           0        0.995176   -1.097471    1.410831
      7          6           0       -0.379783   -0.779959    0.871599
      8          6           0       -1.037811   -1.607632   -0.040512
      9          6           0       -2.296302   -1.278831   -0.540284
     10          6           0       -2.923991   -0.101074   -0.127890
     11          6           0       -2.293938    0.729177    0.803935
     12          6           0       -1.041619    0.381426    1.296562
     13          8           0       -4.153791    0.282722   -0.585785
     14          8           0        2.845044   -0.958758   -0.296549
     15          6           0        2.127992   -1.793197   -1.204261
     16          1           0        0.714509    3.419696   -1.337568
     17          1           0        1.823814    3.508669    0.072073
     18          1           0        0.114086    3.115065    0.309072
     19          1           0        2.980874   -0.275017    1.541129
     20          1           0        1.199604   -2.172633    1.364607
     21          1           0        1.018317   -0.828501    2.472850
     22          1           0       -0.563836   -2.525739   -0.374321
     23          1           0       -2.788951   -1.937552   -1.252889
     24          1           0       -2.801253    1.630204    1.133119
     25          1           0       -0.559893    1.028646    2.024463
     26          1           0       -4.463467   -0.368838   -1.233671
     27          1           0        1.803448   -2.721387   -0.715372
     28          1           0        1.278220   -1.270581   -1.641679
     29          1           0        2.848316   -2.048354   -1.984816
 ---------------------------------------------------------------------

 SCF Done:  E(UB3LYP) =  -728.739694027     A.U. after   33 cycles
 SCF Done:  E(UB3LYP) =  -728.739694027     a.u. after    1 cycles

 The electronic state is 2-A.
 Alpha  occ. eigenvalues --  -19.06768 -19.05142 -19.04423 -19.01432 -10.21121
 Alpha  occ. eigenvalues --  -10.19110 -10.13488 -10.11205 -10.08784 -10.08632
 Alpha  occ. eigenvalues --  -10.07906 -10.07598 -10.07588 -10.07212 -10.07200
 Alpha  occ. eigenvalues --   -1.01298  -0.96196  -0.95632  -0.92111  -0.75967
 Alpha  occ. eigenvalues --   -0.69777  -0.66508  -0.65240  -0.63696  -0.59852
 Alpha  occ. eigenvalues --   -0.55144  -0.52591  -0.49962  -0.45429  -0.44722
 Alpha  occ. eigenvalues --   -0.42656  -0.40663  -0.39727  -0.38462  -0.37272
 Alpha  occ. eigenvalues --   -0.36472  -0.35508  -0.35374  -0.34017  -0.32567
 Alpha  occ. eigenvalues --   -0.32072  -0.31642  -0.31047  -0.30082  -0.29272
 Alpha  occ. eigenvalues --   -0.28221  -0.26902  -0.26045  -0.24307  -0.24129
 Alpha  occ. eigenvalues --   -0.23565  -0.20427  -0.19029  -0.18094  -0.15807
 Alpha  occ. eigenvalues --   -0.12341   0.04257
 Alpha virt. eigenvalues --    0.05862   0.06771   0.07539   0.07911   0.08315
 Alpha virt. eigenvalues --    0.09152   0.09383   0.09591   0.10165   0.10619
 Alpha virt. eigenvalues --    0.10902   0.12015   0.12189   0.12695   0.13713

  Beta  occ. eigenvalues --  -19.06765 -19.05095 -19.04421 -19.01427 -10.21116
  Beta  occ. eigenvalues --  -10.19098 -10.13481 -10.11187 -10.08770 -10.08609
  Beta  occ. eigenvalues --  -10.07898 -10.07586 -10.07572 -10.07203 -10.07170
  Beta  occ. eigenvalues --   -1.01289  -0.96109  -0.95623  -0.92104  -0.75934
  Beta  occ. eigenvalues --   -0.69739  -0.66476  -0.65203  -0.63663  -0.59802
  Beta  occ. eigenvalues --   -0.55111  -0.52529  -0.49908  -0.45398  -0.44637
  Beta  occ. eigenvalues --   -0.42618  -0.40633  -0.39695  -0.38437  -0.37232
  Beta  occ. eigenvalues --   -0.36449  -0.35471  -0.35339  -0.33970  -0.32521
  Beta  occ. eigenvalues --   -0.32056  -0.31612  -0.31000  -0.30043  -0.29251
  Beta  occ. eigenvalues --   -0.28180  -0.26877  -0.26003  -0.24273  -0.24096
  Beta  occ. eigenvalues --   -0.23536  -0.20404  -0.19015  -0.18084  -0.15777
  Beta  occ. eigenvalues --   -0.12288
  Beta virt. eigenvalues --    0.06418   0.07281   0.07584   0.07831   0.08204
  Beta virt. eigenvalues --    0.08679   0.09460   0.09566   0.10114   0.10359
  Beta virt. eigenvalues --    0.10847   0.11359   0.12153   0.12646   0.12964

 Mulliken charges and spin densities:
               1          2
     1  C    0.106852  -0.713421
     2  C   -0.238320   0.256800
     3  O   -0.167083   0.000834
     4  O   -0.001799   0.004027
     5  C   -0.038105  -0.051090
     6  C    2.835607  -3.657740
     7  C   -0.962495   1.838417
     8  C   -0.615416   0.360624
     9  C   -0.277508   0.227830
    10  C    2.068014  -2.557196
    11  C    0.470766  -0.637676
    12  C   -1.421140   1.286821
    13  O   -0.286840   0.054673
    14  O   -0.125581   0.024289
    15  C    0.171485  -0.495992
    16  H    0.111199   0.053005
    17  H   -0.003965   0.169359
    18  H    0.045292   0.106080
    19  H   -0.454242   0.662472
    20  H   -0.271055   0.465768
    21  H   -0.118063   0.304410
    22  H    0.022775   0.113285
    23  H   -1.349166   1.531167
    24  H   -0.033472   0.224436
    25  H   -0.317029   0.523428
    26  H   -0.187890   0.464069
    27  H   -0.217938   0.355432
    28  H    0.190877   0.006421
    29  H    0.064240   0.079467
 Sum of Mulliken charges =  -1.00000   1.00000

 Dipole moment (field-independent basis, Debye):
    X=              4.2048    Y=              3.6182    Z=              0.4288  Tot=              5.5637
 Quadrupole moment (field-independent basis, Debye-Ang):
   XX=           -161.8211   YY=           -126.1183   ZZ=           -128.9818
   XY=             -5.4183   XZ=            -15.6518   YZ=             -3.1446

 Summary of Natural Population Analysis:

                                       Natural Population
                Natural  -----------------------------------------------
    Atom  No    Charge         Core      Valence    Rydberg      Total
 -----------------------------------------------------------------------
      C    1   -0.33011      0.99961     2.32606    0.00443     3.33011
      C    2    0.41207      0.99971     1.56381    0.02441     2.58793
      O    3   -0.30329      0.99986     3.29739    0.00604     4.30329
      O    4   -0.29861      0.99986     3.28887    0.00989     4.29861
      C    5    0.22952      0.99954     1.75074    0.02020     2.77048
      C    6   -0.22064      0.99957     2.21087    0.01020     3.22064
      C    7   -0.03900      0.99949     2.02745    0.01206     3.03900
      C    8   -0.08340      0.99951     2.07369    0.01021     3.08340
      C    9   -0.13192      0.99951     2.12153    0.01087     3.13192
      C   10    0.16069      0.99939     1.82643    0.01350     2.83931
      C   11   -0.12469      0.99951     2.11579    0.00938     3.12469
      C   12   -0.09260      0.99952     2.08309    0.01000     3.09260
      O   13   -0.34070      0.99988     3.33395    0.00687     4.34070
      O   14   -0.29414      0.99987     3.28516    0.00911     4.29414
      C   15   -0.10586      0.99958     2.09711    0.00917     3.10586
      H   16    0.10775      0.00000     0.39132    0.00093     0.39225
      H   17    0.10845      0.00000     0.39040    0.00115     0.39155
      H   18    0.11553      0.00000     0.38330    0.00116     0.38447
      H   19    0.08809      0.00000     0.40990    0.00201     0.41191
      H   20    0.11074      0.00000     0.38777    0.00149     0.38926
      H   21    0.11141      0.00000     0.38682    0.00176     0.38859
      H   22    0.10054      0.00000     0.39753    0.00193     0.39946
      H   23    0.10499      0.00000     0.39137    0.00364     0.39501
      H   24    0.10397      0.00000     0.39482    0.00120     0.39603
      H   25    0.10136      0.00000     0.39698    0.00166     0.39864
      H   26    0.23941      0.00000     0.25149    0.00910     0.26059
      H   27    0.07826      0.00000     0.42038    0.00136     0.42174
      H   28    0.10378      0.00000     0.39473    0.00149     0.39622
      H   29    0.08839      0.00000     0.41074    0.00087     0.41161
 =======================================================================
   * Total *   -0.00000     14.99440    40.80948    0.19612    56.00000

 Normal termination of Gaussian 16 at Thu Dec 10 18:31:43 2020.
