 Gaussian 16, Revision A.03,

 -----------------------------------------------------------
 # opt freq B3LYP/6-31G(d) empiricaldispersion=gd3bj scf=xqc
 -----------------------------------------------------------

 -------------------------------
 CID_102606722_JID_4305_neutraal
 -------------------------------
 Symbolic Z-matrix:
 Charge =  0 Multiplicity = 1

 SCF Done:  E(RB3LYP) =  -700.178625047     A.U. after   15 cycles
 SCF Done:  E(RB3LYP) =  -700.184667866     A.U. after   13 cycles
 SCF Done:  E(RB3LYP) =  -700.183815269     A.U. after   13 cycles
 SCF Done:  E(RB3LYP) =  -700.187319843     A.U. after   13 cycles
 SCF Done:  E(RB3LYP) =  -700.187995174     A.U. after   13 cycles
 SCF Done:  E(RB3LYP) =  -700.188407896     A.U. after   13 cycles
 SCF Done:  E(RB3LYP) =  -700.188644587     A.U. after   12 cycles
 SCF Done:  E(RB3LYP) =  -700.188696692     A.U. after   12 cycles
 SCF Done:  E(RB3LYP) =  -700.188743444     A.U. after   11 cycles
 SCF Done:  E(RB3LYP) =  -700.188755562     A.U. after   10 cycles
 SCF Done:  E(RB3LYP) =  -700.188757159     A.U. after    8 cycles
 SCF Done:  E(RB3LYP) =  -700.188757465     A.U. after    8 cycles
 SCF Done:  E(RB3LYP) =  -700.188757589     A.U. after    7 cycles
 SCF Done:  E(RB3LYP) =  -700.188757688     A.U. after    8 cycles
 Optimization completed.
    -- Stationary point found.
 Normal termination of Gaussian 16 at Thu Dec 10 09:22:05 2020.

 --------------------------------------------------------------------
 #N Geom=AllCheck Guess=TCheck SCRF=Check GenChk RB3LYP/6-31G(d) Freq
 --------------------------------------------------------------------

 Structure from the checkpoint file:  "JID_4305.chk"
 -------------------------------
 CID_102606722_JID_4305_neutraal
 -------------------------------
 Charge =  0 Multiplicity = 1

 SCF Done:  E(RB3LYP) =  -700.188757688     A.U. after    1 cycles

  Exact polarizability: 155.068   8.686 112.950  -0.628  -0.331  63.466
 Approx polarizability: 218.521   4.881 205.854  -2.005  -0.170  92.721

                      1                      2                      3
                      A                      A                      A
 Frequencies --     30.0585                41.1103                67.7598
 Red. masses --      4.6437                 6.7144                 6.7172
 Frc consts  --      0.0025                 0.0067                 0.0182
 IR Inten    --      2.2312                 0.1185                 2.6095

                      4                      5                      6
                      A                      A                      A
 Frequencies --    106.7720               147.8298               152.4498
 Red. masses --      6.8232                 4.6364                 4.3231
 Frc consts  --      0.0458                 0.0597                 0.0592
 IR Inten    --      0.7803                 2.4519                 4.1233

                      7                      8                      9
                      A                      A                      A
 Frequencies --    248.1349               255.3793               282.9822
 Red. masses --      4.1133                 4.3364                 1.2602
 Frc consts  --      0.1492                 0.1666                 0.0595
 IR Inten    --      9.1104                11.4118               204.9988

                     10                     11                     12
                      A                      A                      A
 Frequencies --    331.9560               387.7570               392.2809
 Red. masses --      5.9853                 4.5527                 3.9231
 Frc consts  --      0.3886                 0.4033                 0.3557
 IR Inten    --     19.7446                15.7430                 5.8746

                     13                     14                     15
                      A                      A                      A
 Frequencies --    462.5155               487.4927               513.4730
 Red. masses --      5.8543                 2.9658                 3.9784
 Frc consts  --      0.7379                 0.4153                 0.6180
 IR Inten    --     37.2017                 4.7971                 7.1552

                     16                     17                     18
                      A                      A                      A
 Frequencies --    555.1272               586.7411               595.6851
 Red. masses --      2.0419                 1.5899                 6.3256
 Frc consts  --      0.3707                 0.3225                 1.3225
 IR Inten    --      1.0147                 4.7775                 1.7825

                     19                     20                     21
                      A                      A                      A
 Frequencies --    661.1506               721.3929               732.2915
 Red. masses --      4.5575                 6.4671                 7.3041
 Frc consts  --      1.1738                 1.9829                 2.3077
 IR Inten    --      0.5999                 0.6537                 4.8961

                     22                     23                     24
                      A                      A                      A
 Frequencies --    808.1003               827.5683               872.2315
 Red. masses --     10.0243                 6.7631                 1.2645
 Frc consts  --      3.8569                 2.7290                 0.5668
 IR Inten    --     11.7239                23.2656                 8.3292

                     25                     26                     27
                      A                      A                      A
 Frequencies --    889.4459               912.7630               922.0789
 Red. masses --      3.3796                 1.2063                 6.2023
 Frc consts  --      1.5753                 0.5921                 3.1070
 IR Inten    --     25.8519                 0.0354                 4.3593

                     28                     29                     30
                      A                      A                      A
 Frequencies --    977.0334               978.7136              1032.5937
 Red. masses --      1.4319                 4.9194                10.4694
 Frc consts  --      0.8054                 2.7763                 6.5770
 IR Inten    --      0.1301                 2.9251                92.3983

                     31                     32                     33
                      A                      A                      A
 Frequencies --   1035.8369              1059.5429              1097.5356
 Red. masses --      2.5793                 3.2325                 3.1219
 Frc consts  --      1.6305                 2.1381                 2.2157
 IR Inten    --      0.9431                 0.2824                89.3950

                     34                     35                     36
                      A                      A                      A
 Frequencies --   1119.1495              1148.6763              1163.1875
 Red. masses --      2.0835                 2.3272                 1.0894
 Frc consts  --      1.5375                 1.8092                 0.8684
 IR Inten    --     55.8775                61.2983                 4.9704

                     37                     38                     39
                      A                      A                      A
 Frequencies --   1163.5879              1204.6066              1219.3009
 Red. masses --      2.4075                 1.6926                 3.1311
 Frc consts  --      1.9205                 1.4471                 2.7426
 IR Inten    --    250.2166               223.0300               103.3401

                     40                     41                     42
                      A                      A                      A
 Frequencies --   1272.5817              1294.9798              1322.0832
 Red. masses --      3.0196                 1.3195                 1.3098
 Frc consts  --      2.8812                 1.3038                 1.3489
 IR Inten    --     74.6455                 0.6177                 1.9544

                     43                     44                     45
                      A                      A                      A
 Frequencies --   1328.4125              1376.3731              1382.4010
 Red. masses --      4.1538                 1.5968                 1.5322
 Frc consts  --      4.3188                 1.7822                 1.7252
 IR Inten    --     21.7482                 3.2436                17.0759

                     46                     47                     48
                      A                      A                      A
 Frequencies --   1439.7739              1470.4539              1515.4193
 Red. masses --      1.3120                 2.6079                 2.6647
 Frc consts  --      1.6025                 3.3224                 3.6055
 IR Inten    --      2.7610                60.7821               123.9731

                     49                     50                     51
                      A                      A                      A
 Frequencies --   1530.3338              1557.6840              1587.8016
 Red. masses --      1.0819                 1.1221                 5.0479
 Frc consts  --      1.4929                 1.6041                 7.4981
 IR Inten    --      0.3791                24.4687                42.9205

                     52                     53                     54
                      A                      A                      A
 Frequencies --   1615.8166              1658.1169              1819.1495
 Red. masses --      3.1170                 2.0904                11.9601
 Frc consts  --      4.7949                 3.3862                23.3197
 IR Inten    --     18.7288               335.9360               249.1493

                     55                     56                     57
                      A                      A                      A
 Frequencies --   3061.3883              3068.0424              3122.5974
 Red. masses --      1.0587                 1.0663                 1.0933
 Frc consts  --      5.8459                 5.9134                 6.2809
 IR Inten    --    101.2751                19.8561                 3.3623

                     58                     59                     60
                      A                      A                      A
 Frequencies --   3132.0072              3142.2310              3174.6857
 Red. masses --      1.1054                 1.1001                 1.0890
 Frc consts  --      6.3889                 6.3995                 6.4668
 IR Inten    --      0.2288                68.1436                15.7051

                     61                     62                     63
                      A                      A                      A
 Frequencies --   3201.9923              3602.9810              3735.3141
 Red. masses --      1.0952                 1.0444                 1.1048
 Frc consts  --      6.6158                 7.9879                 9.0824
 IR Inten    --     34.7289                72.6739               108.8646

 - Thermochemistry -
 -------------------
 Temperature   298.150 Kelvin.  Pressure   1.00000 Atm.
 Atom     1 has atomic number  6 and mass  12.00000

 Molecular mass:   195.06439 amu.
 Principal axes and moments of inertia in atomic units:
                           1         2         3
     Eigenvalues --   953.286894726.319005412.26253
           X            0.99997   0.00770   0.00002
           Y           -0.00770   0.99997  -0.00040
           Z           -0.00003   0.00040   1.00000
 This molecule is an asymmetric top.
 Rotational symmetry number  1.
 Warning -- assumption of classical behavior for rotation
           may cause significant error
 Rotational temperatures (Kelvin)      0.09086     0.01833     0.01600
 Rotational constants (GHZ):           1.89318     0.38185     0.33345
 Zero-point vibrational energy     464180.5 (Joules/Mol)
                                  110.94179 (Kcal/Mol)
 Warning -- explicit consideration of  18 degrees of freedom as
           vibrations may cause significant error
 Vibrational temperatures:     43.25    59.15    97.49   153.62   212.69
          (Kelvin)            219.34   357.01   367.43   407.15   477.61
                              557.90   564.40   665.46   701.39   738.77
                              798.70   844.19   857.06   951.25  1037.92
                             1053.60  1162.68  1190.69  1254.95  1279.71
                             1313.26  1326.67  1405.73  1408.15  1485.67
                             1490.34  1524.45  1579.11  1610.21  1652.69
                             1673.57  1674.14  1733.16  1754.30  1830.96
                             1863.19  1902.18  1911.29  1980.29  1988.97
                             2071.51  2115.66  2180.35  2201.81  2241.16
                             2284.49  2324.80  2385.66  2617.35  4404.65
                             4414.23  4492.72  4506.26  4520.97  4567.66
                             4606.95  5183.89  5374.28

 Zero-point correction=                           0.176797 (Hartree/Particle)
 Thermal correction to Energy=                    0.188921
 Thermal correction to Enthalpy=                  0.189865
 Thermal correction to Gibbs Free Energy=         0.136742
 Sum of electronic and zero-point Energies=           -700.011961
 Sum of electronic and thermal Energies=              -699.999837
 Sum of electronic and thermal Enthalpies=            -699.998892
 Sum of electronic and thermal Free Energies=         -700.052016

                     E (Thermal)             CV                S
                      KCal/Mol        Cal/Mol-Kelvin    Cal/Mol-Kelvin
 Total                  118.550             45.041            111.808
 Electronic               0.000              0.000              0.000
 Translational            0.889              2.981             41.710
 Rotational               0.889              2.981             31.567
 Vibrational            116.772             39.080             38.531
 Vibration     1          0.594              1.984              5.826
 Vibration     2          0.594              1.981              5.205
 Vibration     3          0.598              1.970              4.217
 Vibration     4          0.606              1.944              3.327
 Vibration     5          0.617              1.905              2.700
 Vibration     6          0.619              1.900              2.641
 Vibration     7          0.662              1.766              1.744
 Vibration     8          0.666              1.754              1.693
 Vibration     9          0.682              1.705              1.516
 Vibration    10          0.714              1.612              1.251
 Vibration    11          0.756              1.496              1.009
 Vibration    12          0.760              1.487              0.991
 Vibration    13          0.820              1.333              0.759
 Vibration    14          0.843              1.278              0.690
 Vibration    15          0.869              1.220              0.625
 Vibration    16          0.911              1.128              0.534
 Vibration    17          0.944              1.060              0.473
 Vibration    18          0.953              1.041              0.457

                           ! Non-Optimized Parameters !
 Normal termination of Gaussian 16 at Thu Dec 10 09:27:58 2020.

 ----------------------------------------------------------------------
 # B3LYP/6-311++G(d,p) empiricaldispersion=gd3bj scf=xqc pop=npa geom=c
 heck
 ----------------------------------------------------------------------

 ---------------------------------------
 CID_102606722_JID_4305_Energie_neutraal
 ---------------------------------------
 Structure from the checkpoint file:  "JID_4305.chk"
 Charge =  0 Multiplicity = 1

 SCF Done:  E(RB3LYP) =  -700.391553189     A.U. after   16 cycles
 Normal termination of Gaussian 16 at Thu Dec 10 09:30:39 2020.

 ----------------------------------------------------------------------
 # B3LYP/6-311++G(d,p) empiricaldispersion=gd3bj scf=xqc pop=npa geom=c
 heck
 ----------------------------------------------------------------------

 -------------------------------------
 CID_102606722_JID_4305_Energie_kation
 -------------------------------------
 Structure from the checkpoint file:  "JID_4305.chk"
 Charge =  1 Multiplicity = 2

 SCF Done:  E(UB3LYP) =  -700.078253932     A.U. after   33 cycles
 SCF Done:  E(UB3LYP) =  -700.078253932     a.u. after    1 cycles
 Normal termination of Gaussian 16 at Thu Dec 10 09:38:26 2020.
 Gaussian 16:  ES64L-G16RevA.03 25-Dec-2016

 ----------------------------------------------------------------------
 # B3LYP/6-311++G(d,p) empiricaldispersion=gd3bj scf=xqc pop=npa geom=c
 heck
 ----------------------------------------------------------------------

 ------------------------------------
 CID_102606722_JID_4305_Energie_anion
 ------------------------------------
 Structure from the checkpoint file:  "JID_4305.chk"
 Charge = -1 Multiplicity = 2

                         Standard orientation:
 ---------------------------------------------------------------------
 Center     Atomic      Atomic             Coordinates (Angstroms)
 Number     Number       Type             X           Y           Z
 ---------------------------------------------------------------------
      1          6           0        3.203418   -0.090278    1.048557
      2          6           0        2.375599    0.759169    0.065505
      3          6           0        3.199150    0.057261   -1.030907
      4          8           0        4.098977   -0.463125   -0.024724
      5          8           0        0.942946    0.727617    0.065851
      6          6           0        0.290224   -0.475922   -0.022442
      7          8           0        0.866401   -1.535239   -0.092265
      8          6           0       -1.195067   -0.314587   -0.013817
      9          7           0       -1.859026   -1.476718   -0.006691
     10          6           0       -3.185682   -1.453522    0.009971
     11          6           0       -3.878731   -0.236842    0.027888
     12          7           0       -3.258721    0.934676    0.018460
     13          6           0       -1.906108    0.926763   -0.011575
     14          7           0       -1.326994    2.151140   -0.065585
     15          1           0        2.670849   -0.949964    1.462137
     16          1           0        3.721659    0.456929    1.844559
     17          1           0        2.602718    1.823315    0.140506
     18          1           0        3.714041    0.711586   -1.743854
     19          1           0        2.664886   -0.735602   -1.559863
     20          1           0       -3.706920   -2.406943    0.015192
     21          1           0       -4.966888   -0.212077    0.054330
     22          1           0       -1.937848    2.943845    0.065523
     23          1           0       -0.332714    2.238945    0.068207
 ---------------------------------------------------------------------

 SCF Done:  E(UB3LYP) =  -700.411857664     A.U. after   28 cycles

 The electronic state is 2-A.
 Alpha  occ. eigenvalues --  -19.03072 -19.02136 -18.93761 -14.18474 -14.13778
 Alpha  occ. eigenvalues --  -14.12605 -10.13357 -10.12537 -10.11457 -10.11456
 Alpha  occ. eigenvalues --  -10.09690 -10.03511 -10.03246 -10.02945  -0.96566
 Alpha  occ. eigenvalues --   -0.94042  -0.86584  -0.82458  -0.76871  -0.72147
 Alpha  occ. eigenvalues --   -0.64706  -0.59701  -0.59569  -0.53016  -0.49107
 Alpha  occ. eigenvalues --   -0.48246  -0.43672  -0.41459  -0.40713  -0.37694
 Alpha  occ. eigenvalues --   -0.36299  -0.36152  -0.33058  -0.32105  -0.31184
 Alpha  occ. eigenvalues --   -0.30805  -0.30225  -0.29284  -0.27248  -0.26554
 Alpha  occ. eigenvalues --   -0.24113  -0.23729  -0.20297  -0.19697  -0.16966
 Alpha  occ. eigenvalues --   -0.16001  -0.15194  -0.14011  -0.11518  -0.08148
 Alpha  occ. eigenvalues --   -0.07470   0.04454
 Alpha virt. eigenvalues --    0.07336   0.09380   0.09391   0.10238   0.11094
 Alpha virt. eigenvalues --    0.11899   0.12594   0.13499   0.13681   0.13994
 Alpha virt. eigenvalues --    0.15535   0.16114   0.16736   0.17663   0.17830

  Beta  occ. eigenvalues --  -19.02986 -19.02136 -18.93473 -14.18485 -14.13483
  Beta  occ. eigenvalues --  -14.11949 -10.13361 -10.12291 -10.11446 -10.11445
  Beta  occ. eigenvalues --  -10.09731 -10.03392 -10.03365 -10.02568  -0.96353
  Beta  occ. eigenvalues --   -0.93966  -0.86120  -0.82105  -0.76376  -0.71355
  Beta  occ. eigenvalues --   -0.64573  -0.59552  -0.59326  -0.52445  -0.48906
  Beta  occ. eigenvalues --   -0.47930  -0.43550  -0.41413  -0.40498  -0.37504
  Beta  occ. eigenvalues --   -0.36123  -0.35895  -0.32793  -0.31862  -0.30881
  Beta  occ. eigenvalues --   -0.30733  -0.29796  -0.29076  -0.26452  -0.26260
  Beta  occ. eigenvalues --   -0.23594  -0.23171  -0.20197  -0.18552  -0.16003
  Beta  occ. eigenvalues --   -0.15961  -0.13581  -0.12779  -0.11136  -0.07516
  Beta  occ. eigenvalues --   -0.06510
  Beta virt. eigenvalues --    0.07305   0.09330   0.09361   0.10206   0.11075
  Beta virt. eigenvalues --    0.11481   0.11862   0.12550   0.13647   0.13878
  Beta virt. eigenvalues --    0.14365   0.15500   0.16164   0.16729   0.17806

 Mulliken charges and spin densities:
               1          2
     1  C   -0.181680  -0.005724
     2  C   -0.019752   0.004703
     3  C   -0.191346  -0.006439
     4  O   -0.233072   0.000464
     5  O   -0.087764   0.009013
     6  C   -0.860052   0.087023
     7  O   -0.268314   0.106065
     8  C    0.426526   0.155748
     9  N   -0.147430   0.308706
    10  C    0.161185  -0.087723
    11  C   -0.344750   0.318998
    12  N   -0.228581   0.101873
    13  C   -0.242674  -0.003530
    14  N   -0.386398   0.008613
    15  H    0.205393   0.006410
    16  H    0.109904   0.006669
    17  H    0.167321  -0.000645
    18  H    0.110826   0.005269
    19  H    0.207353   0.004970
    20  H    0.128145   0.005944
    21  H    0.116927  -0.025222
    22  H    0.233142  -0.001969
    23  H    0.325092   0.000784
 Sum of Mulliken charges =  -1.00000   1.00000

 Dipole moment (field-independent basis, Debye):
    X=              5.1199    Y=              5.1221    Z=              0.5312  Tot=              7.2616
 Quadrupole moment (field-independent basis, Debye-Ang):
   XX=           -129.1896   YY=            -95.4505   ZZ=            -85.7677
   XY=              8.5576   XZ=              0.1241   YZ=              0.4885

 Summary of Natural Population Analysis:

                                       Natural Population
                Natural  -----------------------------------------------
    Atom  No    Charge         Core      Valence    Rydberg      Total
 -----------------------------------------------------------------------
      C    1   -0.01614      0.99963     2.00654    0.00997     3.01614
      C    2    0.04724      0.99953     1.94148    0.01175     2.95276
      C    3   -0.01598      0.99963     2.00640    0.00995     3.01598
      O    4   -0.30775      0.99991     3.29720    0.01063     4.30775
      O    5   -0.30006      0.99986     3.29081    0.00939     4.30006
      C    6    0.42228      0.99966     1.55255    0.02551     2.57772
      O    7   -0.28699      0.99987     3.28112    0.00600     4.28699
      C    8    0.01157      0.99947     1.97372    0.01524     2.98843
      N    9   -0.09994      0.99968     2.58966    0.01060     3.59994
      C   10   -0.05920      0.99961     2.04442    0.01517     3.05920
      C   11    0.08380      0.99961     1.90169    0.01490     2.91620
      N   12   -0.23635      0.99968     2.72121    0.01547     3.73635
      C   13    0.18766      0.99956     1.79731    0.01547     2.81234
      N   14   -0.40376      0.99969     2.89484    0.00923     3.90376
      H   15    0.10061      0.00000     0.39807    0.00132     0.39939
      H   16    0.07454      0.00000     0.42404    0.00142     0.42546
      H   17    0.08652      0.00000     0.41233    0.00115     0.41348
      H   18    0.07473      0.00000     0.42385    0.00142     0.42527
      H   19    0.10041      0.00000     0.39827    0.00132     0.39959
      H   20    0.07893      0.00000     0.41942    0.00165     0.42107
      H   21    0.07265      0.00000     0.42548    0.00187     0.42735
      H   22    0.18407      0.00000     0.31189    0.00404     0.31593
      H   23    0.20115      0.00000     0.29777    0.00108     0.29885
 =======================================================================
   * Total *   -0.00000     13.99538    36.81006    0.19456    51.00000

 Normal termination of Gaussian 16 at Thu Dec 10 09:45:01 2020.
