 Gaussian 16, Revision A.03,

 -----------------------------------------------------------
 # opt freq B3LYP/6-31G(d) empiricaldispersion=gd3bj scf=xqc
 -----------------------------------------------------------

 ------------------------------
 CID_87220682_JID_4843_neutraal
 ------------------------------
 Symbolic Z-matrix:
 Charge =  0 Multiplicity = 1

 SCF Done:  E(RB3LYP) =  -1484.75866403     A.U. after   13 cycles
 SCF Done:  E(RB3LYP) =  -1484.53455673     A.U. after   16 cycles
 SCF Done:  E(RB3LYP) =  -1484.77161908     A.U. after   12 cycles
 SCF Done:  E(RB3LYP) =  -1484.77367787     A.U. after   11 cycles
 SCF Done:  E(RB3LYP) =  -1484.77501718     A.U. after   11 cycles
 SCF Done:  E(RB3LYP) =  -1484.77530735     A.U. after   12 cycles
 SCF Done:  E(RB3LYP) =  -1484.77773233     A.U. after   12 cycles
 SCF Done:  E(RB3LYP) =  -1484.77883133     A.U. after   12 cycles
 SCF Done:  E(RB3LYP) =  -1484.77944752     A.U. after   11 cycles
 SCF Done:  E(RB3LYP) =  -1484.77912886     A.U. after   11 cycles
 SCF Done:  E(RB3LYP) =  -1484.77974132     A.U. after    9 cycles
 SCF Done:  E(RB3LYP) =  -1484.77974257     A.U. after    9 cycles
 SCF Done:  E(RB3LYP) =  -1484.77974358     A.U. after    8 cycles
 SCF Done:  E(RB3LYP) =  -1484.77974413     A.U. after    7 cycles
 SCF Done:  E(RB3LYP) =  -1484.77974420     A.U. after    7 cycles
 Optimization completed.
    -- Stationary point found.
 Normal termination of Gaussian 16 at Thu Dec 10 10:04:51 2020.

 --------------------------------------------------------------------
 #N Geom=AllCheck Guess=TCheck SCRF=Check GenChk RB3LYP/6-31G(d) Freq
 --------------------------------------------------------------------

 Structure from the checkpoint file:  "JID_4843.chk"
 ------------------------------
 CID_87220682_JID_4843_neutraal
 ------------------------------
 Charge =  0 Multiplicity = 1

 SCF Done:  E(RB3LYP) =  -1484.77974420     A.U. after    1 cycles

  Exact polarizability: 146.519  -2.014 110.472  -8.475  -0.182 106.146
 Approx polarizability: 203.989   2.134 157.376 -14.849  -2.279 183.373

                      1                      2                      3
                      A                      A                      A
 Frequencies --     48.3697                51.5059                76.4122
 Red. masses --      5.1266                 6.2368                 7.8541
 Frc consts  --      0.0071                 0.0097                 0.0270
 IR Inten    --      0.8607                 1.4934                 0.3457

                      4                      5                      6
                      A                      A                      A
 Frequencies --     80.1839                90.7265               128.8276
 Red. masses --      6.4800                 6.0064                 8.5292
 Frc consts  --      0.0245                 0.0291                 0.0834
 IR Inten    --      0.0791                 1.6039                 4.9718

                      7                      8                      9
                      A                      A                      A
 Frequencies --    156.8647               166.4219               199.4327
 Red. masses --      5.6140                 6.0283                 4.1198
 Frc consts  --      0.0814                 0.0984                 0.0965
 IR Inten    --      1.7390                19.4466                 4.4309

                     10                     11                     12
                      A                      A                      A
 Frequencies --    217.2275               233.7063               259.0150
 Red. masses --      4.6423                 5.8582                 4.4887
 Frc consts  --      0.1291                 0.1885                 0.1774
 IR Inten    --      0.5433                 5.1059                23.9494

                     13                     14                     15
                      A                      A                      A
 Frequencies --    265.0544               295.2200               318.4593
 Red. masses --      3.9482                 5.0460                 3.5669
 Frc consts  --      0.1634                 0.2591                 0.2131
 IR Inten    --      7.3804                 2.2704                22.3578

                     16                     17                     18
                      A                      A                      A
 Frequencies --    334.8603               342.2917               362.6485
 Red. masses --      3.8453                 3.7302                 1.6725
 Frc consts  --      0.2540                 0.2575                 0.1296
 IR Inten    --      1.0002                 5.2406               170.8603

                     19                     20                     21
                      A                      A                      A
 Frequencies --    410.5545               420.2277               461.3475
 Red. masses --      2.9289                 3.1583                 1.7556
 Frc consts  --      0.2909                 0.3286                 0.2202
 IR Inten    --     20.4137                75.9013               161.0918

                     22                     23                     24
                      A                      A                      A
 Frequencies --    493.3756               501.6184               515.7690
 Red. masses --     12.4206                 1.1689                 1.2409
 Frc consts  --      1.7813                 0.1733                 0.1945
 IR Inten    --      2.0627                46.2148                97.7484

                     25                     26                     27
                      A                      A                      A
 Frequencies --    548.5804               597.2078               676.5406
 Red. masses --      3.2613                 2.8365                 1.1374
 Frc consts  --      0.5783                 0.5960                 0.3067
 IR Inten    --      0.8779                71.9227               174.6116

                     28                     29                     30
                      A                      A                      A
 Frequencies --    707.8207               711.1857               739.3551
 Red. masses --      3.7395                 4.6175                 1.2504
 Frc consts  --      1.1038                 1.3760                 0.4027
 IR Inten    --      3.9046                25.0951               112.1944

                     31                     32                     33
                      A                      A                      A
 Frequencies --    795.7288               815.3960               829.2160
 Red. masses --      3.9887                 3.9647                 3.1915
 Frc consts  --      1.4880                 1.5531                 1.2929
 IR Inten    --     19.6677                10.9304                16.1219

                     34                     35                     36
                      A                      A                      A
 Frequencies --    854.3559               948.6435               965.8127
 Red. masses --      3.3165                 2.6090                 2.3362
 Frc consts  --      1.4263                 1.3834                 1.2839
 IR Inten    --     35.3626                15.5661                15.1213

                     37                     38                     39
                      A                      A                      A
 Frequencies --    981.8996               997.6726              1081.1589
 Red. masses --      2.5002                 2.0686                 3.3537
 Frc consts  --      1.4203                 1.2131                 2.3097
 IR Inten    --      9.2772                14.0175               206.2745

                     40                     41                     42
                      A                      A                      A
 Frequencies --   1087.7921              1091.6245              1101.7677
 Red. masses --      4.1135                 4.2976                 2.5044
 Frc consts  --      2.8679                 3.0174                 1.7912
 IR Inten    --     48.2787                57.1732               125.1432

                     43                     44                     45
                      A                      A                      A
 Frequencies --   1123.0242              1129.9419              1200.3894
 Red. masses --      2.9772                 2.4458                 1.0506
 Frc consts  --      2.2122                 1.8398                 0.8919
 IR Inten    --    115.4913                48.1134                56.4758

                     46                     47                     48
                      A                      A                      A
 Frequencies --   1217.9250              1246.3832              1250.4570
 Red. masses --      1.0521                 1.1569                 1.1735
 Frc consts  --      0.9195                 1.0589                 1.0811
 IR Inten    --     11.3571                12.7172                21.4823

                     49                     50                     51
                      A                      A                      A
 Frequencies --   1280.2860              1286.4364              1302.0140
 Red. masses --      1.2453                 1.4065                 1.3528
 Frc consts  --      1.2027                 1.3714                 1.3512
 IR Inten    --     49.5328                30.5434                64.6063

                     52                     53                     54
                      A                      A                      A
 Frequencies --   1312.7257              1386.8348              1393.2870
 Red. masses --      1.3631                 1.3988                 1.2812
 Frc consts  --      1.3840                 1.5851                 1.4654
 IR Inten    --     13.7603                 0.2302                 1.2445

                     55                     56                     57
                      A                      A                      A
 Frequencies --   1394.1917              1408.7373              1415.2145
 Red. masses --      1.3459                 1.3289                 1.4721
 Frc consts  --      1.5414                 1.5538                 1.7371
 IR Inten    --      8.3535                 4.3712                13.7429

                     58                     59                     60
                      A                      A                      A
 Frequencies --   1435.8560              1448.3095              1452.4285
 Red. masses --      1.2020                 1.1856                 1.2152
 Frc consts  --      1.4601                 1.4653                 1.5104
 IR Inten    --     35.7188                70.6337                86.0370

                     61                     62                     63
                      A                      A                      A
 Frequencies --   1470.0401              1472.4030              1524.9481
 Red. masses --      1.2335                 1.2373                 1.0893
 Frc consts  --      1.5705                 1.5804                 1.4924
 IR Inten    --     79.1916                91.4137                 4.4125

                     64                     65                     66
                      A                      A                      A
 Frequencies --   1531.5645              3023.4114              3032.5753
 Red. masses --      1.0857                 1.0849                 1.0686
 Frc consts  --      1.5005                 5.8429                 5.7900
 IR Inten    --      4.5819                11.7047                43.4945

                     67                     68                     69
                      A                      A                      A
 Frequencies --   3081.8649              3091.7707              3097.0632
 Red. masses --      1.0861                 1.0597                 1.0864
 Frc consts  --      6.0780                 5.9682                 6.1394
 IR Inten    --     15.4299                26.0822                16.9864

                     70                     71                     72
                      A                      A                      A
 Frequencies --   3120.2538              3144.9629              3151.0832
 Red. masses --      1.0978                 1.0915                 1.1022
 Frc consts  --      6.2971                 6.3610                 6.4479
 IR Inten    --     26.1731                13.3772                20.1890

                     73                     74                     75
                      A                      A                      A
 Frequencies --   3613.8315              3621.8047              3635.2041
 Red. masses --      1.0652                 1.0646                 1.0647
 Frc consts  --      8.1965                 8.2277                 8.2896
 IR Inten    --     92.8492                72.3099                52.0835

                     76                     77                     78
                      A                      A                      A
 Frequencies --   3652.7408              3702.0235              3737.9758
 Red. masses --      1.0653                 1.0649                 1.0660
 Frc consts  --      8.3747                 8.5991                 8.7755
 IR Inten    --     83.8798                73.0532                28.2513

 - Thermochemistry -
 -------------------
 Temperature   298.150 Kelvin.  Pressure   1.00000 Atm.
 Atom     1 has atomic number  6 and mass  12.00000

 Molecular mass:   246.02318 amu.
 Principal axes and moments of inertia in atomic units:
                           1         2         3
     Eigenvalues --  2292.772095094.856586078.47933
           X            0.99995  -0.00879  -0.00428
           Y            0.00885   0.99985   0.01469
           Z            0.00415  -0.01473   0.99988
 This molecule is an asymmetric top.
 Rotational symmetry number  1.
 Warning -- assumption of classical behavior for rotation
           may cause significant error
 Rotational temperatures (Kelvin)      0.03778     0.01700     0.01425
 Rotational constants (GHZ):           0.78714     0.35423     0.29691
 Zero-point vibrational energy     588274.7 (Joules/Mol)
                                  140.60102 (Kcal/Mol)
 Warning -- explicit consideration of  26 degrees of freedom as
           vibrations may cause significant error
 Vibrational temperatures:     69.59    74.11   109.94   115.37   130.54
          (Kelvin)            185.35   225.69   239.44   286.94   312.54
                              336.25   372.66   381.35   424.76   458.19
                              481.79   492.48   521.77   590.70   604.61
                              663.78   709.86   721.72   742.08   789.28
                              859.25   973.39  1018.40  1023.24  1063.77
                             1144.88  1173.17  1193.06  1229.23  1364.89
                             1389.59  1412.73  1435.43  1555.55  1565.09
                             1570.60  1585.20  1615.78  1625.73  1727.09
                             1752.32  1793.27  1799.13  1842.05  1850.90
                             1873.31  1888.72  1995.35  2004.63  2005.93
                             2026.86  2036.18  2065.88  2083.79  2089.72
                             2115.06  2118.46  2194.06  2203.58  4350.01
                             4363.20  4434.12  4448.37  4455.98  4489.35
                             4524.90  4533.71  5199.50  5210.97  5230.25
                             5255.48  5326.39  5378.11

 Zero-point correction=                           0.224062 (Hartree/Particle)
 Thermal correction to Energy=                    0.240343
 Thermal correction to Enthalpy=                  0.241288
 Thermal correction to Gibbs Free Energy=         0.180237
 Sum of electronic and zero-point Energies=          -1484.555682
 Sum of electronic and thermal Energies=             -1484.539401
 Sum of electronic and thermal Enthalpies=           -1484.538457
 Sum of electronic and thermal Free Energies=        -1484.599507

                     E (Thermal)             CV                S
                      KCal/Mol        Cal/Mol-Kelvin    Cal/Mol-Kelvin
 Total                  150.818             60.075            128.492
 Electronic               0.000              0.000              0.000
 Translational            0.889              2.981             42.401
 Rotational               0.889              2.981             32.629
 Vibrational            149.040             54.113             53.461
 Vibration     1          0.595              1.978              4.883
 Vibration     2          0.596              1.977              4.759
 Vibration     3          0.599              1.965              3.981
 Vibration     4          0.600              1.963              3.886
 Vibration     5          0.602              1.956              3.644
 Vibration     6          0.611              1.924              2.963
 Vibration     7          0.621              1.895              2.587
 Vibration     8          0.624              1.884              2.476
 Vibration     9          0.638              1.841              2.138
 Vibration    10          0.646              1.815              1.982
 Vibration    11          0.654              1.789              1.850
 Vibration    12          0.668              1.748              1.668
 Vibration    13          0.671              1.737              1.628
 Vibration    14          0.689              1.683              1.444
 Vibration    15          0.705              1.638              1.318
 Vibration    16          0.716              1.606              1.237
 Vibration    17          0.721              1.591              1.201
 Vibration    18          0.737              1.549              1.111
 Vibration    19          0.775              1.447              0.925
 Vibration    20          0.783              1.426              0.891
 Vibration    21          0.819              1.336              0.762
 Vibration    22          0.849              1.265              0.675
 Vibration    23          0.857              1.246              0.654
 Vibration    24          0.871              1.215              0.620
 Vibration    25          0.904              1.143              0.547
 Vibration    26          0.955              1.038              0.454

 Optimization completed.
    -- Stationary point found.
 Normal termination of Gaussian 16 at Thu Dec 10 10:12:24 2020.

 ----------------------------------------------------------------------
 # B3LYP/6-311++G(d,p) empiricaldispersion=gd3bj scf=xqc pop=npa geom=c
 heck
 ----------------------------------------------------------------------

 --------------------------------------
 CID_87220682_JID_4843_Energie_neutraal
 --------------------------------------
 Structure from the checkpoint file:  "JID_4843.chk"
 Charge =  0 Multiplicity = 1

 SCF Done:  E(RB3LYP) =  -1485.09257677     A.U. after   14 cycles
 Normal termination of Gaussian 16 at Thu Dec 10 10:15:17 2020.

 ----------------------------------------------------------------------
 # B3LYP/6-311++G(d,p) empiricaldispersion=gd3bj scf=xqc pop=npa geom=c
 heck
 ----------------------------------------------------------------------

 ------------------------------------
 CID_87220682_JID_4843_Energie_kation
 ------------------------------------
 Structure from the checkpoint file:  "JID_4843.chk"
 Charge =  1 Multiplicity = 2

 SCF Done:  E(UB3LYP) =  -1484.77666678     A.U. after   26 cycles
 Normal termination of Gaussian 16 at Thu Dec 10 10:22:24 2020.
 Gaussian 16:  ES64L-G16RevA.03 25-Dec-2016

 ----------------------------------------------------------------------
 # B3LYP/6-311++G(d,p) empiricaldispersion=gd3bj scf=xqc pop=npa geom=c
 heck
 ----------------------------------------------------------------------

 -----------------------------------
 CID_87220682_JID_4843_Energie_anion
 -----------------------------------
 Structure from the checkpoint file:  "JID_4843.chk"
 Charge = -1 Multiplicity = 2

                         Standard orientation:
 ---------------------------------------------------------------------
 Center     Atomic      Atomic             Coordinates (Angstroms)
 Number     Number       Type             X           Y           Z
 ---------------------------------------------------------------------
      1          6           0       -3.383106    1.318824    0.527075
      2          6           0       -1.951687    0.754811    0.597223
      3          6           0       -1.976895   -0.781906    0.555234
      4          8           0       -2.447511   -1.234106   -0.690533
      5         16           0       -0.371397   -1.622930    1.054182
      6         16           0        0.655376   -1.786039   -0.750121
      7          6           0        2.123622   -0.631902   -0.671967
      8          6           0        1.858754    0.882495   -0.729352
      9          6           0        1.581362    1.507087    0.647512
     10          8           0        2.806086    1.665184    1.365998
     11          8           0        2.993760    1.512994   -1.298488
     12          8           0        2.940730   -0.913216    0.443367
     13          8           0       -1.217988    1.260193   -0.508188
     14          8           0       -3.881309    1.217092   -0.803426
     15          1           0       -3.367353    2.386679    0.762765
     16          1           0       -4.039424    0.815410    1.251303
     17          1           0       -1.467180    1.082923    1.523287
     18          1           0       -2.666830   -1.162262    1.315236
     19          1           0       -1.772906   -0.955537   -1.340849
     20          1           0        2.619647   -0.908148   -1.614378
     21          1           0        1.006512    1.049432   -1.388895
     22          1           0        1.173472    2.509779    0.505257
     23          1           0        0.861864    0.909634    1.214473
     24          1           0        3.114396    0.760102    1.549135
     25          1           0        3.537474    1.765192   -0.526300
     26          1           0        3.157944   -1.859089    0.442880
     27          1           0       -1.899299    1.521545   -1.158682
     28          1           0       -3.864417    0.266266   -1.024394
 ---------------------------------------------------------------------

 SCF Done:  E(UB3LYP) =  -1485.09140564     A.U. after   33 cycles
 SCF Done:  E(UB3LYP) =  -1485.09140564     a.u. after    1 cycles

 The electronic state is 2-A.
 Alpha  occ. eigenvalues --  -88.71409 -88.71089 -19.03933 -19.03768 -19.03004
 Alpha  occ. eigenvalues --  -19.02427 -19.02038 -19.00951 -10.13615 -10.13435
 Alpha  occ. eigenvalues --  -10.13059 -10.12455 -10.10826 -10.10362  -7.80055
 Alpha  occ. eigenvalues --   -7.79662  -5.76467  -5.76093  -5.76050  -5.75708
 Alpha  occ. eigenvalues --   -5.75448  -5.75021  -0.96006  -0.95040  -0.93124
 Alpha  occ. eigenvalues --   -0.92714  -0.91640  -0.90226  -0.68014  -0.66334
 Alpha  occ. eigenvalues --   -0.63227  -0.59400  -0.56405  -0.52315  -0.49602
 Alpha  occ. eigenvalues --   -0.47815  -0.43604  -0.42845  -0.40609  -0.40079
 Alpha  occ. eigenvalues --   -0.39197  -0.37917  -0.37743  -0.35345  -0.34431
 Alpha  occ. eigenvalues --   -0.33894  -0.32359  -0.31936  -0.30478  -0.28427
 Alpha  occ. eigenvalues --   -0.27920  -0.27111  -0.25218  -0.23899  -0.23501
 Alpha  occ. eigenvalues --   -0.22516  -0.20515  -0.20128  -0.19747  -0.18795
 Alpha  occ. eigenvalues --   -0.18608  -0.16808  -0.16148  -0.12414  -0.09857
 Alpha  occ. eigenvalues --    0.04862
 Alpha virt. eigenvalues --    0.07110   0.07958   0.08834   0.09399   0.10504
 Alpha virt. eigenvalues --    0.10743   0.11038   0.11672   0.12453   0.13000
 Alpha virt. eigenvalues --    0.13580   0.13804   0.14049   0.15243   0.15771

  Beta  occ. eigenvalues --  -88.71243 -88.70943 -19.03924 -19.03755 -19.02964
  Beta  occ. eigenvalues --  -19.02415 -19.02037 -19.00951 -10.13597 -10.13421
  Beta  occ. eigenvalues --  -10.13055 -10.12439 -10.10820 -10.10363  -7.79879
  Beta  occ. eigenvalues --   -7.79512  -5.76143  -5.75869  -5.75760  -5.75564
  Beta  occ. eigenvalues --   -5.75327  -5.74919  -0.95959  -0.95024  -0.93047
  Beta  occ. eigenvalues --   -0.92706  -0.91598  -0.90224  -0.67618  -0.66220
  Beta  occ. eigenvalues --   -0.62892  -0.59235  -0.56228  -0.52107  -0.49440
  Beta  occ. eigenvalues --   -0.47615  -0.43485  -0.42735  -0.40568  -0.39986
  Beta  occ. eigenvalues --   -0.39137  -0.37872  -0.37647  -0.35292  -0.34376
  Beta  occ. eigenvalues --   -0.33842  -0.32248  -0.31764  -0.30386  -0.28393
  Beta  occ. eigenvalues --   -0.27680  -0.27091  -0.25122  -0.23837  -0.23422
  Beta  occ. eigenvalues --   -0.22460  -0.20385  -0.19988  -0.19119  -0.18720
  Beta  occ. eigenvalues --   -0.18476  -0.16648  -0.15999  -0.12033  -0.09513
  Beta virt. eigenvalues --    0.07272   0.07849   0.08477   0.09358   0.10069
  Beta virt. eigenvalues --    0.10622   0.11076   0.11347   0.12140   0.12639
  Beta virt. eigenvalues --    0.13012   0.13706   0.13970   0.14397   0.15291

 Mulliken charges and spin densities:
               1          2
     1  C   -0.629851  -0.025530
     2  C   -0.052296  -0.414646
     3  C    0.398405  -0.236853
     4  O   -0.275831   0.009238
     5  S   -0.323464   0.393943
     6  S    0.061349  -0.084477
     7  C    0.468542  -0.408431
     8  C   -0.819288   0.163423
     9  C   -0.377342  -0.100427
    10  O   -0.266324   0.001311
    11  O   -0.164637   0.002850
    12  O   -0.276793   0.010042
    13  O   -0.163658   0.026719
    14  O   -0.233284  -0.010473
    15  H    0.193718  -0.002407
    16  H    0.099343   0.050023
    17  H   -0.219798   0.363448
    18  H    0.056948   0.218175
    19  H   -0.074505   0.348745
    20  H   -0.063855   0.338020
    21  H    0.116708   0.172504
    22  H    0.198609   0.002738
    23  H    0.209215  -0.000443
    24  H    0.270641   0.000818
    25  H    0.247461  -0.005008
    26  H    0.203296   0.050277
    27  H    0.196068   0.081436
    28  H    0.220623   0.054987
 Sum of Mulliken charges =  -1.00000   1.00000

 Dipole moment (field-independent basis, Debye):
    X=              0.1481    Y=              2.2275    Z=              1.3763  Tot=              2.6226
 Quadrupole moment (field-independent basis, Debye-Ang):
   XX=           -133.0140   YY=           -128.9335   ZZ=           -134.4100
   XY=             -7.8507   XZ=              3.0528   YZ=             -0.7916

 Summary of Natural Population Analysis:

                                       Natural Population
                Natural  -----------------------------------------------
    Atom  No    Charge         Core      Valence    Rydberg      Total
 -----------------------------------------------------------------------
      C    1   -0.02345      0.99959     2.01105    0.01281     3.02345
      C    2    0.02886      0.99952     1.95508    0.01654     2.97114
      C    3   -0.00946      0.99955     1.98706    0.02284     3.00946
      O    4   -0.38129      0.99989     3.37243    0.00897     4.38129
      S    5    0.06767      4.99969     2.91240    0.02025     7.93233
      S    6    0.05747      4.99967     2.92111    0.02174     7.94253
      C    7   -0.01028      0.99956     1.98927    0.02145     3.01028
      C    8    0.02889      0.99952     1.95514    0.01645     2.97111
      C    9   -0.03110      0.99958     2.01720    0.01431     3.03110
      O   10   -0.38604      0.99990     3.38007    0.00607     4.38604
      O   11   -0.37737      0.99990     3.37091    0.00656     4.37737
      O   12   -0.38808      0.99987     3.37948    0.00872     4.38808
      O   13   -0.38295      0.99990     3.37427    0.00878     4.38295
      O   14   -0.38293      0.99990     3.37628    0.00674     4.38293
      H   15    0.08696      0.00000     0.41200    0.00104     0.41304
      H   16    0.08273      0.00000     0.41619    0.00108     0.41727
      H   17    0.09748      0.00000     0.40103    0.00150     0.40252
      H   18    0.09743      0.00000     0.40121    0.00137     0.40257
      H   19    0.24373      0.00000     0.25228    0.00398     0.25627
      H   20    0.09394      0.00000     0.40405    0.00201     0.40606
      H   21    0.10767      0.00000     0.39072    0.00161     0.39233
      H   22    0.08871      0.00000     0.41033    0.00096     0.41129
      H   23    0.09700      0.00000     0.40133    0.00167     0.40300
      H   24    0.24288      0.00000     0.25490    0.00222     0.25712
      H   25    0.23386      0.00000     0.26324    0.00289     0.26614
      H   26    0.23735      0.00000     0.25978    0.00286     0.26265
      H   27    0.23772      0.00000     0.25902    0.00326     0.26228
      H   28    0.24257      0.00000     0.25457    0.00286     0.25743
 =======================================================================
   * Total *   -0.00000     21.99604    42.78240    0.22155    65.00000

 Normal termination of Gaussian 16 at Thu Dec 10 10:31:30 2020.
