 Gaussian 16, Revision A.03,

 -----------------------------------------------------------
 # opt freq B3LYP/6-31G(d) empiricaldispersion=gd3bj scf=xqc
 -----------------------------------------------------------

 -------------------------------
 CID_149584902_JID_6359_neutraal
 -------------------------------
 Symbolic Z-matrix:
 Charge =  0 Multiplicity = 1

 SCF Done:  E(RB3LYP) =  -706.965640552     A.U. after   14 cycles
 SCF Done:  E(RB3LYP) =  -706.973860615     A.U. after   12 cycles
 SCF Done:  E(RB3LYP) =  -706.975428529     A.U. after   12 cycles
 SCF Done:  E(RB3LYP) =  -706.976506381     A.U. after   12 cycles
 SCF Done:  E(RB3LYP) =  -706.977022559     A.U. after   12 cycles
 SCF Done:  E(RB3LYP) =  -706.977389229     A.U. after   12 cycles
 SCF Done:  E(RB3LYP) =  -706.977605453     A.U. after   11 cycles
 SCF Done:  E(RB3LYP) =  -706.977698872     A.U. after   11 cycles
 SCF Done:  E(RB3LYP) =  -706.977726781     A.U. after   10 cycles
 SCF Done:  E(RB3LYP) =  -706.977753456     A.U. after   10 cycles
 SCF Done:  E(RB3LYP) =  -706.977761658     A.U. after   10 cycles
 SCF Done:  E(RB3LYP) =  -706.977763360     A.U. after    9 cycles
 SCF Done:  E(RB3LYP) =  -706.977763600     A.U. after    8 cycles
 SCF Done:  E(RB3LYP) =  -706.977763806     A.U. after    7 cycles
 Optimization completed.
    -- Stationary point found.
 Normal termination of Gaussian 16 at Thu Dec 10 22:30:27 2020.

 --------------------------------------------------------------------
 #N Geom=AllCheck Guess=TCheck SCRF=Check GenChk RB3LYP/6-31G(d) Freq
 --------------------------------------------------------------------

 Structure from the checkpoint file:  "JID_6359.chk"
 -------------------------------
 CID_149584902_JID_6359_neutraal
 -------------------------------
 Charge =  0 Multiplicity = 1

 SCF Done:  E(RB3LYP) =  -706.977763806     A.U. after    1 cycles

  Exact polarizability: 193.506   3.350 116.941  -4.012  13.615 124.232
 Approx polarizability: 253.982   7.086 169.218 -15.462  33.974 211.576

                      1                      2                      3
                      A                      A                      A
 Frequencies --     19.5218                32.9743                38.1641
 Red. masses --      3.2034                 4.1355                 4.0368
 Frc consts  --      0.0007                 0.0026                 0.0035
 IR Inten    --      0.1813                 0.4350                 0.5436

                      4                      5                      6
                      A                      A                      A
 Frequencies --     75.2095               108.4655               131.8987
 Red. masses --      3.0053                 4.3184                 3.6627
 Frc consts  --      0.0100                 0.0299                 0.0375
 IR Inten    --      0.7123                 1.8267                 3.1461

                      7                      8                      9
                      A                      A                      A
 Frequencies --    173.9745               182.0295               220.2899
 Red. masses --      3.9365                 3.7089                 2.8251
 Frc consts  --      0.0702                 0.0724                 0.0808
 IR Inten    --      1.3765                 2.6338                 0.3683

                     10                     11                     12
                      A                      A                      A
 Frequencies --    239.8628               248.0927               262.2187
 Red. masses --      2.1144                 1.8509                 1.7999
 Frc consts  --      0.0717                 0.0671                 0.0729
 IR Inten    --      2.7333                 1.2211                19.4528

                     13                     14                     15
                      A                      A                      A
 Frequencies --    285.6997               325.9636               351.8912
 Red. masses --      1.2525                 3.9650                 3.4467
 Frc consts  --      0.0602                 0.2482                 0.2515
 IR Inten    --     27.3972                 4.6469                21.0887

                     16                     17                     18
                      A                      A                      A
 Frequencies --    374.4726               378.5684               473.5649
 Red. masses --      3.8698                 2.3868                 2.7095
 Frc consts  --      0.3197                 0.2015                 0.3580
 IR Inten    --      1.4651                14.4807                18.1212

                     19                     20                     21
                      A                      A                      A
 Frequencies --    488.3470               498.8405               502.6190
 Red. masses --      2.4866                 2.1122                 3.4344
 Frc consts  --      0.3494                 0.3097                 0.5112
 IR Inten    --     43.2794                33.1712                30.3358

                     22                     23                     24
                      A                      A                      A
 Frequencies --    578.2029               615.4362               675.3171
 Red. masses --      3.5291                 3.0085                 5.4044
 Frc consts  --      0.6952                 0.6714                 1.4522
 IR Inten    --     22.5788                 7.4387                14.5618

                     25                     26                     27
                      A                      A                      A
 Frequencies --    685.3733               721.7534               760.1124
 Red. masses --      4.6495                 3.0310                 2.7783
 Frc consts  --      1.2868                 0.9303                 0.9458
 IR Inten    --     14.9338                25.8572                 1.2923

                     28                     29                     30
                      A                      A                      A
 Frequencies --    781.0256               805.1947               819.4093
 Red. masses --      4.0977                 1.1064                 1.4119
 Frc consts  --      1.4727                 0.4226                 0.5586
 IR Inten    --     24.4789                 1.2456                16.4881

                     31                     32                     33
                      A                      A                      A
 Frequencies --    840.3862               864.6403               874.6303
 Red. masses --      1.2684                 1.6423                 3.3360
 Frc consts  --      0.5278                 0.7234                 1.5036
 IR Inten    --      5.9801                 8.8737                29.1369

                     34                     35                     36
                      A                      A                      A
 Frequencies --    885.4390               912.5959               930.6611
 Red. masses --      3.1580                 2.1429                 1.7735
 Frc consts  --      1.4587                 1.0515                 0.9050
 IR Inten    --     13.5913               178.3400                51.4182

                     37                     38                     39
                      A                      A                      A
 Frequencies --    954.6707               961.6307               971.2899
 Red. masses --      3.1793                 2.0718                 1.3458
 Frc consts  --      1.7072                 1.1288                 0.7481
 IR Inten    --     16.9688                 6.6342                 1.3625

                     40                     41                     42
                      A                      A                      A
 Frequencies --    986.4671              1012.5548              1017.1390
 Red. masses --      2.7737                 4.0137                 2.8115
 Frc consts  --      1.5903                 2.4246                 1.7137
 IR Inten    --     14.4691                13.6560                14.6303

                     43                     44                     45
                      A                      A                      A
 Frequencies --   1034.4985              1060.4051              1068.6315
 Red. masses --      1.7818                 1.5711                 1.3474
 Frc consts  --      1.1235                 1.0409                 0.9066
 IR Inten    --      6.0692                63.4996                 2.4308

                     46                     47                     48
                      A                      A                      A
 Frequencies --   1095.2210              1113.8666              1128.4667
 Red. masses --      1.3761                 1.4491                 1.2859
 Frc consts  --      0.9725                 1.0593                 0.9648
 IR Inten    --      1.6518                23.8462                 8.9444

                     49                     50                     51
                      A                      A                      A
 Frequencies --   1150.3682              1151.2051              1153.6398
 Red. masses --      1.5194                 1.1196                 2.1263
 Frc consts  --      1.1847                 0.8742                 1.6673
 IR Inten    --      4.7784                 0.7730                 3.8678

                     52                     53                     54
                      A                      A                      A
 Frequencies --   1165.6350              1202.2190              1214.6370
 Red. masses --      1.4125                 1.5413                 1.3885
 Frc consts  --      1.1307                 1.3125                 1.2070
 IR Inten    --     15.5581                 7.9850                 3.7727

                     55                     56                     57
                      A                      A                      A
 Frequencies --   1232.7201              1249.0950              1277.7942
 Red. masses --      2.2862                 2.1411                 1.7245
 Frc consts  --      2.0469                 1.9683                 1.6589
 IR Inten    --      1.0204                66.9297                 3.1910

                     58                     59                     60
                      A                      A                      A
 Frequencies --   1292.7862              1341.5951              1355.8817
 Red. masses --      2.6858                 2.0114                 1.5292
 Frc consts  --      2.6447                 2.1330                 1.6564
 IR Inten    --     24.5691                13.0199                 6.5045

                     61                     62                     63
                      A                      A                      A
 Frequencies --   1374.8455              1396.6368              1410.9019
 Red. masses --      3.2083                 2.2619                 1.3808
 Frc consts  --      3.5730                 2.5995                 1.6195
 IR Inten    --     35.8287               116.3283                 8.6841

                     64                     65                     66
                      A                      A                      A
 Frequencies --   1427.7058              1435.4640              1447.6486
 Red. masses --      1.5616                 1.3065                 2.0743
 Frc consts  --      1.8754                 1.5862                 2.5612
 IR Inten    --      8.5282                 9.9220                42.2878

                     67                     68                     69
                      A                      A                      A
 Frequencies --   1485.1097              1519.7869              1525.6218
 Red. masses --      1.0921                 1.0525                 1.0793
 Frc consts  --      1.4192                 1.4323                 1.4801
 IR Inten    --      1.2778                 2.9745                22.9173

                     70                     71                     72
                      A                      A                      A
 Frequencies --   1527.5475              1533.9298              1543.8237
 Red. masses --      1.5445                 1.9996                 1.8550
 Frc consts  --      2.1234                 2.7721                 2.6049
 IR Inten    --    103.3313               161.7140                15.8142

                     73                     74                     75
                      A                      A                      A
 Frequencies --   1551.1189              1622.0248              1665.9219
 Red. masses --      1.8079                 6.0996                 5.6404
 Frc consts  --      2.5628                 9.4552                 9.2229
 IR Inten    --     52.0779                43.8887               318.0003

                     76                     77                     78
                      A                      A                      A
 Frequencies --   1699.0763              3046.2803              3053.8440
 Red. masses --      1.0913                 1.0795                 1.0422
 Frc consts  --      1.8562                 5.9022                 5.7267
 IR Inten    --     25.1122                15.4785                24.9784

                     79                     80                     81
                      A                      A                      A
 Frequencies --   3120.4543              3129.1652              3142.5894
 Red. masses --      1.0990                 1.0505                 1.1040
 Frc consts  --      6.3047                 6.0602                 6.4239
 IR Inten    --     28.9211                15.7442                24.7316

                     82                     83                     84
                      A                      A                      A
 Frequencies --   3148.2626              3155.6790              3165.8468
 Red. masses --      1.0524                 1.0556                 1.0885
 Frc consts  --      6.1458                 6.1934                 6.4276
 IR Inten    --     15.7076                15.6775                31.3283

                     85                     86                     87
                      A                      A                      A
 Frequencies --   3175.0250              3182.9107              3200.6211
 Red. masses --      1.0902                 1.0894                 1.0931
 Frc consts  --      6.4754                 6.5023                 6.5972
 IR Inten    --      9.3878                 4.6594                19.7707

                     88                     89                     90
                      A                      A                      A
 Frequencies --   3223.1191              3226.9999              3243.4538
 Red. masses --      1.1223                 1.1195                 1.1165
 Frc consts  --      6.8696                 6.8685                 6.9203
 IR Inten    --     20.8821                 3.4488                14.0807

                     91                     92                     93
                      A                      A                      A
 Frequencies --   3457.3085              3543.1008              3586.6036
 Red. masses --      1.0495                 1.0920                 1.0756
 Frc consts  --      7.3911                 8.0771                 8.1518
 IR Inten    --      1.2569                 0.2871                19.0165

 - Thermochemistry -
 -------------------
 Temperature   298.150 Kelvin.  Pressure   1.00000 Atm.
 Atom     1 has atomic number  6 and mass  12.00000

 Molecular mass:   219.13716 amu.
 Principal axes and moments of inertia in atomic units:
                           1         2         3
     Eigenvalues --  1391.867647619.371687831.77259
           X            0.99999   0.00018   0.00421
           Y           -0.00034   0.99929   0.03759
           Z           -0.00421  -0.03759   0.99928
 This molecule is an asymmetric top.
 Rotational symmetry number  1.
 Warning -- assumption of classical behavior for rotation
           may cause significant error
 Rotational temperatures (Kelvin)      0.06223     0.01137     0.01106
 Rotational constants (GHZ):           1.29663     0.23686     0.23044
 Zero-point vibrational energy     737639.5 (Joules/Mol)
                                  176.30007 (Kcal/Mol)
 Warning -- explicit consideration of  23 degrees of freedom as
           vibrations may cause significant error
 Vibrational temperatures:     28.09    47.44    54.91   108.21   156.06
          (Kelvin)            189.77   250.31   261.90   316.95   345.11
                              356.95   377.27   411.06   468.99   506.29
                              538.78   544.68   681.35   702.62   717.72
                              723.16   831.90   885.48   971.63   986.10
                             1038.44  1093.63  1123.72  1158.50  1178.95
                             1209.13  1244.02  1258.40  1273.95  1313.02
                             1339.01  1373.56  1383.57  1397.47  1419.31
                             1456.84  1463.44  1488.41  1525.69  1537.52
                             1575.78  1602.61  1623.61  1655.12  1656.33
                             1659.83  1677.09  1729.73  1747.59  1773.61
                             1797.17  1838.46  1860.03  1930.26  1950.81
                             1978.10  2009.45  2029.97  2054.15  2065.31
                             2082.84  2136.74  2186.63  2195.03  2197.80
                             2206.98  2221.22  2231.71  2333.73  2396.89
                             2444.59  4382.92  4393.80  4489.64  4502.17
                             4521.49  4529.65  4540.32  4554.95  4568.15
                             4579.50  4604.98  4637.35  4642.93  4666.61
                             4974.30  5097.73  5160.32

 Zero-point correction=                           0.280952 (Hartree/Particle)
 Thermal correction to Energy=                    0.296551
 Thermal correction to Enthalpy=                  0.297495
 Thermal correction to Gibbs Free Energy=         0.236380
 Sum of electronic and zero-point Energies=           -706.696812
 Sum of electronic and thermal Energies=              -706.681213
 Sum of electronic and thermal Enthalpies=            -706.680268
 Sum of electronic and thermal Free Energies=         -706.741384

                     E (Thermal)             CV                S
                      KCal/Mol        Cal/Mol-Kelvin    Cal/Mol-Kelvin
 Total                  186.089             59.617            128.628
 Electronic               0.000              0.000              0.000
 Translational            0.889              2.981             42.057
 Rotational               0.889              2.981             32.785
 Vibrational            184.311             53.656             53.787
 Vibration     1          0.593              1.986              6.682
 Vibration     2          0.594              1.983              5.642
 Vibration     3          0.594              1.982              5.352
 Vibration     4          0.599              1.966              4.012
 Vibration     5          0.606              1.942              3.296
 Vibration     6          0.612              1.921              2.918
 Vibration     7          0.627              1.874              2.392
 Vibration     8          0.630              1.864              2.307
 Vibration     9          0.647              1.810              1.957
 Vibration    10          0.657              1.779              1.804
 Vibration    11          0.662              1.766              1.744
 Vibration    12          0.670              1.742              1.647
 Vibration    13          0.683              1.700              1.499
 Vibration    14          0.710              1.624              1.280
 Vibration    15          0.728              1.571              1.158
 Vibration    16          0.746              1.524              1.061
 Vibration    17          0.749              1.516              1.045
 Vibration    18          0.830              1.309              0.728
 Vibration    19          0.844              1.276              0.688
 Vibration    20          0.854              1.253              0.661
 Vibration    21          0.858              1.244              0.652
 Vibration    22          0.935              1.078              0.489
 Vibration    23          0.975              0.999              0.424

 Optimization completed.
    -- Stationary point found.
 Normal termination of Gaussian 16 at Thu Dec 10 22:42:19 2020.

 ----------------------------------------------------------------------
 # B3LYP/6-311++G(d,p) empiricaldispersion=gd3bj scf=xqc pop=npa geom=c
 heck
 ----------------------------------------------------------------------

 ---------------------------------------
 CID_149584902_JID_6359_Energie_neutraal
 ---------------------------------------
 Structure from the checkpoint file:  "JID_6359.chk"
 Charge =  0 Multiplicity = 1

 SCF Done:  E(RB3LYP) =  -707.179008663     A.U. after   15 cycles
 Normal termination of Gaussian 16 at Thu Dec 10 22:49:19 2020.

 ----------------------------------------------------------------------
 # B3LYP/6-311++G(d,p) empiricaldispersion=gd3bj scf=xqc pop=npa geom=c
 heck
 ----------------------------------------------------------------------

 -------------------------------------
 CID_149584902_JID_6359_Energie_kation
 -------------------------------------
 Structure from the checkpoint file:  "JID_6359.chk"
 Charge =  1 Multiplicity = 2

 SCF Done:  E(UB3LYP) =  -706.891190137     A.U. after   25 cycles
 Normal termination of Gaussian 16 at Thu Dec 10 23:05:02 2020.
 Gaussian 16:  ES64L-G16RevA.03 25-Dec-2016

 ----------------------------------------------------------------------
 # B3LYP/6-311++G(d,p) empiricaldispersion=gd3bj scf=xqc pop=npa geom=c
 heck
 ----------------------------------------------------------------------

 ------------------------------------
 CID_149584902_JID_6359_Energie_anion
 ------------------------------------
 Structure from the checkpoint file:  "JID_6359.chk"
 Charge = -1 Multiplicity = 2

                         Standard orientation:
 ---------------------------------------------------------------------
 Center     Atomic      Atomic             Coordinates (Angstroms)
 Number     Number       Type             X           Y           Z
 ---------------------------------------------------------------------
      1          6           0        4.341054    1.636787   -0.229151
      2          6           0        3.777148    0.486166    0.610523
      3          6           0        2.439226    0.007283    0.061515
      4          6           0        1.268838    0.187201    0.782823
      5          6           0        0.045788   -0.270825    0.246950
      6          7           0       -0.041127   -0.873493   -0.947207
      7          6           0        1.100788   -1.046422   -1.629352
      8          6           0        2.349024   -0.636384   -1.185981
      9          7           0       -1.123002   -0.138148    0.975270
     10          6           0       -2.405688   -0.340249    0.356043
     11          6           0       -2.884956   -1.718729    0.248819
     12          8           0       -3.387697   -0.830865    1.267904
     13          6           0       -2.861180    0.746253   -0.572291
     14          6           0       -4.324695    0.946330   -0.851505
     15          6           0       -3.581529    1.942700    0.004482
     16          7           0        4.796752   -0.567162    0.724291
     17          1           0        4.530624    1.310595   -1.259092
     18          1           0        5.285648    1.981732    0.201510
     19          1           0        3.635874    2.472716   -0.269778
     20          1           0        3.602631    0.860269    1.627328
     21          1           0        1.289926    0.669473    1.757484
     22          1           0        0.996673   -1.540332   -2.594237
     23          1           0        3.229854   -0.808800   -1.796921
     24          1           0       -1.116043    0.578316    1.690897
     25          1           0       -3.595277   -1.971475   -0.536121
     26          1           0       -2.250320   -2.524111    0.610282
     27          1           0       -2.162644    0.925216   -1.385110
     28          1           0       -4.615609    1.238297   -1.856266
     29          1           0       -5.021022    0.286733   -0.343200
     30          1           0       -3.798281    1.932113    1.069298
     31          1           0       -3.360371    2.924351   -0.404138
     32          1           0        4.406293   -1.363709    1.226693
     33          1           0        5.032360   -0.913515   -0.205601
 ---------------------------------------------------------------------

 SCF Done:  E(UB3LYP) =  -707.166103519     A.U. after   33 cycles
 SCF Done:  E(UB3LYP) =  -707.166103519     a.u. after    1 cycles

 The electronic state is 2-A.
 Alpha  occ. eigenvalues --  -19.05214 -14.23390 -14.19878 -14.19670 -10.17596
 Alpha  occ. eigenvalues --  -10.14704 -10.13441 -10.10813 -10.10220 -10.09236
 Alpha  occ. eigenvalues --  -10.08838 -10.08575 -10.08405 -10.07205 -10.06698
 Alpha  occ. eigenvalues --  -10.06334  -1.00061  -0.87141  -0.80745  -0.79484
 Alpha  occ. eigenvalues --   -0.77161  -0.70462  -0.65266  -0.63559  -0.59952
 Alpha  occ. eigenvalues --   -0.56972  -0.54092  -0.53536  -0.51490  -0.49834
 Alpha  occ. eigenvalues --   -0.46846  -0.44307  -0.42803  -0.41745  -0.39899
 Alpha  occ. eigenvalues --   -0.39681  -0.38805  -0.37073  -0.35124  -0.34374
 Alpha  occ. eigenvalues --   -0.33603  -0.32590  -0.32187  -0.31078  -0.28839
 Alpha  occ. eigenvalues --   -0.28073  -0.28015  -0.27448  -0.27392  -0.25495
 Alpha  occ. eigenvalues --   -0.24719  -0.22681  -0.20680  -0.19905  -0.19594
 Alpha  occ. eigenvalues --   -0.18306  -0.16416  -0.14842  -0.11985   0.04363
 Alpha virt. eigenvalues --    0.06267   0.06775   0.07168   0.07596   0.08304
 Alpha virt. eigenvalues --    0.08335   0.08611   0.09123   0.09420   0.10191
 Alpha virt. eigenvalues --    0.10832   0.10923   0.11211   0.11854   0.12302

  Beta  occ. eigenvalues --  -19.05211 -14.23373 -14.19840 -14.19626 -10.17597
  Beta  occ. eigenvalues --  -10.14711 -10.13437 -10.10804 -10.10182 -10.09233
  Beta  occ. eigenvalues --  -10.08801 -10.08568 -10.08382 -10.07169 -10.06687
  Beta  occ. eigenvalues --  -10.06312  -1.00058  -0.87099  -0.80691  -0.79406
  Beta  occ. eigenvalues --   -0.77146  -0.70375  -0.65213  -0.63502  -0.59929
  Beta  occ. eigenvalues --   -0.56953  -0.54021  -0.53478  -0.51442  -0.49797
  Beta  occ. eigenvalues --   -0.46798  -0.44282  -0.42758  -0.41725  -0.39846
  Beta  occ. eigenvalues --   -0.39641  -0.38740  -0.37031  -0.35070  -0.34350
  Beta  occ. eigenvalues --   -0.33551  -0.32555  -0.32136  -0.31013  -0.28809
  Beta  occ. eigenvalues --   -0.28041  -0.27971  -0.27411  -0.27332  -0.25479
  Beta  occ. eigenvalues --   -0.24669  -0.22635  -0.20635  -0.19899  -0.19577
  Beta  occ. eigenvalues --   -0.18126  -0.16357  -0.14764  -0.11902
  Beta virt. eigenvalues --    0.06521   0.06998   0.07416   0.07552   0.07881
  Beta virt. eigenvalues --    0.08599   0.08757   0.08827   0.09280   0.09773
  Beta virt. eigenvalues --    0.10498   0.11000   0.11207   0.11520   0.11889

 Mulliken charges and spin densities:
               1          2
     1  C    0.595582  -1.270991
     2  C    2.542873  -2.994103
     3  C    0.395767   0.476575
     4  C   -1.033750   0.333204
     5  C    0.692769  -1.173479
     6  N   -0.058367   0.063989
     7  C    1.559075  -1.718906
     8  C   -2.942834   2.895515
     9  N    0.033211   0.118330
    10  C    0.014074  -0.407323
    11  C   -0.305913   0.012386
    12  O   -0.139956   0.015065
    13  C   -0.750418   1.078086
    14  C   -0.044935  -0.267277
    15  C    0.566312  -1.070317
    16  N   -0.195176  -0.063544
    17  H   -0.110833   0.261872
    18  H    0.114567   0.031083
    19  H   -0.210683   0.362325
    20  H   -0.230836   0.431875
    21  H   -0.499288   0.642645
    22  H   -0.033194   0.196786
    23  H   -0.723366   0.876808
    24  H    0.002895   0.276277
    25  H    0.141016  -0.006497
    26  H    0.057027   0.115624
    27  H   -0.118595   0.379557
    28  H   -0.005943   0.145097
    29  H    0.120372   0.034596
    30  H   -0.041863   0.207428
    31  H   -0.312465   0.473537
    32  H   -0.024901   0.251250
    33  H   -0.052224   0.292525
 Sum of Mulliken charges =  -1.00000   1.00000

 Dipole moment (field-independent basis, Debye):
    X=             -5.3340    Y=             -3.0634    Z=             -0.5418  Tot=              6.1749
 Quadrupole moment (field-independent basis, Debye-Ang):
   XX=           -184.7113   YY=           -134.1008   ZZ=           -133.0766
   XY=              9.6598   XZ=              3.3335   YZ=              0.1464

 Summary of Natural Population Analysis:

                                       Natural Population
                Natural  -----------------------------------------------
    Atom  No    Charge         Core      Valence    Rydberg      Total
 -----------------------------------------------------------------------
      C    1   -0.28170      0.99964     2.27708    0.00498     3.28170
      C    2   -0.02280      0.99957     2.01033    0.01290     3.02280
      C    3    0.01169      0.99950     1.97672    0.01210     2.98831
      C    4   -0.13368      0.99946     2.12513    0.00909     3.13368
      C    5    0.20507      0.99953     1.77962    0.01578     2.79493
      N    6   -0.26747      0.99967     2.75731    0.01048     3.76747
      C    7    0.04300      0.99958     1.94252    0.01490     2.95700
      C    8   -0.14656      0.99949     2.13726    0.00981     3.14656
      N    9   -0.31736      0.99964     2.80633    0.01140     3.81736
      C   10    0.20404      0.99952     1.77663    0.01981     2.79596
      C   11   -0.01918      0.99949     2.00890    0.01079     3.01918
      O   12   -0.28412      0.99991     3.27853    0.00568     4.28412
      C   13   -0.13109      0.99953     2.12005    0.01151     3.13109
      C   14   -0.19892      0.99962     2.19145    0.00785     3.19892
      C   15   -0.19516      0.99963     2.18702    0.00851     3.19516
      N   16   -0.41454      0.99978     2.90508    0.00969     3.91454
      H   17    0.09716      0.00000     0.40149    0.00135     0.40284
      H   18    0.10168      0.00000     0.39721    0.00111     0.39832
      H   19    0.10394      0.00000     0.39467    0.00139     0.39606
      H   20    0.09233      0.00000     0.40568    0.00199     0.40767
      H   21    0.10346      0.00000     0.39413    0.00241     0.39654
      H   22    0.08762      0.00000     0.41126    0.00112     0.41238
      H   23    0.10371      0.00000     0.39426    0.00202     0.39629
      H   24    0.19392      0.00000     0.30283    0.00325     0.30608
      H   25    0.08710      0.00000     0.41198    0.00091     0.41290
      H   26    0.09419      0.00000     0.40476    0.00105     0.40581
      H   27    0.11857      0.00000     0.37992    0.00151     0.38143
      H   28    0.10123      0.00000     0.39798    0.00079     0.39877
      H   29    0.10568      0.00000     0.39314    0.00118     0.39432
      H   30    0.10394      0.00000     0.39488    0.00118     0.39606
      H   31    0.10502      0.00000     0.39370    0.00128     0.39498
      H   32    0.17627      0.00000     0.32179    0.00194     0.32373
      H   33    0.17296      0.00000     0.32465    0.00239     0.32704
 =======================================================================
   * Total *    0.00000     15.99357    42.80430    0.20213    59.00000

 Normal termination of Gaussian 16 at Thu Dec 10 23:23:30 2020.
