 Gaussian 16, Revision A.03,

 -----------------------------------------------------------
 # opt freq B3LYP/6-31G(d) empiricaldispersion=gd3bj scf=xqc
 -----------------------------------------------------------

 ------------------------------
 CID_80233369_JID_1921_neutraal
 ------------------------------
 Symbolic Z-matrix:
 Charge =  0 Multiplicity = 1

 SCF Done:  E(RB3LYP) =  -803.725818957     A.U. after   14 cycles
 SCF Done:  E(RB3LYP) =  -803.728837103     A.U. after   12 cycles
 SCF Done:  E(RB3LYP) =  -803.729866826     A.U. after   12 cycles
 SCF Done:  E(RB3LYP) =  -803.729862663     A.U. after   13 cycles
 SCF Done:  E(RB3LYP) =  -803.730650746     A.U. after   12 cycles
 SCF Done:  E(RB3LYP) =  -803.730898959     A.U. after   11 cycles
 SCF Done:  E(RB3LYP) =  -803.731031264     A.U. after   11 cycles
 SCF Done:  E(RB3LYP) =  -803.731095004     A.U. after   11 cycles
 SCF Done:  E(RB3LYP) =  -803.731155088     A.U. after   11 cycles
 SCF Done:  E(RB3LYP) =  -803.731202792     A.U. after   11 cycles
 SCF Done:  E(RB3LYP) =  -803.731238800     A.U. after   10 cycles
 SCF Done:  E(RB3LYP) =  -803.731242213     A.U. after   10 cycles
 SCF Done:  E(RB3LYP) =  -803.731242348     A.U. after    7 cycles
 SCF Done:  E(RB3LYP) =  -803.731242373     A.U. after    7 cycles
 Optimization completed.
    -- Stationary point found.
 Normal termination of Gaussian 16 at Tue Dec  8 21:34:47 2020.

 --------------------------------------------------------------------
 #N Geom=AllCheck Guess=TCheck SCRF=Check GenChk RB3LYP/6-31G(d) Freq
 --------------------------------------------------------------------

 Structure from the checkpoint file:  "JID_1921.chk"
 ------------------------------
 CID_80233369_JID_1921_neutraal
 ------------------------------
 Charge =  0 Multiplicity = 1

 SCF Done:  E(RB3LYP) =  -803.731242373     A.U. after    1 cycles

  Exact polarizability: 136.160   1.225 115.673 -11.495   4.710  83.273
 Approx polarizability: 196.797  -0.369 192.320 -26.443   7.246 126.466

                      1                      2                      3
                      A                      A                      A
 Frequencies --     35.6831                56.5641                93.8628
 Red. masses --      3.7988                 4.0597                 2.8049
 Frc consts  --      0.0028                 0.0077                 0.0146
 IR Inten    --      0.0449                 0.0437                 0.0105

                      4                      5                      6
                      A                      A                      A
 Frequencies --    153.5427               166.8707               204.6169
 Red. masses --      1.4886                 2.3752                 3.3623
 Frc consts  --      0.0207                 0.0390                 0.0829
 IR Inten    --      0.8590                 0.1559                 0.3720

                      7                      8                      9
                      A                      A                      A
 Frequencies --    229.9459               266.9827               291.0320
 Red. masses --      2.0832                 2.1435                 1.6709
 Frc consts  --      0.0649                 0.0900                 0.0834
 IR Inten    --      0.5626                20.2010                17.0800

                     10                     11                     12
                      A                      A                      A
 Frequencies --    313.6398               327.6264               437.6465
 Red. masses --      2.0657                 3.3098                 2.1828
 Frc consts  --      0.1197                 0.2093                 0.2463
 IR Inten    --     23.6080                 1.3897                 4.9180

                     13                     14                     15
                      A                      A                      A
 Frequencies --    454.9797               490.6213               508.7647
 Red. masses --      2.7553                 3.4366                 2.9735
 Frc consts  --      0.3361                 0.4874                 0.4535
 IR Inten    --      3.1319                 2.3924                 4.0394

                     16                     17                     18
                      A                      A                      A
 Frequencies --    566.0753               593.0683               664.3444
 Red. masses --      5.5248                 3.2340                 2.3008
 Frc consts  --      1.0431                 0.6702                 0.5983
 IR Inten    --      1.1717                 5.8828                 1.8917

                     19                     20                     21
                      A                      A                      A
 Frequencies --    703.4582               754.5881               776.8561
 Red. masses --      1.3282                 2.5464                 2.7383
 Frc consts  --      0.3872                 0.8543                 0.9737
 IR Inten    --      0.0139                 3.2496                 7.9129

                     22                     23                     24
                      A                      A                      A
 Frequencies --    818.1088               858.8256               874.6158
 Red. masses --      1.4107                 4.2046                 4.3020
 Frc consts  --      0.5563                 1.8272                 1.9389
 IR Inten    --     50.3517                 1.7660                17.4001

                     25                     26                     27
                      A                      A                      A
 Frequencies --    888.2256               925.1306               939.8071
 Red. masses --      2.9005                 1.3377                 1.3466
 Frc consts  --      1.3483                 0.6745                 0.7008
 IR Inten    --     53.2300                39.5834                31.2019

                     28                     29                     30
                      A                      A                      A
 Frequencies --    946.9505              1019.3636              1031.8391
 Red. masses --      1.7599                 2.1312                 1.3978
 Frc consts  --      0.9298                 1.3048                 0.8768
 IR Inten    --     60.1523                40.4239                11.4411

                     31                     32                     33
                      A                      A                      A
 Frequencies --   1041.8854              1063.6365              1074.8981
 Red. masses --      1.1775                 1.8294                 1.4788
 Frc consts  --      0.7531                 1.2194                 1.0067
 IR Inten    --     28.7726                 6.3837                 5.2929

                     34                     35                     36
                      A                      A                      A
 Frequencies --   1108.0490              1173.2196              1186.5636
 Red. masses --      2.2624                 1.7806                 1.3673
 Frc consts  --      1.6366                 1.4440                 1.1342
 IR Inten    --      7.5713                 0.5713                 9.0335

                     37                     38                     39
                      A                      A                      A
 Frequencies --   1211.9205              1229.3761              1269.4680
 Red. masses --      1.4596                 1.4221                 1.3033
 Frc consts  --      1.2631                 1.2663                 1.2375
 IR Inten    --      0.7629                 2.5743                 0.5395

                     40                     41                     42
                      A                      A                      A
 Frequencies --   1297.5781              1335.4885              1375.3421
 Red. masses --      1.5624                 1.2396                 1.3782
 Frc consts  --      1.5499                 1.3026                 1.5360
 IR Inten    --     25.8867                 0.9415                 6.3767

                     43                     44                     45
                      A                      A                      A
 Frequencies --   1407.1520              1443.2316              1451.5078
 Red. masses --      2.5553                 1.3222                 1.5874
 Frc consts  --      2.9811                 1.6226                 1.9705
 IR Inten    --      5.1735                 1.4018                10.4865

                     46                     47                     48
                      A                      A                      A
 Frequencies --   1475.9243              1502.5252              1511.6513
 Red. masses --      1.2003                 3.1503                 1.1108
 Frc consts  --      1.5406                 4.1903                 1.4955
 IR Inten    --      2.6705                 4.9106                 8.1114

                     49                     50                     51
                      A                      A                      A
 Frequencies --   1520.6898              1530.8901              1616.2400
 Red. masses --      1.1608                 1.1940                 5.9745
 Frc consts  --      1.5815                 1.6487                 9.1952
 IR Inten    --     16.6748                 5.3172                 0.2580

                     52                     53                     54
                      A                      A                      A
 Frequencies --   1703.1184              1728.6570              3031.6066
 Red. masses --      1.0909                 4.3930                 1.0809
 Frc consts  --      1.8644                 7.7345                 5.8530
 IR Inten    --     16.8035                 6.0901                19.8246

                     55                     56                     57
                      A                      A                      A
 Frequencies --   3041.4545              3049.7550              3090.5312
 Red. masses --      1.0397                 1.0644                 1.0999
 Frc consts  --      5.6667                 5.8329                 6.1895
 IR Inten    --     17.8055                65.3511                23.9740

                     58                     59                     60
                      A                      A                      A
 Frequencies --   3095.2198              3125.1464              3151.9169
 Red. masses --      1.0992                 1.1002                 1.0588
 Frc consts  --      6.2047                 6.3306                 6.1973
 IR Inten    --     26.7432                21.9321                15.1352

                     61                     62                     63
                      A                      A                      A
 Frequencies --   3166.1382              3234.2340              3259.2294
 Red. masses --      1.0916                 1.1152                 1.0937
 Frc consts  --      6.4474                 6.8731                 6.8448
 IR Inten    --      7.1144                18.5663                 1.7286

                     64                     65                     66
                      A                      A                      A
 Frequencies --   3290.5177              3449.4107              3537.9875
 Red. masses --      1.0932                 1.0508                 1.0903
 Frc consts  --      6.9738                 7.3667                 8.0407
 IR Inten    --      0.8455                 2.0777                 1.8208

 - Thermochemistry -
 -------------------
 Temperature   298.150 Kelvin.  Pressure   1.00000 Atm.
 Atom     1 has atomic number  6 and mass  12.00000

 Molecular mass:   167.07687 amu.
 Principal axes and moments of inertia in atomic units:
                           1         2         3
     Eigenvalues --  1275.177722777.947713141.96680
           X            0.99940   0.03462   0.00105
           Y           -0.03463   0.99940   0.00279
           Z           -0.00095  -0.00283   1.00000
 This molecule is an asymmetric top.
 Rotational symmetry number  1.
 Warning -- assumption of classical behavior for rotation
           may cause significant error
 Rotational temperatures (Kelvin)      0.06792     0.03118     0.02757
 Rotational constants (GHZ):           1.41529     0.64967     0.57440
 Zero-point vibrational energy     533389.7 (Joules/Mol)
                                  127.48320 (Kcal/Mol)
 Warning -- explicit consideration of  17 degrees of freedom as
           vibrations may cause significant error
 Vibrational temperatures:     51.34    81.38   135.05   220.91   240.09
          (Kelvin)            294.40   330.84   384.13   418.73   451.26
                              471.38   629.68   654.61   705.89   732.00
                              814.46   853.29   955.84  1012.12  1085.68
                             1117.72  1177.08  1235.66  1258.38  1277.96
                             1331.06  1352.17  1362.45  1466.64  1484.59
                             1499.04  1530.34  1546.54  1594.24  1688.00
                             1707.20  1743.68  1768.80  1826.48  1866.93
                             1921.47  1978.81  2024.58  2076.49  2088.40
                             2123.53  2161.80  2174.93  2187.93  2202.61
                             2325.41  2450.41  2487.15  4361.81  4375.97
                             4387.92  4446.59  4453.33  4496.39  4534.91
                             4555.37  4653.34  4689.30  4734.32  4962.93
                             5090.37

 Zero-point correction=                           0.203157 (Hartree/Particle)
 Thermal correction to Energy=                    0.214902
 Thermal correction to Enthalpy=                  0.215846
 Thermal correction to Gibbs Free Energy=         0.164849
 Sum of electronic and zero-point Energies=           -803.528085
 Sum of electronic and thermal Energies=              -803.516340
 Sum of electronic and thermal Enthalpies=            -803.515396
 Sum of electronic and thermal Free Energies=         -803.566393

                     E (Thermal)             CV                S
                      KCal/Mol        Cal/Mol-Kelvin    Cal/Mol-Kelvin
 Total                  134.853             44.160            107.332
 Electronic               0.000              0.000              0.000
 Translational            0.889              2.981             41.248
 Rotational               0.889              2.981             30.788
 Vibrational            133.076             38.199             35.296
 Vibration     1          0.594              1.982              5.485
 Vibration     2          0.596              1.975              4.574
 Vibration     3          0.603              1.954              3.578
 Vibration     4          0.619              1.899              2.628
 Vibration     5          0.624              1.883              2.470
 Vibration     6          0.640              1.833              2.091
 Vibration     7          0.652              1.795              1.879
 Vibration     8          0.672              1.734              1.616
 Vibration     9          0.687              1.690              1.468
 Vibration    10          0.701              1.648              1.343
 Vibration    11          0.711              1.620              1.272
 Vibration    12          0.798              1.388              0.834
 Vibration    13          0.813              1.350              0.781
 Vibration    14          0.846              1.271              0.682
 Vibration    15          0.864              1.231              0.637
 Vibration    16          0.922              1.105              0.512
 Vibration    17          0.951              1.047              0.462

 Optimization completed.
    -- Stationary point found.
 Normal termination of Gaussian 16 at Tue Dec  8 21:40:16 2020.

 ----------------------------------------------------------------------
 # B3LYP/6-311++G(d,p) empiricaldispersion=gd3bj scf=xqc pop=npa geom=c
 heck
 ----------------------------------------------------------------------

 --------------------------------------
 CID_80233369_JID_1921_Energie_neutraal
 --------------------------------------
 Structure from the checkpoint file:  "JID_1921.chk"
 Charge =  0 Multiplicity = 1

 SCF Done:  E(RB3LYP) =  -803.876293887     A.U. after   15 cycles
 Normal termination of Gaussian 16 at Tue Dec  8 21:42:53 2020.

 ----------------------------------------------------------------------
 # B3LYP/6-311++G(d,p) empiricaldispersion=gd3bj scf=xqc pop=npa geom=c
 heck
 ----------------------------------------------------------------------

 ------------------------------------
 CID_80233369_JID_1921_Energie_kation
 ------------------------------------
 Structure from the checkpoint file:  "JID_1921.chk"
 Charge =  1 Multiplicity = 2

 SCF Done:  E(UB3LYP) =  -803.574935578     A.U. after   33 cycles
 SCF Done:  E(UB3LYP) =  -803.574938635     a.u. after    3 cycles
 Normal termination of Gaussian 16 at Tue Dec  8 21:57:48 2020.
 Gaussian 16:  ES64L-G16RevA.03 25-Dec-2016

 ----------------------------------------------------------------------
 # B3LYP/6-311++G(d,p) empiricaldispersion=gd3bj scf=xqc pop=npa geom=c
 heck
 ----------------------------------------------------------------------

 -----------------------------------
 CID_80233369_JID_1921_Energie_anion
 -----------------------------------
 Structure from the checkpoint file:  "JID_1921.chk"
 Charge = -1 Multiplicity = 2

                         Standard orientation:
 ---------------------------------------------------------------------
 Center     Atomic      Atomic             Coordinates (Angstroms)
 Number     Number       Type             X           Y           Z
 ---------------------------------------------------------------------
      1          6           0        1.001868    2.496932   -0.008173
      2          6           0        1.254458    1.012815   -0.018726
      3          6           0        2.410899    0.458115   -0.497890
      4         16           0        2.432806   -1.269480   -0.345302
      5          6           0        0.860438   -1.253199    0.385121
      6          6           0        0.347072    0.010013    0.493361
      7          6           0       -1.020417    0.302349    1.075972
      8          6           0       -1.983774    0.911399    0.007383
      9          6           0       -2.186740   -0.010780   -1.158777
     10          6           0       -3.302491   -0.704571   -1.392846
     11          7           0       -1.576304   -0.898260    1.708691
     12          1           0        0.311706    2.806074   -0.802977
     13          1           0        0.565908    2.824097    0.943356
     14          1           0        1.934737    3.049823   -0.153656
     15          1           0        3.260012    0.977746   -0.921772
     16          1           0        0.409160   -2.169445    0.734889
     17          1           0       -0.902062    1.053483    1.868943
     18          1           0       -2.944010    1.116818    0.497956
     19          1           0       -1.590098    1.873427   -0.340361
     20          1           0       -1.328705   -0.142893   -1.816894
     21          1           0       -3.390904   -1.383139   -2.236995
     22          1           0       -4.179759   -0.603389   -0.756373
     23          1           0       -2.389526   -0.630926    2.261038
     24          1           0       -1.935119   -1.510619    0.974312
 ---------------------------------------------------------------------

 SCF Done:  E(UB3LYP) =  -803.861227305     A.U. after   33 cycles
 SCF Done:  E(UB3LYP) =  -803.861227305     a.u. after    1 cycles

 The electronic state is 2-A.
 Alpha  occ. eigenvalues --  -88.77338 -14.18904 -10.10598 -10.09140 -10.09001
 Alpha  occ. eigenvalues --  -10.08281 -10.07690 -10.07660 -10.06672 -10.06620
 Alpha  occ. eigenvalues --  -10.06488  -7.85966  -5.82246  -5.81893  -5.81574
 Alpha  occ. eigenvalues --   -0.79890  -0.77209  -0.69203  -0.66662  -0.64087
 Alpha  occ. eigenvalues --   -0.60036  -0.57121  -0.52205  -0.46745  -0.46020
 Alpha  occ. eigenvalues --   -0.41984  -0.39572  -0.38028  -0.36679  -0.33294
 Alpha  occ. eigenvalues --   -0.32608  -0.31923  -0.31737  -0.30919  -0.29369
 Alpha  occ. eigenvalues --   -0.27030  -0.26904  -0.26218  -0.24839  -0.24465
 Alpha  occ. eigenvalues --   -0.23030  -0.17076  -0.14826  -0.13815  -0.13254
 Alpha  occ. eigenvalues --    0.04671
 Alpha virt. eigenvalues --    0.06616   0.07558   0.08084   0.08519   0.08840
 Alpha virt. eigenvalues --    0.09182   0.09855   0.10262   0.11157   0.11904
 Alpha virt. eigenvalues --    0.12033   0.12671   0.12920   0.13684   0.13977

  Beta  occ. eigenvalues --  -88.77336 -14.18875 -10.10583 -10.09121 -10.08990
  Beta  occ. eigenvalues --  -10.08280 -10.07687 -10.07651 -10.06642 -10.06590
  Beta  occ. eigenvalues --  -10.06437  -7.85965  -5.82245  -5.81888  -5.81571
  Beta  occ. eigenvalues --   -0.79848  -0.77181  -0.69158  -0.66630  -0.64048
  Beta  occ. eigenvalues --   -0.59986  -0.57055  -0.52147  -0.46705  -0.45950
  Beta  occ. eigenvalues --   -0.41943  -0.39521  -0.37974  -0.36641  -0.33248
  Beta  occ. eigenvalues --   -0.32557  -0.31878  -0.31690  -0.30875  -0.29342
  Beta  occ. eigenvalues --   -0.26985  -0.26865  -0.26180  -0.24800  -0.24431
  Beta  occ. eigenvalues --   -0.22989  -0.17009  -0.14796  -0.13787  -0.13217
  Beta virt. eigenvalues --    0.07140   0.07619   0.08090   0.08352   0.08872
  Beta virt. eigenvalues --    0.09312   0.09368   0.10397   0.10898   0.11643
  Beta virt. eigenvalues --    0.12212   0.12565   0.12976   0.13194   0.13742

 Mulliken charges and spin densities:
               1          2
     1  C    3.331643  -4.125929
     2  C   -2.885351   2.364047
     3  C    0.664124  -0.487294
     4  S   -0.021629  -0.505112
     5  C    0.122905   0.527875
     6  C   -0.433315   0.582910
     7  C    1.141578  -1.462393
     8  C    0.888860  -1.312420
     9  C   -2.102410   2.254923
    10  C    1.562052  -2.189469
    11  N   -0.386743   0.017490
    12  H   -0.314275   0.491727
    13  H   -0.359819   0.525822
    14  H   -0.284545   0.436034
    15  H   -0.585699   0.848635
    16  H    0.141224   0.129741
    17  H   -0.269216   0.521825
    18  H   -0.872664   1.078392
    19  H    0.022221   0.066970
    20  H   -0.236508   0.402397
    21  H    0.000106   0.108974
    22  H   -0.258985   0.398398
    23  H   -0.089123   0.344580
    24  H    0.225568  -0.018121
 Sum of Mulliken charges =  -1.00000   1.00000

 Dipole moment (field-independent basis, Debye):
    X=              3.0615    Y=             -5.9733    Z=             -2.3338  Tot=              7.1063
 Quadrupole moment (field-independent basis, Debye-Ang):
   XX=           -138.0588   YY=           -119.3414   ZZ=           -112.4869
   XY=             -1.8323   XZ=              7.3384   YZ=             -0.4194

 Summary of Natural Population Analysis:

                                       Natural Population
                Natural  -----------------------------------------------
    Atom  No    Charge         Core      Valence    Rydberg      Total
 -----------------------------------------------------------------------
      C    1   -0.29218      0.99963     2.28653    0.00602     3.29218
      C    2   -0.03748      0.99945     2.02659    0.01145     3.03748
      C    3   -0.19389      0.99946     2.18245    0.01199     3.19389
      S    4    0.18767      4.99946     2.79013    0.02274     7.81233
      C    5   -0.18634      0.99944     2.17754    0.00935     3.18634
      C    6   -0.04063      0.99943     2.02771    0.01349     3.04063
      C    7   -0.01531      0.99956     2.00138    0.01438     3.01531
      C    8   -0.21424      0.99959     2.20253    0.01213     3.21424
      C    9   -0.08236      0.99956     2.07209    0.01071     3.08236
      C   10   -0.19682      0.99955     2.18973    0.00754     3.19682
      N   11   -0.42100      0.99977     2.91107    0.01016     3.92100
      H   12    0.10519      0.00000     0.39313    0.00167     0.39481
      H   13    0.10735      0.00000     0.39090    0.00175     0.39265
      H   14    0.10667      0.00000     0.39166    0.00168     0.39333
      H   15    0.10988      0.00000     0.38883    0.00129     0.39012
      H   16    0.11515      0.00000     0.38375    0.00109     0.38485
      H   17    0.10382      0.00000     0.39348    0.00269     0.39618
      H   18    0.10346      0.00000     0.39270    0.00384     0.39654
      H   19    0.10760      0.00000     0.39016    0.00224     0.39240
      H   20    0.09583      0.00000     0.40269    0.00148     0.40417
      H   21    0.09133      0.00000     0.40785    0.00081     0.40867
      H   22    0.09273      0.00000     0.40580    0.00147     0.40727
      H   23    0.17977      0.00000     0.31767    0.00256     0.32023
      H   24    0.17380      0.00000     0.32404    0.00216     0.32620
 =======================================================================
   * Total *    0.00000     14.99488    29.85042    0.15470    45.00000

 Normal termination of Gaussian 16 at Tue Dec  8 22:03:05 2020.
