 Gaussian 16, Revision A.03,

 -----------------------------------------------------------
 # opt freq B3LYP/6-31G(d) empiricaldispersion=gd3bj scf=xqc
 -----------------------------------------------------------

 -------------------------------
 CID_125461517_JID_7124_neutraal
 -------------------------------
 Symbolic Z-matrix:
 Charge =  0 Multiplicity = 1

 SCF Done:  E(RB3LYP) =  -822.014995092     A.U. after   15 cycles
 SCF Done:  E(RB3LYP) =  -822.021185034     A.U. after   12 cycles
 SCF Done:  E(RB3LYP) =  -822.021766598     A.U. after   12 cycles
 SCF Done:  E(RB3LYP) =  -822.022428967     A.U. after   12 cycles
 SCF Done:  E(RB3LYP) =  -822.022991891     A.U. after   12 cycles
 SCF Done:  E(RB3LYP) =  -822.023429182     A.U. after   12 cycles
 SCF Done:  E(RB3LYP) =  -822.023355889     A.U. after   14 cycles
 SCF Done:  E(RB3LYP) =  -822.024203682     A.U. after   13 cycles
 SCF Done:  E(RB3LYP) =  -822.024521631     A.U. after   13 cycles
 SCF Done:  E(RB3LYP) =  -822.024579977     A.U. after   11 cycles
 SCF Done:  E(RB3LYP) =  -822.024619353     A.U. after   10 cycles
 SCF Done:  E(RB3LYP) =  -822.024624806     A.U. after   10 cycles
 SCF Done:  E(RB3LYP) =  -822.024626329     A.U. after    9 cycles
 SCF Done:  E(RB3LYP) =  -822.024626855     A.U. after    7 cycles
 SCF Done:  E(RB3LYP) =  -822.024627193     A.U. after    8 cycles
 SCF Done:  E(RB3LYP) =  -822.024627277     A.U. after    7 cycles
 Optimization completed.
    -- Stationary point found.
 Normal termination of Gaussian 16 at Sun Dec 13 12:34:46 2020.

 --------------------------------------------------------------------
 #N Geom=AllCheck Guess=TCheck SCRF=Check GenChk RB3LYP/6-31G(d) Freq
 --------------------------------------------------------------------

 Structure from the checkpoint file:  "JID_7124.chk"
 -------------------------------
 CID_125461517_JID_7124_neutraal
 -------------------------------
 Charge =  0 Multiplicity = 1

 SCF Done:  E(RB3LYP) =  -822.024627277     A.U. after    1 cycles

  Exact polarizability: 217.596  19.849 160.740  -2.434   5.793  84.038
 Approx polarizability: 297.641  49.091 278.511  -3.100  10.702 122.097

                      1                      2                      3
                      A                      A                      A
 Frequencies --     20.0487                29.1415                41.5861
 Red. masses --      5.0863                 3.8346                10.2274
 Frc consts  --      0.0012                 0.0019                 0.0104
 IR Inten    --      0.1212                 0.1460                 0.9719

                      4                      5                      6
                      A                      A                      A
 Frequencies --     52.4610                92.2212               116.6057
 Red. masses --      4.6457                 4.8216                 4.0090
 Frc consts  --      0.0075                 0.0242                 0.0321
 IR Inten    --      1.6144                 0.0645                 0.5395

                      7                      8                      9
                      A                      A                      A
 Frequencies --    134.6972               180.8758               183.8187
 Red. masses --      4.4068                 5.4470                 4.7257
 Frc consts  --      0.0471                 0.1050                 0.0941
 IR Inten    --      1.4876                 0.7719                 0.0338

                     10                     11                     12
                      A                      A                      A
 Frequencies --    209.7770               214.8371               249.4211
 Red. masses --      1.1281                 4.6755                 2.0111
 Frc consts  --      0.0292                 0.1271                 0.0737
 IR Inten    --      0.1550                 0.8919                 3.2443

                     13                     14                     15
                      A                      A                      A
 Frequencies --    256.2057               275.0968               281.4965
 Red. masses --      1.4069                 1.0678                 5.1198
 Frc consts  --      0.0544                 0.0476                 0.2390
 IR Inten    --      1.6178                 0.0267                 2.5402

                     16                     17                     18
                      A                      A                      A
 Frequencies --    333.1001               352.3216               389.7261
 Red. masses --      3.4441                 2.5228                 5.2023
 Frc consts  --      0.2252                 0.1845                 0.4655
 IR Inten    --      5.3973                 1.7143                11.7913

                     19                     20                     21
                      A                      A                      A
 Frequencies --    400.3682               424.7406               459.5787
 Red. masses --      3.1324                 2.9281                 2.9367
 Frc consts  --      0.2958                 0.3112                 0.3655
 IR Inten    --      8.0305                 4.5660                 2.2990

                     22                     23                     24
                      A                      A                      A
 Frequencies --    488.1601               539.0698               572.2184
 Red. masses --      2.9825                 5.2540                 4.1937
 Frc consts  --      0.4188                 0.8996                 0.8090
 IR Inten    --     10.9142                 3.8280                43.9811

                     25                     26                     27
                      A                      A                      A
 Frequencies --    599.8182               607.9348               636.7391
 Red. masses --      3.3164                 1.7146                 1.9354
 Frc consts  --      0.7030                 0.3734                 0.4623
 IR Inten    --      6.6333                55.6203                28.7401

                     28                     29                     30
                      A                      A                      A
 Frequencies --    671.1038               731.1232               746.7872
 Red. masses --      5.7297                 2.2928                 1.5027
 Frc consts  --      1.5204                 0.7221                 0.4938
 IR Inten    --     29.3589                 1.2252                54.8863

                     31                     32                     33
                      A                      A                      A
 Frequencies --    755.6310               759.2900               782.0599
 Red. masses --      3.9879                 9.1311                 4.1797
 Frc consts  --      1.3416                 3.1016                 1.5062
 IR Inten    --     16.5119                10.1198                 5.6149

                     34                     35                     36
                      A                      A                      A
 Frequencies --    833.9558               853.6510               854.7441
 Red. masses --      1.8191                 1.8894                 4.4032
 Frc consts  --      0.7454                 0.8112                 1.8953
 IR Inten    --     19.7193                28.1676                19.0353

                     37                     38                     39
                      A                      A                      A
 Frequencies --    869.5789               887.9000               902.6666
 Red. masses --      3.5217                 3.8466                 1.5017
 Frc consts  --      1.5690                 1.7867                 0.7209
 IR Inten    --     39.3416                 8.7878                 5.0106

                     40                     41                     42
                      A                      A                      A
 Frequencies --    923.0407               939.4384               941.3977
 Red. masses --      3.7545                 1.6251                 1.6485
 Frc consts  --      1.8847                 0.8450                 0.8608
 IR Inten    --     29.8894                 0.1337                 0.2128

                     43                     44                     45
                      A                      A                      A
 Frequencies --    985.0786              1011.5044              1050.1255
 Red. masses --      1.1984                 1.2434                 1.5621
 Frc consts  --      0.6851                 0.7495                 1.0149
 IR Inten    --      0.1888                16.1011                28.2417

                     46                     47                     48
                      A                      A                      A
 Frequencies --   1067.4990              1072.9287              1104.6522
 Red. masses --      1.4055                 1.4173                 2.0288
 Frc consts  --      0.9436                 0.9613                 1.4586
 IR Inten    --      0.3408                 0.4079               172.3584

                     49                     50                     51
                      A                      A                      A
 Frequencies --   1157.1001              1186.7878              1214.5605
 Red. masses --      1.8606                 2.1140                 2.3295
 Frc consts  --      1.4677                 1.7543                 2.0246
 IR Inten    --    339.7637               254.6514               298.8265

                     52                     53                     54
                      A                      A                      A
 Frequencies --   1235.5871              1272.1085              1289.4324
 Red. masses --      2.9207                 1.6186                 2.7159
 Frc consts  --      2.6272                 1.5433                 2.6605
 IR Inten    --      2.9146                16.1855                15.2289

                     55                     56                     57
                      A                      A                      A
 Frequencies --   1297.3362              1308.4679              1334.9485
 Red. masses --      2.6678                 1.9502                 2.6430
 Frc consts  --      2.6455                 1.9673                 2.7751
 IR Inten    --    104.5859                20.2360                40.7902

                     58                     59                     60
                      A                      A                      A
 Frequencies --   1371.1343              1395.8283              1427.0791
 Red. masses --      6.9384                 1.9271                 1.2787
 Frc consts  --      7.6854                 2.2122                 1.5343
 IR Inten    --    734.8417                42.1504                18.3156

                     61                     62                     63
                      A                      A                      A
 Frequencies --   1429.7429              1447.0326              1454.9840
 Red. masses --      1.2903                 2.6469                 1.2341
 Frc consts  --      1.5540                 3.2654                 1.5393
 IR Inten    --     26.6134                 2.1532                23.6954

                     64                     65                     66
                      A                      A                      A
 Frequencies --   1483.6770              1500.4730              1516.0865
 Red. masses --      1.8854                 1.0463                 4.6400
 Frc consts  --      2.4453                 1.3879                 6.2837
 IR Inten    --     91.5529                 0.4979                87.8432

                     67                     68                     69
                      A                      A                      A
 Frequencies --   1519.4367              1520.8092              1526.3480
 Red. masses --      1.0486                 1.0518                 1.1008
 Frc consts  --      1.4264                 1.4333                 1.5110
 IR Inten    --      0.5013                 0.6506                19.1001

                     70                     71                     72
                      A                      A                      A
 Frequencies --   1534.3983              1556.4718              1613.5694
 Red. masses --      1.0529                 1.0558                 5.1327
 Frc consts  --      1.4606                 1.5071                 7.8735
 IR Inten    --      1.3874                15.3236                15.9195

                     73                     74                     75
                      A                      A                      A
 Frequencies --   1677.8345              1801.0344              1813.5050
 Red. masses --      6.8717                 8.4987                11.4305
 Frc consts  --     11.3975                16.2424                22.1490
 IR Inten    --     63.0094               443.8392               320.1754

                     76                     77                     78
                      A                      A                      A
 Frequencies --   3061.3028              3063.9560              3070.3936
 Red. masses --      1.0353                 1.0380                 1.0385
 Frc consts  --      5.7164                 5.7416                 5.7680
 IR Inten    --      7.8635                20.3656                16.5820

                     79                     80                     81
                      A                      A                      A
 Frequencies --   3126.9414              3128.7027              3137.6230
 Red. masses --      1.1027                 1.1025                 1.1034
 Frc consts  --      6.3527                 6.3586                 6.4002
 IR Inten    --      5.2372                14.6260                28.0232

                     82                     83                     84
                      A                      A                      A
 Frequencies --   3141.6107              3174.3432              3177.2910
 Red. masses --      1.1024                 1.1001                 1.0995
 Frc consts  --      6.4108                 6.5314                 6.5399
 IR Inten    --     43.8320                 0.7134                11.9788

                     85                     86                     87
                      A                      A                      A
 Frequencies --   3209.9613              3232.0971              3266.8657
 Red. masses --      1.0868                 1.0889                 1.0940
 Frc consts  --      6.5979                 6.7023                 6.8794
 IR Inten    --      1.5872                 4.5478                 6.5593

                     88                     89                     90
                      A                      A                      A
 Frequencies --   3320.0583              3329.0472              3688.0138
 Red. masses --      1.0960                 1.0992                 1.0639
 Frc consts  --      7.1176                 7.1777                 8.5256
 IR Inten    --      1.1246                 2.9756                61.1340

 - Thermochemistry -
 -------------------
 Temperature   298.150 Kelvin.  Pressure   1.00000 Atm.
 Atom     1 has atomic number  6 and mass  12.00000

 Molecular mass:   237.10011 amu.
 Principal axes and moments of inertia in atomic units:
                           1         2         3
     Eigenvalues --  1706.537178249.788399387.22992
           X            0.99995  -0.01013   0.00218
           Y            0.01011   0.99992   0.00772
           Z           -0.00226  -0.00769   0.99997
 This molecule is an asymmetric top.
 Rotational symmetry number  1.
 Warning -- assumption of classical behavior for rotation
           may cause significant error
 Rotational temperatures (Kelvin)      0.05075     0.01050     0.00923
 Rotational constants (GHZ):           1.05755     0.21876     0.19225
 Zero-point vibrational energy     681274.5 (Joules/Mol)
                                  162.82852 (Kcal/Mol)
 Warning -- explicit consideration of  26 degrees of freedom as
           vibrations may cause significant error
 Vibrational temperatures:     28.85    41.93    59.83    75.48   132.69
          (Kelvin)            167.77   193.80   260.24   264.47   301.82
                              309.10   358.86   368.62   395.80   405.01
                              479.26   506.91   560.73   576.04   611.11
                              661.23   702.35   775.60   823.29   863.00
                              874.68   916.13   965.57  1051.92  1074.46
                             1087.18  1092.45  1125.21  1199.88  1228.21
                             1229.79  1251.13  1277.49  1298.74  1328.05
                             1351.64  1354.46  1417.31  1455.33  1510.90
                             1535.89  1543.71  1589.35  1664.81  1707.52
                             1747.48  1777.73  1830.28  1855.21  1866.58
                             1882.59  1920.69  1972.76  2008.29  2053.25
                             2057.08  2081.96  2093.40  2134.68  2158.85
                             2181.31  2186.13  2188.11  2196.07  2207.66
                             2239.42  2321.57  2414.03  2591.29  2609.23
                             4404.53  4408.35  4417.61  4498.97  4501.51
                             4514.34  4520.08  4567.17  4571.41  4618.42
                             4650.27  4700.29  4776.82  4789.76  5306.23

 Zero-point correction=                           0.259484 (Hartree/Particle)
 Thermal correction to Energy=                    0.276487
 Thermal correction to Enthalpy=                  0.277431
 Thermal correction to Gibbs Free Energy=         0.212960
 Sum of electronic and zero-point Energies=           -821.765144
 Sum of electronic and thermal Energies=              -821.748140
 Sum of electronic and thermal Enthalpies=            -821.747196
 Sum of electronic and thermal Free Energies=         -821.811668

                     E (Thermal)             CV                S
                      KCal/Mol        Cal/Mol-Kelvin    Cal/Mol-Kelvin
 Total                  173.498             63.452            135.692
 Electronic               0.000              0.000              0.000
 Translational            0.889              2.981             42.291
 Rotational               0.889              2.981             33.246
 Vibrational            171.721             57.491             60.154
 Vibration     1          0.593              1.986              6.629
 Vibration     2          0.593              1.984              5.887
 Vibration     3          0.594              1.981              5.182
 Vibration     4          0.596              1.977              4.722
 Vibration     5          0.602              1.955              3.612
 Vibration     6          0.608              1.936              3.156
 Vibration     7          0.613              1.919              2.878
 Vibration     8          0.630              1.866              2.319
 Vibration     9          0.631              1.862              2.289
 Vibration    10          0.642              1.826              2.046
 Vibration    11          0.645              1.818              2.002
 Vibration    12          0.662              1.764              1.735
 Vibration    13          0.666              1.752              1.687
 Vibration    14          0.677              1.719              1.564
 Vibration    15          0.681              1.708              1.525
 Vibration    16          0.715              1.609              1.245
 Vibration    17          0.729              1.570              1.156
 Vibration    18          0.758              1.492              1.001
 Vibration    19          0.766              1.469              0.961
 Vibration    20          0.787              1.416              0.876
 Vibration    21          0.818              1.340              0.767
 Vibration    22          0.844              1.276              0.688
 Vibration    23          0.894              1.164              0.567
 Vibration    24          0.928              1.091              0.500
 Vibration    25          0.958              1.032              0.450
 Vibration    26          0.967              1.015              0.436

                           ! Non-Optimized Parameters !
 Normal termination of Gaussian 16 at Sun Dec 13 12:45:17 2020.

 ----------------------------------------------------------------------
 # B3LYP/6-311++G(d,p) empiricaldispersion=gd3bj scf=xqc pop=npa geom=c
 heck
 ----------------------------------------------------------------------

 ---------------------------------------
 CID_125461517_JID_7124_Energie_neutraal
 ---------------------------------------
 Structure from the checkpoint file:  "JID_7124.chk"
 Charge =  0 Multiplicity = 1

 SCF Done:  E(RB3LYP) =  -822.266210862     A.U. after   16 cycles
 Normal termination of Gaussian 16 at Sun Dec 13 12:50:44 2020.

 ----------------------------------------------------------------------
 # B3LYP/6-311++G(d,p) empiricaldispersion=gd3bj scf=xqc pop=npa geom=c
 heck
 ----------------------------------------------------------------------

 -------------------------------------
 CID_125461517_JID_7124_Energie_kation
 -------------------------------------
 Structure from the checkpoint file:  "JID_7124.chk"
 Charge =  1 Multiplicity = 2

 SCF Done:  E(UB3LYP) =  -821.974759720     A.U. after   22 cycles
 Normal termination of Gaussian 16 at Sun Dec 13 13:01:30 2020.
 Gaussian 16:  ES64L-G16RevA.03 25-Dec-2016

 ----------------------------------------------------------------------
 # B3LYP/6-311++G(d,p) empiricaldispersion=gd3bj scf=xqc pop=npa geom=c
 heck
 ----------------------------------------------------------------------

 ------------------------------------
 CID_125461517_JID_7124_Energie_anion
 ------------------------------------
 Structure from the checkpoint file:  "JID_7124.chk"
 Charge = -1 Multiplicity = 2

                         Standard orientation:
 ---------------------------------------------------------------------
 Center     Atomic      Atomic             Coordinates (Angstroms)
 Number     Number       Type             X           Y           Z
 ---------------------------------------------------------------------
      1          6           0        4.652442    0.691638    0.204596
      2          6           0        3.582893   -0.396311    0.132587
      3          6           0        3.769140   -1.266732   -1.110098
      4          6           0        3.542885   -1.212647    1.424241
      5          8           0        2.339883    0.396208    0.003832
      6          6           0        1.148902   -0.206958   -0.080259
      7          8           0        0.942863   -1.402257   -0.081525
      8          7           0        0.134993    0.764144   -0.174710
      9          6           0        0.354631    2.131902   -0.063831
     10          6           0       -0.854067    2.770036   -0.132085
     11          6           0       -1.859980    1.776791   -0.278450
     12          6           0       -1.261105    0.530775   -0.301923
     13          6           0       -1.792766   -0.786303   -0.570798
     14          6           0       -3.033872   -1.312199   -0.431715
     15          6           0       -4.272002   -0.801704    0.167760
     16          8           0       -5.310390   -1.439148    0.184744
     17          8           0       -4.197844    0.429195    0.746589
     18          1           0        5.641806    0.233800    0.300290
     19          1           0        4.485344    1.341120    1.069517
     20          1           0        4.639955    1.306108   -0.700927
     21          1           0        4.751056   -1.749842   -1.068091
     22          1           0        3.001178   -2.038517   -1.171674
     23          1           0        3.730771   -0.650581   -2.014482
     24          1           0        3.346155   -0.559173    2.280547
     25          1           0        2.774239   -1.985093    1.381880
     26          1           0        4.515445   -1.692114    1.577664
     27          1           0        1.354124    2.507858    0.070924
     28          1           0       -1.006445    3.839070   -0.079527
     29          1           0       -2.919823    1.940177   -0.377846
     30          1           0       -1.057805   -1.475238   -0.969552
     31          1           0       -3.174098   -2.327752   -0.786716
     32          1           0       -5.085541    0.579460    1.121689
 ---------------------------------------------------------------------

 SCF Done:  E(UB3LYP) =  -822.285156896     A.U. after   29 cycles

 The electronic state is 2-A.
 Alpha  occ. eigenvalues --  -19.05386 -19.01118 -18.97865 -18.93804 -14.23226
 Alpha  occ. eigenvalues --  -10.19852 -10.16074 -10.12688 -10.08778 -10.07858
 Alpha  occ. eigenvalues --  -10.07752 -10.05357 -10.04950 -10.02707 -10.01356
 Alpha  occ. eigenvalues --  -10.00656 -10.00108  -0.99992  -0.94738  -0.90685
 Alpha  occ. eigenvalues --   -0.85156  -0.84289  -0.73192  -0.65942  -0.63878
 Alpha  occ. eigenvalues --   -0.61773  -0.61429  -0.57941  -0.54123  -0.50212
 Alpha  occ. eigenvalues --   -0.47627  -0.44198  -0.43008  -0.42269  -0.38397
 Alpha  occ. eigenvalues --   -0.37899  -0.37596  -0.35797  -0.35133  -0.33147
 Alpha  occ. eigenvalues --   -0.33011  -0.31957  -0.31155  -0.30936  -0.30226
 Alpha  occ. eigenvalues --   -0.29695  -0.29134  -0.29094  -0.27613  -0.27069
 Alpha  occ. eigenvalues --   -0.25688  -0.25395  -0.24915  -0.24420  -0.23507
 Alpha  occ. eigenvalues --   -0.20715  -0.19929  -0.17262  -0.16378  -0.14354
 Alpha  occ. eigenvalues --   -0.12488  -0.11932  -0.06933   0.03915
 Alpha virt. eigenvalues --    0.05718   0.08084   0.08483   0.09011   0.09810
 Alpha virt. eigenvalues --    0.10586   0.10745   0.11537   0.11822   0.12017
 Alpha virt. eigenvalues --    0.12450   0.12775   0.13826   0.13878   0.14745

  Beta  occ. eigenvalues --  -19.05364 -19.01076 -18.97748 -18.93531 -14.23203
  Beta  occ. eigenvalues --  -10.19672 -10.16074 -10.12544 -10.08776 -10.07857
  Beta  occ. eigenvalues --  -10.07747 -10.05356 -10.04664 -10.02803 -10.01053
  Beta  occ. eigenvalues --  -10.00408  -9.99933  -0.99835  -0.94526  -0.90508
  Beta  occ. eigenvalues --   -0.84767  -0.84119  -0.73155  -0.65657  -0.63282
  Beta  occ. eigenvalues --   -0.61766  -0.61422  -0.57519  -0.53879  -0.49554
  Beta  occ. eigenvalues --   -0.47505  -0.43944  -0.42798  -0.42159  -0.38231
  Beta  occ. eigenvalues --   -0.37731  -0.37415  -0.35667  -0.34770  -0.33062
  Beta  occ. eigenvalues --   -0.32786  -0.31872  -0.31014  -0.30779  -0.30039
  Beta  occ. eigenvalues --   -0.29511  -0.29110  -0.28218  -0.27472  -0.27013
  Beta  occ. eigenvalues --   -0.25546  -0.25044  -0.24753  -0.24119  -0.23340
  Beta  occ. eigenvalues --   -0.20455  -0.19548  -0.16353  -0.16047  -0.12730
  Beta  occ. eigenvalues --   -0.11947  -0.11539  -0.05354
  Beta virt. eigenvalues --    0.05660   0.08010   0.08320   0.08955   0.09553
  Beta virt. eigenvalues --    0.09763   0.10556   0.10702   0.11454   0.11924
  Beta virt. eigenvalues --    0.12412   0.12710   0.13486   0.13802   0.13963

 Mulliken charges and spin densities:
               1          2
     1  C   -0.412120  -0.014408
     2  C   -0.047170   0.027223
     3  C   -0.399496  -0.002704
     4  C   -0.352232  -0.041782
     5  O    0.089081   0.002757
     6  C   -0.065099   0.069220
     7  O   -0.263588   0.049795
     8  N    0.118687  -0.010501
     9  C    0.132694   0.215157
    10  C   -0.765769  -0.045874
    11  C   -0.078902   0.196176
    12  C   -0.843074   0.039748
    13  C    0.450734   0.197176
    14  C   -0.349840   0.110861
    15  C    0.071672   0.100278
    16  O   -0.405357   0.086947
    17  O   -0.255439   0.005918
    18  H    0.120432   0.006382
    19  H    0.139734   0.014239
    20  H    0.157668  -0.000723
    21  H    0.138712   0.000828
    22  H    0.194017  -0.000079
    23  H    0.136278   0.001347
    24  H    0.133587   0.006670
    25  H    0.185199   0.016769
    26  H    0.120511   0.022175
    27  H    0.163833  -0.017713
    28  H    0.114318   0.005392
    29  H    0.159146  -0.011641
    30  H    0.201311  -0.019511
    31  H    0.146101  -0.008585
    32  H    0.264370  -0.001539
 Sum of Mulliken charges =  -1.00000   1.00000

 Dipole moment (field-independent basis, Debye):
    X=             11.8778    Y=              2.1959    Z=              0.6389  Tot=             12.0960
 Quadrupole moment (field-independent basis, Debye-Ang):
   XX=           -158.6645   YY=           -120.7872   ZZ=           -109.1924
   XY=            -17.9981   XZ=             -2.4064   YZ=              1.8324

 Summary of Natural Population Analysis:

                                       Natural Population
                Natural  -----------------------------------------------
    Atom  No    Charge         Core      Valence    Rydberg      Total
 -----------------------------------------------------------------------
      C    1   -0.28881      0.99961     2.28339    0.00581     3.28881
      C    2    0.13637      0.99955     1.85102    0.01306     2.86363
      C    3   -0.30177      0.99960     2.29673    0.00543     3.30177
      C    4   -0.30217      0.99960     2.29688    0.00569     3.30217
      O    5   -0.29716      0.99984     3.28768    0.00963     4.29716
      C    6    0.49986      0.99969     1.47674    0.02371     2.50014
      O    7   -0.31278      0.99987     3.30789    0.00502     4.31278
      N    8   -0.22411      0.99960     2.71565    0.00886     3.72411
      C    9    0.03927      0.99958     1.94980    0.01136     2.96073
      C   10   -0.16831      0.99957     2.15967    0.00907     3.16831
      C   11   -0.06673      0.99952     2.05865    0.00855     3.06673
      C   12    0.05692      0.99952     1.93262    0.01094     2.94308
      C   13   -0.02476      0.99954     2.01638    0.00884     3.02476
      C   14   -0.13906      0.99951     2.12948    0.01008     3.13906
      C   15    0.39750      0.99967     1.57910    0.02374     2.60250
      O   16   -0.31302      0.99987     3.30582    0.00733     4.31302
      O   17   -0.35529      0.99988     3.34627    0.00915     4.35529
      H   18    0.09625      0.00000     0.40301    0.00075     0.40375
      H   19    0.10381      0.00000     0.39536    0.00084     0.39619
      H   20    0.10349      0.00000     0.39568    0.00084     0.39651
      H   21    0.09555      0.00000     0.40365    0.00080     0.40445
      H   22    0.11881      0.00000     0.38036    0.00084     0.38119
      H   23    0.10189      0.00000     0.39729    0.00083     0.39811
      H   24    0.10224      0.00000     0.39658    0.00118     0.39776
      H   25    0.11922      0.00000     0.37990    0.00088     0.38078
      H   26    0.09561      0.00000     0.40331    0.00108     0.40439
      H   27    0.09763      0.00000     0.40146    0.00091     0.40237
      H   28    0.09582      0.00000     0.40327    0.00090     0.40418
      H   29    0.10795      0.00000     0.39115    0.00090     0.39205
      H   30    0.10311      0.00000     0.39563    0.00126     0.39689
      H   31    0.09315      0.00000     0.40576    0.00109     0.40685
      H   32    0.22954      0.00000     0.26754    0.00291     0.27046
 =======================================================================
   * Total *   -0.00000     16.99403    45.81370    0.19227    63.00000

 Normal termination of Gaussian 16 at Sun Dec 13 13:15:39 2020.
