 Gaussian 16, Revision A.03,

 -----------------------------------------------------------
 # opt freq B3LYP/6-31G(d) empiricaldispersion=gd3bj scf=xqc
 -----------------------------------------------------------

 ------------------------------
 CID_83674034_JID_2406_neutraal
 ------------------------------
 Symbolic Z-matrix:
 Charge =  0 Multiplicity = 1

 SCF Done:  E(RB3LYP) =  -553.600415613     A.U. after   15 cycles
 SCF Done:  E(RB3LYP) =  -553.599226372     A.U. after   13 cycles
 SCF Done:  E(RB3LYP) =  -553.603629252     A.U. after   12 cycles
 SCF Done:  E(RB3LYP) =  -553.603711116     A.U. after   12 cycles
 SCF Done:  E(RB3LYP) =  -553.604645267     A.U. after   12 cycles
 SCF Done:  E(RB3LYP) =  -553.604826726     A.U. after   12 cycles
 SCF Done:  E(RB3LYP) =  -553.604925941     A.U. after   11 cycles
 SCF Done:  E(RB3LYP) =  -553.604934901     A.U. after    9 cycles
 SCF Done:  E(RB3LYP) =  -553.604936598     A.U. after    8 cycles
 SCF Done:  E(RB3LYP) =  -553.604937367     A.U. after    8 cycles
 SCF Done:  E(RB3LYP) =  -553.604937434     A.U. after    7 cycles
 SCF Done:  E(RB3LYP) =  -553.604937457     A.U. after    7 cycles
 SCF Done:  E(RB3LYP) =  -553.604937469     A.U. after    7 cycles
 Optimization completed.
    -- Stationary point found.
 Normal termination of Gaussian 16 at Wed Dec  9 17:17:06 2020.

 --------------------------------------------------------------------
 #N Geom=AllCheck Guess=TCheck SCRF=Check GenChk RB3LYP/6-31G(d) Freq
 --------------------------------------------------------------------

 Structure from the checkpoint file:  "JID_2406.chk"
 ------------------------------
 CID_83674034_JID_2406_neutraal
 ------------------------------
 Charge =  0 Multiplicity = 1

 SCF Done:  E(RB3LYP) =  -553.604937469     A.U. after    1 cycles

  Exact polarizability: 122.940  -0.773 126.614   5.433  -1.098  49.835
 Approx polarizability: 194.057   1.737 211.706  13.809  -2.471  76.820

                      1                      2                      3
                      A                      A                      A
 Frequencies --     46.6584               131.6852               196.0431
 Red. masses --      4.5550                 3.2231                 4.8772
 Frc consts  --      0.0058                 0.0329                 0.1104
 IR Inten    --      1.3445                 0.8280                 1.7734

                      4                      5                      6
                      A                      A                      A
 Frequencies --    217.1842               225.5253               265.6226
 Red. masses --      3.4590                 4.3085                 5.8359
 Frc consts  --      0.0961                 0.1291                 0.2426
 IR Inten    --      0.8853                 4.5663                 0.2887

                      7                      8                      9
                      A                      A                      A
 Frequencies --    305.5248               436.3305               473.8423
 Red. masses --      3.5017                 3.3085                 2.9802
 Frc consts  --      0.1926                 0.3711                 0.3942
 IR Inten    --      1.3241                 2.5652                 2.2738

                     10                     11                     12
                      A                      A                      A
 Frequencies --    498.2082               555.9580               602.8897
 Red. masses --      4.5533                 3.5990                 5.3163
 Frc consts  --      0.6659                 0.6554                 1.1385
 IR Inten    --      2.8269                 1.9223                 5.3477

                     13                     14                     15
                      A                      A                      A
 Frequencies --    613.9887               632.9335               645.8794
 Red. masses --      1.9791                 2.3886                 2.0601
 Frc consts  --      0.4396                 0.5638                 0.5063
 IR Inten    --     47.2305                11.0239                63.5523

                     16                     17                     18
                      A                      A                      A
 Frequencies --    682.6807               768.6321               796.3057
 Red. masses --      5.0673                 1.7640                 2.6972
 Frc consts  --      1.3914                 0.6140                 1.0077
 IR Inten    --      1.1959                37.9614                14.4169

                     19                     20                     21
                      A                      A                      A
 Frequencies --    854.8052               857.1919               875.7796
 Red. masses --      2.4513                 1.9787                 2.4160
 Frc consts  --      1.0553                 0.8566                 1.0918
 IR Inten    --      5.9190                 2.1396                 1.9289

                     22                     23                     24
                      A                      A                      A
 Frequencies --    899.5088               933.7988               956.1410
 Red. masses --      1.4342                 2.2866                10.8546
 Frc consts  --      0.6837                 1.1748                 5.8467
 IR Inten    --      0.0591                13.1430                 3.6884

                     25                     26                     27
                      A                      A                      A
 Frequencies --    966.6233              1055.3581              1073.8673
 Red. masses --      1.2717                 3.1572                 2.2629
 Frc consts  --      0.7001                 2.0718                 1.5375
 IR Inten    --      0.9252                13.2293                 3.3980

                     28                     29                     30
                      A                      A                      A
 Frequencies --   1078.7974              1113.0911              1131.0009
 Red. masses --      2.3554                 3.1210                 5.4400
 Frc consts  --      1.6151                 2.2782                 4.0999
 IR Inten    --      7.1394                91.5836                71.8936

                     31                     32                     33
                      A                      A                      A
 Frequencies --   1185.5533              1216.2892              1230.5455
 Red. masses --      1.3423                 2.2052                 1.2348
 Frc consts  --      1.1116                 1.9221                 1.1016
 IR Inten    --      1.8697                 2.8215                 2.9250

                     34                     35                     36
                      A                      A                      A
 Frequencies --   1262.0959              1274.0347              1305.4882
 Red. masses --      1.3094                 3.2281                 1.3264
 Frc consts  --      1.2289                 3.0872                 1.3319
 IR Inten    --     15.5231                29.4599                 4.3361

                     37                     38                     39
                      A                      A                      A
 Frequencies --   1338.7831              1377.0263              1399.0273
 Red. masses --      1.9369                 1.6623                 3.7728
 Frc consts  --      2.0454                 1.8571                 4.3507
 IR Inten    --      6.9213                 5.5404                 3.0082

                     40                     41                     42
                      A                      A                      A
 Frequencies --   1420.0939              1464.5523              1496.1665
 Red. masses --      1.2966                 2.3325                 1.1752
 Frc consts  --      1.5405                 2.9477                 1.5500
 IR Inten    --      7.0865                21.6943                26.1369

                     43                     44                     45
                      A                      A                      A
 Frequencies --   1502.5761              1535.0961              1544.0072
 Red. masses --      1.1505                 1.1720                 2.5120
 Frc consts  --      1.5304                 1.6273                 3.5283
 IR Inten    --     72.0561                 3.6621                11.2852

                     46                     47                     48
                      A                      A                      A
 Frequencies --   1584.8310              1650.8643              1675.2238
 Red. masses --      6.5635                 7.5405                 7.6041
 Frc consts  --      9.7129                12.1081                12.5732
 IR Inten    --     55.1579                15.6528                 8.2481

                     49                     50                     51
                      A                      A                      A
 Frequencies --   2980.7499              3040.4001              3080.9722
 Red. masses --      1.0720                 1.0606                 1.1023
 Frc consts  --      5.6119                 5.7764                 6.1647
 IR Inten    --     68.7814                16.8724                18.7705

                     52                     53                     54
                      A                      A                      A
 Frequencies --   3090.1819              3188.9894              3208.0489
 Red. masses --      1.0922                 1.0878                 1.0919
 Frc consts  --      6.1449                 6.5180                 6.6206
 IR Inten    --     75.1030                 8.2854                14.4439

                     55                     56                     57
                      A                      A                      A
 Frequencies --   3235.0710              3298.2003              3590.2179
 Red. masses --      1.0948                 1.0994                 1.0662
 Frc consts  --      6.7510                 7.0462                 8.0969
 IR Inten    --      4.9537                 0.4025               331.9020

 - Thermochemistry -
 -------------------
 Temperature   298.150 Kelvin.  Pressure   1.00000 Atm.
 Atom     1 has atomic number  6 and mass  12.00000

 Molecular mass:   163.06333 amu.
 Principal axes and moments of inertia in atomic units:
                           1         2         3
     Eigenvalues --  1243.909602039.272173199.71041
           X            0.99999   0.00471  -0.00129
           Y           -0.00470   0.99999   0.00055
           Z            0.00130  -0.00054   1.00000
 This molecule is an asymmetric top.
 Rotational symmetry number  1.
 Warning -- assumption of classical behavior for rotation
           may cause significant error
 Rotational temperatures (Kelvin)      0.06963     0.04247     0.02707
 Rotational constants (GHZ):           1.45086     0.88499     0.56403
 Zero-point vibrational energy     443018.7 (Joules/Mol)
                                  105.88401 (Kcal/Mol)
 Warning -- explicit consideration of  13 degrees of freedom as
           vibrations may cause significant error
 Vibrational temperatures:     67.13   189.47   282.06   312.48   324.48
          (Kelvin)            382.17   439.58   627.78   681.75   716.81
                              799.90   867.42   883.39   910.65   929.28
                              982.23  1105.89  1145.71  1229.87  1233.31
                             1260.05  1294.19  1343.53  1375.67  1390.76
                             1518.42  1545.06  1552.15  1601.49  1627.26
                             1705.75  1749.97  1770.48  1815.87  1833.05
                             1878.31  1926.21  1981.23  2012.89  2043.20
                             2107.16  2152.65  2161.87  2208.66  2221.48
                             2280.22  2375.23  2410.27  4288.63  4374.46
                             4432.83  4446.08  4588.24  4615.67  4654.55
                             4745.37  5165.52

 Zero-point correction=                           0.168737 (Hartree/Particle)
 Thermal correction to Energy=                    0.178050
 Thermal correction to Enthalpy=                  0.178994
 Thermal correction to Gibbs Free Energy=         0.133650
 Sum of electronic and zero-point Energies=           -553.436201
 Sum of electronic and thermal Energies=              -553.426888
 Sum of electronic and thermal Enthalpies=            -553.425944
 Sum of electronic and thermal Free Energies=         -553.471288

                     E (Thermal)             CV                S
                      KCal/Mol        Cal/Mol-Kelvin    Cal/Mol-Kelvin
 Total                  111.728             36.883             95.435
 Electronic               0.000              0.000              0.000
 Translational            0.889              2.981             41.176
 Rotational               0.889              2.981             30.474
 Vibrational            109.950             30.921             23.785
 Vibration     1          0.595              1.979              4.954
 Vibration     2          0.612              1.922              2.921
 Vibration     3          0.636              1.845              2.170
 Vibration     4          0.646              1.815              1.982
 Vibration     5          0.650              1.802              1.914
 Vibration     6          0.671              1.736              1.625
 Vibration     7          0.696              1.663              1.386
 Vibration     8          0.797              1.391              0.838
 Vibration     9          0.831              1.308              0.727
 Vibration    10          0.854              1.254              0.663
 Vibration    11          0.911              1.127              0.532
 Vibration    12          0.961              1.026              0.445
 Vibration    13          0.973              1.002              0.426

 Optimization completed.
    -- Stationary point found.
 Normal termination of Gaussian 16 at Wed Dec  9 17:21:51 2020.

 ----------------------------------------------------------------------
 # B3LYP/6-311++G(d,p) empiricaldispersion=gd3bj scf=xqc pop=npa geom=c
 heck
 ----------------------------------------------------------------------

 --------------------------------------
 CID_83674034_JID_2406_Energie_neutraal
 --------------------------------------
 Structure from the checkpoint file:  "JID_2406.chk"
 Charge =  0 Multiplicity = 1

 SCF Done:  E(RB3LYP) =  -553.761783683     A.U. after   15 cycles
 Normal termination of Gaussian 16 at Wed Dec  9 17:23:53 2020.

 ----------------------------------------------------------------------
 # B3LYP/6-311++G(d,p) empiricaldispersion=gd3bj scf=xqc pop=npa geom=c
 heck
 ----------------------------------------------------------------------

 ------------------------------------
 CID_83674034_JID_2406_Energie_kation
 ------------------------------------
 Structure from the checkpoint file:  "JID_2406.chk"
 Charge =  1 Multiplicity = 2

 SCF Done:  E(UB3LYP) =  -553.441944641     A.U. after   28 cycles
 Normal termination of Gaussian 16 at Wed Dec  9 17:29:41 2020.
 Gaussian 16:  ES64L-G16RevA.03 25-Dec-2016

 ----------------------------------------------------------------------
 # B3LYP/6-311++G(d,p) empiricaldispersion=gd3bj scf=xqc pop=npa geom=c
 heck
 ----------------------------------------------------------------------

 -----------------------------------
 CID_83674034_JID_2406_Energie_anion
 -----------------------------------
 Structure from the checkpoint file:  "JID_2406.chk"
 Charge = -1 Multiplicity = 2

                         Standard orientation:
 ---------------------------------------------------------------------
 Center     Atomic      Atomic             Coordinates (Angstroms)
 Number     Number       Type             X           Y           Z
 ---------------------------------------------------------------------
      1          6           0        1.937376   -1.924203    0.101214
      2          6           0        0.550285   -2.084871   -0.065198
      3          6           0       -0.335089   -1.008276   -0.188230
      4          6           0        0.264764    0.260292   -0.122796
      5          6           0        1.648073    0.400464    0.044246
      6          6           0        2.529516   -0.662743    0.160335
      7          8           0        1.928946    1.750832    0.075007
      8          6           0        0.710947    2.347156   -0.068917
      9          7           0       -0.294817    1.546140   -0.189772
     10          6           0       -1.817195   -1.226202   -0.386683
     11          6           0       -2.758513   -0.395299    0.514531
     12          8           0       -3.046822    0.889927    0.011412
     13          1           0        2.562643   -2.807520    0.188869
     14          1           0        0.145213   -3.092420   -0.102810
     15          1           0        3.595978   -0.520875    0.291180
     16          1           0        0.703111    3.427467   -0.068129
     17          1           0       -2.094129   -1.000673   -1.425436
     18          1           0       -2.021548   -2.292502   -0.231563
     19          1           0       -3.720321   -0.915939    0.573474
     20          1           0       -2.345378   -0.358583    1.537178
     21          1           0       -2.199825    1.374083   -0.056726
 ---------------------------------------------------------------------

 SCF Done:  E(UB3LYP) =  -553.754321440     A.U. after   33 cycles
 SCF Done:  E(UB3LYP) =  -553.754321440     a.u. after    1 cycles

 The electronic state is 2-A.
 Alpha  occ. eigenvalues --  -19.05215 -18.97308 -14.17168 -10.10492 -10.09177
 Alpha  occ. eigenvalues --  -10.08443 -10.05655 -10.04112 -10.03302 -10.03250
 Alpha  occ. eigenvalues --  -10.03162 -10.02982  -0.98800  -0.87980  -0.78544
 Alpha  occ. eigenvalues --   -0.71573  -0.64839  -0.60906  -0.58404  -0.50925
 Alpha  occ. eigenvalues --   -0.49875  -0.47273  -0.44105  -0.38659  -0.37443
 Alpha  occ. eigenvalues --   -0.36553  -0.34720  -0.33773  -0.32218  -0.30666
 Alpha  occ. eigenvalues --   -0.28394  -0.26905  -0.26465  -0.25645  -0.23478
 Alpha  occ. eigenvalues --   -0.22294  -0.21299  -0.19651  -0.18930  -0.16086
 Alpha  occ. eigenvalues --   -0.13761  -0.10940  -0.10299   0.05950
 Alpha virt. eigenvalues --    0.08332   0.08945   0.09387   0.10461   0.11265
 Alpha virt. eigenvalues --    0.11813   0.12611   0.13380   0.14309   0.14568
 Alpha virt. eigenvalues --    0.15032   0.16387   0.16767   0.17638   0.18009

  Beta  occ. eigenvalues --  -19.05086 -18.97303 -14.17119 -10.10041 -10.09235
  Beta  occ. eigenvalues --  -10.08416 -10.05604 -10.04125 -10.03337 -10.02988
  Beta  occ. eigenvalues --  -10.02979 -10.02800  -0.98512  -0.87970  -0.78261
  Beta  occ. eigenvalues --   -0.71261  -0.64550  -0.60556  -0.58179  -0.50576
  Beta  occ. eigenvalues --   -0.49672  -0.46977  -0.43920  -0.38398  -0.37283
  Beta  occ. eigenvalues --   -0.36385  -0.34507  -0.32923  -0.32141  -0.30535
  Beta  occ. eigenvalues --   -0.28232  -0.26761  -0.26217  -0.25486  -0.23345
  Beta  occ. eigenvalues --   -0.22201  -0.20564  -0.18852  -0.18693  -0.15991
  Beta  occ. eigenvalues --   -0.13717  -0.10192  -0.08755
  Beta virt. eigenvalues --    0.08433   0.09182   0.09404   0.10552   0.11276
  Beta virt. eigenvalues --    0.11323   0.12012   0.12676   0.13699   0.14438
  Beta virt. eigenvalues --    0.14868   0.15540   0.16690   0.17162   0.17553

 Mulliken charges and spin densities:
               1          2
     1  C    0.055933  -0.251529
     2  C   -0.200476  -0.506165
     3  C   -0.218528   1.281080
     4  C   -0.097559   0.320399
     5  C    0.007772  -0.162196
     6  C   -0.393163  -0.046332
     7  O   -0.110473  -0.001927
     8  C    0.136081   0.414964
     9  N   -0.240949   0.005136
    10  C    0.291305  -0.881735
    11  C   -0.057862  -0.385420
    12  O   -0.341228   0.016327
    13  H   -0.109103   0.224922
    14  H   -0.141309   0.243781
    15  H    0.046838   0.064968
    16  H    0.129858   0.021638
    17  H    0.089657   0.088836
    18  H   -0.186185   0.301056
    19  H   -0.085065   0.224205
    20  H    0.100242   0.012374
    21  H    0.324213   0.015619
 Sum of Mulliken charges =  -1.00000   1.00000

 Dipole moment (field-independent basis, Debye):
    X=              1.6926    Y=              0.7921    Z=              0.2109  Tot=              1.8806
 Quadrupole moment (field-independent basis, Debye-Ang):
   XX=           -109.4359   YY=            -95.5783   ZZ=            -83.9839
   XY=              4.1893   XZ=             -1.5285   YZ=             -2.3255

 Summary of Natural Population Analysis:

                                       Natural Population
                Natural  -----------------------------------------------
    Atom  No    Charge         Core      Valence    Rydberg      Total
 -----------------------------------------------------------------------
      C    1   -0.07226      0.99959     2.06288    0.00979     3.07226
      C    2   -0.12535      0.99954     2.11576    0.01005     3.12535
      C    3    0.02911      0.99948     1.96144    0.00998     2.97089
      C    4    0.04457      0.99940     1.94360    0.01243     2.95543
      C    5    0.12722      0.99934     1.85898    0.01446     2.87278
      C    6   -0.10510      0.99951     2.09614    0.00945     3.10510
      O    7   -0.23798      0.99986     3.23098    0.00714     4.23798
      C    8    0.27539      0.99964     1.70509    0.01988     2.72461
      N    9   -0.28708      0.99967     2.77616    0.01125     3.78708
      C   10   -0.21221      0.99961     2.20295    0.00966     3.21221
      C   11   -0.00601      0.99961     1.99183    0.01456     3.00601
      O   12   -0.39090      0.99989     3.38341    0.00760     4.39090
      H   13    0.09106      0.00000     0.40805    0.00089     0.40894
      H   14    0.09318      0.00000     0.40576    0.00106     0.40682
      H   15    0.09757      0.00000     0.40140    0.00103     0.40243
      H   16    0.07669      0.00000     0.42251    0.00080     0.42331
      H   17    0.10632      0.00000     0.39224    0.00143     0.39368
      H   18    0.09698      0.00000     0.40157    0.00144     0.40302
      H   19    0.07851      0.00000     0.42017    0.00132     0.42149
      H   20    0.07278      0.00000     0.42599    0.00123     0.42722
      H   21    0.24750      0.00000     0.24852    0.00398     0.25250
 =======================================================================
   * Total *   -0.00000     11.99514    30.85542    0.14944    43.00000

 Normal termination of Gaussian 16 at Wed Dec  9 17:36:04 2020.
