 Gaussian 16, Revision A.03,

 -----------------------------------------------------------
 # opt freq B3LYP/6-31G(d) empiricaldispersion=gd3bj scf=xqc
 -----------------------------------------------------------

 ------------------------------
 CID_82427655_JID_6869_neutraal
 ------------------------------
 Symbolic Z-matrix:
 Charge =  0 Multiplicity = 1

 SCF Done:  E(RB3LYP) =  -1032.41285859     A.U. after   15 cycles
 SCF Done:  E(RB3LYP) =  -1032.41851732     A.U. after   12 cycles
 SCF Done:  E(RB3LYP) =  -1032.42036003     A.U. after   13 cycles
 SCF Done:  E(RB3LYP) =  -1032.41705933     A.U. after   16 cycles
 SCF Done:  E(RB3LYP) =  -1032.42212389     A.U. after   14 cycles
 SCF Done:  E(RB3LYP) =  -1032.42352579     A.U. after   12 cycles
 SCF Done:  E(RB3LYP) =  -1032.42480039     A.U. after   13 cycles
 SCF Done:  E(RB3LYP) =  -1032.42506738     A.U. after   15 cycles
 SCF Done:  E(RB3LYP) =  -1032.42577794     A.U. after   13 cycles
 SCF Done:  E(RB3LYP) =  -1032.42601311     A.U. after   12 cycles
 SCF Done:  E(RB3LYP) =  -1032.42689790     A.U. after    9 cycles
 SCF Done:  E(RB3LYP) =  -1032.42690158     A.U. after   10 cycles
 SCF Done:  E(RB3LYP) =  -1032.42690307     A.U. after    9 cycles
 SCF Done:  E(RB3LYP) =  -1032.42690333     A.U. after    7 cycles
 SCF Done:  E(RB3LYP) =  -1032.42690334     A.U. after    6 cycles
 Optimization completed.
    -- Stationary point found.
 Normal termination of Gaussian 16 at Fri Dec 11 01:19:43 2020.

 --------------------------------------------------------------------
 #N Geom=AllCheck Guess=TCheck SCRF=Check GenChk RB3LYP/6-31G(d) Freq
 --------------------------------------------------------------------

 Structure from the checkpoint file:  "JID_6869.chk"
 ------------------------------
 CID_82427655_JID_6869_neutraal
 ------------------------------
 Charge =  0 Multiplicity = 1

 SCF Done:  E(RB3LYP) =  -1032.42690334     A.U. after    1 cycles

  Exact polarizability: 182.516   4.359 156.633  15.890  -2.408 136.835
 Approx polarizability: 239.274   4.265 255.506  34.009 -13.389 209.475

                      1                      2                      3
                      A                      A                      A
 Frequencies --     22.9400                29.0537                37.3473
 Red. masses --      3.7851                 3.9793                 1.9252
 Frc consts  --      0.0012                 0.0020                 0.0016
 IR Inten    --      0.9463                 0.0873                 0.1162

                      4                      5                      6
                      A                      A                      A
 Frequencies --     43.4150                75.0696                80.5673
 Red. masses --      3.1037                 1.4465                 1.6924
 Frc consts  --      0.0034                 0.0048                 0.0065
 IR Inten    --      0.1991                 1.5036                 0.8980

                      7                      8                      9
                      A                      A                      A
 Frequencies --     93.1380               129.4686               150.6745
 Red. masses --      3.5519                 3.4606                 3.5857
 Frc consts  --      0.0182                 0.0342                 0.0480
 IR Inten    --      0.4026                 0.3592                 1.1565

                     10                     11                     12
                      A                      A                      A
 Frequencies --    192.0340               210.1593               223.4885
 Red. masses --      3.3024                 3.5982                 2.8368
 Frc consts  --      0.0718                 0.0936                 0.0835
 IR Inten    --      0.7982                 3.1674                 3.3678

                     13                     14                     15
                      A                      A                      A
 Frequencies --    277.4212               282.1141               285.1838
 Red. masses --      1.6677                 1.3394                 1.4700
 Frc consts  --      0.0756                 0.0628                 0.0704
 IR Inten    --      9.5948                 9.9106                 5.7346

                     16                     17                     18
                      A                      A                      A
 Frequencies --    311.2439               328.8356               358.3615
 Red. masses --      2.0436                 2.6327                 2.0772
 Frc consts  --      0.1166                 0.1677                 0.1572
 IR Inten    --     23.2836                 5.2980                 9.5738

                     19                     20                     21
                      A                      A                      A
 Frequencies --    391.1868               423.0528               468.4637
 Red. masses --      3.3259                 3.6889                 3.0967
 Frc consts  --      0.2999                 0.3890                 0.4004
 IR Inten    --      1.6503                 2.0153                 3.8860

                     22                     23                     24
                      A                      A                      A
 Frequencies --    489.0301               553.6442               570.9186
 Red. masses --      4.3707                 3.9637                 4.1039
 Frc consts  --      0.6159                 0.7158                 0.7881
 IR Inten    --      7.0988                 1.2691                 7.3177

                     25                     26                     27
                      A                      A                      A
 Frequencies --    597.2009               622.8767               651.4463
 Red. masses --      4.5380                 3.3661                 3.5773
 Frc consts  --      0.9536                 0.7694                 0.8945
 IR Inten    --      1.6914                 3.9224                11.4635

                     28                     29                     30
                      A                      A                      A
 Frequencies --    654.8107               683.6640               699.8873
 Red. masses --      2.9905                 4.3240                 5.2816
 Frc consts  --      0.7555                 1.1907                 1.5243
 IR Inten    --      3.4388                 4.5093                 0.3656

                     31                     32                     33
                      A                      A                      A
 Frequencies --    764.7474               871.0078               873.8107
 Red. masses --      1.3151                 2.1607                 2.4969
 Frc consts  --      0.4532                 0.9658                 1.1233
 IR Inten    --      4.7516                20.2103                81.7834

                     34                     35                     36
                      A                      A                      A
 Frequencies --    880.6814               915.4804               929.2238
 Red. masses --      1.5328                 2.9312                 1.3907
 Frc consts  --      0.7005                 1.4474                 0.7075
 IR Inten    --      2.8312                 0.8623                56.4596

                     37                     38                     39
                      A                      A                      A
 Frequencies --    933.5127               952.3907               969.9880
 Red. masses --      2.1508                 2.3504                 2.0911
 Frc consts  --      1.1043                 1.2561                 1.1592
 IR Inten    --     11.3924                11.1489                 7.0882

                     40                     41                     42
                      A                      A                      A
 Frequencies --    979.4708               997.6690              1014.4139
 Red. masses --      2.2223                 1.6160                 1.6987
 Frc consts  --      1.2561                 0.9477                 1.0299
 IR Inten    --      4.1442                 1.4485                 6.5035

                     43                     44                     45
                      A                      A                      A
 Frequencies --   1040.1961              1066.2990              1072.5735
 Red. masses --      2.1646                 2.1405                 2.0175
 Frc consts  --      1.3799                 1.4339                 1.3675
 IR Inten    --      4.9010                11.9187                 2.7633

                     46                     47                     48
                      A                      A                      A
 Frequencies --   1079.7465              1114.5957              1122.9518
 Red. masses --      1.5166                 1.9300                 2.6485
 Frc consts  --      1.0417                 1.4126                 1.9677
 IR Inten    --      5.1053                18.4468                 3.2975

                     49                     50                     51
                      A                      A                      A
 Frequencies --   1137.1802              1144.5550              1190.2768
 Red. masses --      1.8643                 2.0033                 2.3286
 Frc consts  --      1.4204                 1.5462                 1.9438
 IR Inten    --      7.2333                11.1694                34.6282

                     52                     53                     54
                      A                      A                      A
 Frequencies --   1206.4569              1224.1297              1232.1768
 Red. masses --      2.7247                 1.7054                 1.3278
 Frc consts  --      2.3367                 1.5057                 1.1877
 IR Inten    --     42.8730                 7.8698                 5.1892

                     55                     56                     57
                      A                      A                      A
 Frequencies --   1237.1283              1241.6382              1268.0279
 Red. masses --      1.9838                 1.3267                 1.2799
 Frc consts  --      1.7889                 1.2051                 1.2125
 IR Inten    --      3.8277                23.2471                 3.3368

                     58                     59                     60
                      A                      A                      A
 Frequencies --   1284.2377              1292.8051              1309.2659
 Red. masses --      1.2912                 1.4063                 1.5595
 Frc consts  --      1.2547                 1.3848                 1.5750
 IR Inten    --     14.0296                 7.2915                13.0264

                     61                     62                     63
                      A                      A                      A
 Frequencies --   1336.3948              1343.0390              1351.7846
 Red. masses --      1.3326                 1.2579                 3.3025
 Frc consts  --      1.4022                 1.3369                 3.5556
 IR Inten    --      2.4658                 2.7999                 8.1888

                     64                     65                     66
                      A                      A                      A
 Frequencies --   1369.6941              1373.7921              1386.6094
 Red. masses --      1.4780                 1.3879                 1.5211
 Frc consts  --      1.6337                 1.5433                 1.7231
 IR Inten    --      5.0019                13.0205                24.0553

                     67                     68                     69
                      A                      A                      A
 Frequencies --   1412.6821              1417.8501              1434.5683
 Red. masses --      1.4962                 1.3838                 1.2791
 Frc consts  --      1.7592                 1.6391                 1.5509
 IR Inten    --     24.8390                29.5744                 3.2184

                     70                     71                     72
                      A                      A                      A
 Frequencies --   1434.8447              1436.1351              1508.4938
 Red. masses --      1.3586                 1.3188                 1.1174
 Frc consts  --      1.6480                 1.6026                 1.4982
 IR Inten    --     11.8296                 5.4418                 6.6040

                     73                     74                     75
                      A                      A                      A
 Frequencies --   1509.0399              1515.9797              1524.1174
 Red. masses --      1.1164                 1.0808                 1.1140
 Frc consts  --      1.4979                 1.4635                 1.5247
 IR Inten    --     11.3820                 0.7913                 0.9794

                     76                     77                     78
                      A                      A                      A
 Frequencies --   1524.6474              1526.0304              1526.7595
 Red. masses --      1.0522                 1.0530                 1.0576
 Frc consts  --      1.4411                 1.4448                 1.4525
 IR Inten    --      7.4066                 3.3154                 6.5795

                     79                     80                     81
                      A                      A                      A
 Frequencies --   1535.7351              1539.2140              1555.2524
 Red. masses --      1.1019                 1.0883                 3.1412
 Frc consts  --      1.5312                 1.5192                 4.4766
 IR Inten    --      3.1116                 1.5420                 5.8823

                     82                     83                     84
                      A                      A                      A
 Frequencies --   1560.7142              1605.3609              1685.1321
 Red. masses --      1.3217                 6.0290                 1.1005
 Frc consts  --      1.8968                 9.1546                 1.8413
 IR Inten    --      4.8735                42.6629                25.8629

                     85                     86                     87
                      A                      A                      A
 Frequencies --   2901.3732              2903.1511              2916.7985
 Red. masses --      1.0738                 1.0744                 1.0730
 Frc consts  --      5.3258                 5.3354                 5.3786
 IR Inten    --     32.8352                23.8387               243.0608

                     88                     89                     90
                      A                      A                      A
 Frequencies --   3027.0690              3042.6750              3043.6870
 Red. masses --      1.0838                 1.0355                 1.0457
 Frc consts  --      5.8515                 5.6480                 5.7076
 IR Inten    --     17.3596                16.8420                27.9779

                     91                     92                     93
                      A                      A                      A
 Frequencies --   3057.6697              3062.7675              3072.4808
 Red. masses --      1.0867                 1.0658                 1.0671
 Frc consts  --      5.9859                 5.8904                 5.9350
 IR Inten    --     18.8575                26.6679                 7.9394

                     94                     95                     96
                      A                      A                      A
 Frequencies --   3078.4177              3087.3587              3108.2513
 Red. masses --      1.0735                 1.0671                 1.1059
 Frc consts  --      5.9939                 5.9926                 6.2949
 IR Inten    --     63.5619                43.6495                 1.2182

                     97                     98                     99
                      A                      A                      A
 Frequencies --   3110.6383              3111.8643              3118.4071
 Red. masses --      1.1023                 1.0909                 1.0941
 Frc consts  --      6.2840                 6.2241                 6.2688
 IR Inten    --     42.5196                12.5490                 0.7572

                    100                    101                    102
                      A                      A                      A
 Frequencies --   3118.8396              3124.9809              3131.5644
 Red. masses --      1.1025                 1.0959                 1.1048
 Frc consts  --      6.3184                 6.3055                 6.3836
 IR Inten    --     29.2907                26.2563                54.2060

                    103                    104                    105
                      A                      A                      A
 Frequencies --   3157.7635              3444.0845              3536.7190
 Red. masses --      1.1021                 1.0490                 1.0926
 Frc consts  --      6.4750                 7.3314                 8.0524
 IR Inten    --      3.2524                 7.4920                 1.9346

 - Thermochemistry -
 -------------------
 Temperature   298.150 Kelvin.  Pressure   1.00000 Atm.
 Atom     1 has atomic number  6 and mass  12.00000

 Molecular mass:   239.14562 amu.
 Principal axes and moments of inertia in atomic units:
                           1         2         3
     Eigenvalues --  2209.710676984.439977195.60701
           X            0.99998   0.00127   0.00615
           Y           -0.00114   0.99979  -0.02055
           Z           -0.00617   0.02055   0.99977
 This molecule is an asymmetric top.
 Rotational symmetry number  1.
 Warning -- assumption of classical behavior for rotation
           may cause significant error
 Rotational temperatures (Kelvin)      0.03920     0.01240     0.01204
 Rotational constants (GHZ):           0.81673     0.25839     0.25081
 Zero-point vibrational energy     854455.3 (Joules/Mol)
                                  204.21971 (Kcal/Mol)
 Warning -- explicit consideration of  25 degrees of freedom as
           vibrations may cause significant error
 Vibrational temperatures:     33.01    41.80    53.73    62.46   108.01
          (Kelvin)            115.92   134.00   186.28   216.79   276.29
                              302.37   321.55   399.15   405.90   410.32
                              447.81   473.12   515.60   562.83   608.68
                              674.01   703.61   796.57   821.42   859.24
                              896.18   937.29   942.13   983.64  1006.98
                             1100.30  1253.19  1257.22  1267.10  1317.17
                             1336.95  1343.12  1370.28  1395.60  1409.24
                             1435.42  1459.52  1496.61  1534.17  1543.19
                             1553.51  1603.65  1615.68  1636.15  1646.76
                             1712.54  1735.82  1761.25  1772.83  1779.95
                             1786.44  1824.41  1847.73  1860.06  1883.74
                             1922.77  1932.33  1944.92  1970.68  1976.58
                             1995.02  2032.53  2039.97  2064.02  2064.42
                             2066.28  2170.39  2171.17  2181.16  2192.87
                             2193.63  2195.62  2196.67  2209.58  2214.59
                             2237.66  2245.52  2309.76  2424.53  4174.43
                             4176.99  4196.62  4355.28  4377.73  4379.19
                             4399.30  4406.64  4420.61  4429.16  4442.02
                             4472.08  4475.51  4477.28  4486.69  4487.31
                             4496.15  4505.62  4543.32  4955.27  5088.55

 Zero-point correction=                           0.325445 (Hartree/Particle)
 Thermal correction to Energy=                    0.342855
 Thermal correction to Enthalpy=                  0.343799
 Thermal correction to Gibbs Free Energy=         0.277713
 Sum of electronic and zero-point Energies=          -1032.101459
 Sum of electronic and thermal Energies=             -1032.084048
 Sum of electronic and thermal Enthalpies=           -1032.083104
 Sum of electronic and thermal Free Energies=        -1032.149190

                     E (Thermal)             CV                S
                      KCal/Mol        Cal/Mol-Kelvin    Cal/Mol-Kelvin
 Total                  215.145             64.094            139.090
 Electronic               0.000              0.000              0.000
 Translational            0.889              2.981             42.317
 Rotational               0.889              2.981             33.073
 Vibrational            213.367             58.133             63.699
 Vibration     1          0.593              1.985              6.362
 Vibration     2          0.593              1.984              5.893
 Vibration     3          0.594              1.982              5.395
 Vibration     4          0.595              1.980              5.097
 Vibration     5          0.599              1.966              4.016
 Vibration     6          0.600              1.962              3.877
 Vibration     7          0.602              1.954              3.593
 Vibration     8          0.612              1.924              2.954
 Vibration     9          0.618              1.902              2.664
 Vibration    10          0.634              1.851              2.208
 Vibration    11          0.642              1.825              2.042
 Vibration    12          0.649              1.805              1.931
 Vibration    13          0.678              1.715              1.550
 Vibration    14          0.681              1.707              1.521
 Vibration    15          0.683              1.701              1.502
 Vibration    16          0.700              1.652              1.356
 Vibration    17          0.712              1.618              1.266
 Vibration    18          0.733              1.558              1.129
 Vibration    19          0.759              1.489              0.996
 Vibration    20          0.785              1.420              0.882
 Vibration    21          0.826              1.320              0.742
 Vibration    22          0.845              1.274              0.686
 Vibration    23          0.909              1.132              0.537
 Vibration    24          0.927              1.094              0.502
 Vibration    25          0.955              1.038              0.454

 Optimization completed.
    -- Stationary point found.
 Normal termination of Gaussian 16 at Fri Dec 11 01:31:44 2020.

 ----------------------------------------------------------------------
 # B3LYP/6-311++G(d,p) empiricaldispersion=gd3bj scf=xqc pop=npa geom=c
 heck
 ----------------------------------------------------------------------

 --------------------------------------
 CID_82427655_JID_6869_Energie_neutraal
 --------------------------------------
 Structure from the checkpoint file:  "JID_6869.chk"
 Charge =  0 Multiplicity = 1

 SCF Done:  E(RB3LYP) =  -1032.63072038     A.U. after   15 cycles
 Normal termination of Gaussian 16 at Fri Dec 11 01:38:36 2020.

 ----------------------------------------------------------------------
 # B3LYP/6-311++G(d,p) empiricaldispersion=gd3bj scf=xqc pop=npa geom=c
 heck
 ----------------------------------------------------------------------

 ------------------------------------
 CID_82427655_JID_6869_Energie_kation
 ------------------------------------
 Structure from the checkpoint file:  "JID_6869.chk"
 Charge =  1 Multiplicity = 2

 SCF Done:  E(UB3LYP) =  -1032.35479194     A.U. after   26 cycles
 Normal termination of Gaussian 16 at Fri Dec 11 01:55:05 2020.
 Gaussian 16:  ES64L-G16RevA.03 25-Dec-2016

 ----------------------------------------------------------------------
 # B3LYP/6-311++G(d,p) empiricaldispersion=gd3bj scf=xqc pop=npa geom=c
 heck
 ----------------------------------------------------------------------

 -----------------------------------
 CID_82427655_JID_6869_Energie_anion
 -----------------------------------
 Structure from the checkpoint file:  "JID_6869.chk"
 Charge = -1 Multiplicity = 2

                         Standard orientation:
 ---------------------------------------------------------------------
 Center     Atomic      Atomic             Coordinates (Angstroms)
 Number     Number       Type             X           Y           Z
 ---------------------------------------------------------------------
      1          6           0        1.999353    2.552567   -0.553604
      2          6           0        1.493273    1.140805   -0.584656
      3          6           0        2.047279    0.082552    0.089064
      4         16           0        1.120317   -1.365338   -0.247075
      5          6           0        0.050637   -0.414294   -1.262664
      6          7           0        0.369726    0.845448   -1.335440
      7          6           0       -1.156858   -1.010734   -1.919113
      8          6           0       -2.230216   -1.436324   -0.901165
      9          7           0       -2.494349   -0.405430    0.079879
     10          6           0       -3.447904   -0.799453    1.111522
     11          6           0       -3.731372    0.512552    1.862626
     12          6           0       -3.451563    1.622045    0.809481
     13          6           0       -3.006908    0.857566   -0.451188
     14          6           0        3.282506    0.089934    0.957711
     15          6           0        3.433504   -1.183146    1.803798
     16          7           0        4.455815    0.390008    0.112950
     17          1           0        3.063210    2.576466   -0.307758
     18          1           0        1.851395    3.018845   -1.532359
     19          1           0        1.448013    3.154728    0.180826
     20          1           0       -1.551186   -0.251582   -2.600414
     21          1           0       -0.884482   -1.882465   -2.526468
     22          1           0       -3.144566   -1.732042   -1.457218
     23          1           0       -1.883184   -2.327570   -0.363025
     24          1           0       -3.023458   -1.585020    1.746878
     25          1           0       -4.383889   -1.197972    0.668181
     26          1           0       -4.755246    0.543014    2.246700
     27          1           0       -3.055720    0.616109    2.716568
     28          1           0       -4.329497    2.243665    0.610951
     29          1           0       -2.651343    2.283529    1.153235
     30          1           0       -3.871425    0.688017   -1.125888
     31          1           0       -2.230080    1.380821   -1.014202
     32          1           0        3.185869    0.937960    1.649805
     33          1           0        3.554661   -2.066562    1.164943
     34          1           0        4.321751   -1.106450    2.441205
     35          1           0        2.564458   -1.345261    2.451182
     36          1           0        5.301732    0.333378    0.681273
     37          1           0        4.539176   -0.330803   -0.603801
 ---------------------------------------------------------------------

 SCF Done:  E(UB3LYP) =  -1032.61709978     A.U. after   33 cycles
 SCF Done:  E(UB3LYP) =  -1032.61709978     a.u. after    1 cycles

 The electronic state is 2-A.
 Alpha  occ. eigenvalues --  -88.75924 -14.20911 -14.19214 -14.18689 -10.11467
 Alpha  occ. eigenvalues --  -10.10672 -10.10241 -10.09987 -10.09532 -10.08783
 Alpha  occ. eigenvalues --  -10.08398 -10.08184 -10.08114 -10.07910 -10.05870
 Alpha  occ. eigenvalues --  -10.05801  -7.84584  -5.80853  -5.80511  -5.80198
 Alpha  occ. eigenvalues --   -0.84971  -0.84195  -0.78556  -0.70975  -0.68424
 Alpha  occ. eigenvalues --   -0.67301  -0.63800  -0.63270  -0.62558  -0.57031
 Alpha  occ. eigenvalues --   -0.54833  -0.50795  -0.49569  -0.47767  -0.44318
 Alpha  occ. eigenvalues --   -0.43073  -0.40761  -0.39953  -0.39161  -0.36014
 Alpha  occ. eigenvalues --   -0.35610  -0.34305  -0.33615  -0.32794  -0.32366
 Alpha  occ. eigenvalues --   -0.31646  -0.30743  -0.30292  -0.29110  -0.28764
 Alpha  occ. eigenvalues --   -0.27885  -0.26809  -0.26548  -0.26348  -0.25707
 Alpha  occ. eigenvalues --   -0.25374  -0.24774  -0.23923  -0.23605  -0.23227
 Alpha  occ. eigenvalues --   -0.16582  -0.15999  -0.14285  -0.12825  -0.11645
 Alpha  occ. eigenvalues --    0.04563
 Alpha virt. eigenvalues --    0.05731   0.06710   0.07864   0.08005   0.08283
 Alpha virt. eigenvalues --    0.08889   0.08968   0.09649   0.09835   0.10328
 Alpha virt. eigenvalues --    0.10734   0.11037   0.11537   0.12023   0.12472

  Beta  occ. eigenvalues --  -88.75911 -14.20901 -14.19206 -14.18632 -10.11311
  Beta  occ. eigenvalues --  -10.10670 -10.10232 -10.09954 -10.09527 -10.08765
  Beta  occ. eigenvalues --  -10.08396 -10.08182 -10.08033 -10.07912 -10.05836
  Beta  occ. eigenvalues --  -10.05796  -7.84572  -5.80848  -5.80507  -5.80149
  Beta  occ. eigenvalues --   -0.84896  -0.84137  -0.78450  -0.70921  -0.68309
  Beta  occ. eigenvalues --   -0.67206  -0.63774  -0.63242  -0.62495  -0.56937
  Beta  occ. eigenvalues --   -0.54749  -0.50723  -0.49558  -0.47716  -0.44218
  Beta  occ. eigenvalues --   -0.42981  -0.40724  -0.39922  -0.39074  -0.35901
  Beta  occ. eigenvalues --   -0.35540  -0.34253  -0.33547  -0.32715  -0.32296
  Beta  occ. eigenvalues --   -0.31581  -0.30711  -0.30246  -0.29068  -0.28721
  Beta  occ. eigenvalues --   -0.27732  -0.26735  -0.26498  -0.26312  -0.25688
  Beta  occ. eigenvalues --   -0.25316  -0.24675  -0.23885  -0.23586  -0.23146
  Beta  occ. eigenvalues --   -0.16324  -0.15937  -0.14219  -0.12740  -0.11187
  Beta virt. eigenvalues --    0.06151   0.07143   0.07336   0.07889   0.08304
  Beta virt. eigenvalues --    0.08829   0.09100   0.09448   0.09833   0.10049
  Beta virt. eigenvalues --    0.10570   0.11095   0.11325   0.11643   0.12093

 Mulliken charges and spin densities:
               1          2
     1  C   -0.416954  -0.478944
     2  C   -1.126908  -0.109538
     3  C    3.735721  -1.781005
     4  S   -0.491628  -0.226408
     5  C    0.888825  -0.708601
     6  N    0.229611   0.005012
     7  C   -0.691382   0.467898
     8  C    0.528723  -0.752352
     9  N    0.300069   0.094576
    10  C   -0.002856  -0.233771
    11  C   -0.348017   0.057530
    12  C   -0.385158  -0.074672
    13  C   -0.135753  -0.110138
    14  C   -3.352949   2.629045
    15  C    0.889441  -1.443605
    16  N   -0.112933  -0.120658
    17  H    0.124674   0.084423
    18  H    0.115836   0.029479
    19  H    0.144119  -0.010335
    20  H    0.191989  -0.007667
    21  H   -0.347301   0.547407
    22  H   -0.478501   0.581870
    23  H    0.027778   0.116809
    24  H    0.163297  -0.013700
    25  H   -0.066433   0.168417
    26  H    0.095333   0.027492
    27  H    0.131803   0.001922
    28  H    0.091841   0.018380
    29  H    0.135856   0.004323
    30  H    0.005513   0.129917
    31  H    0.163892   0.002453
    32  H   -0.074888   0.283655
    33  H    0.075817   0.058841
    34  H   -0.994350   1.158584
    35  H    0.115986   0.022697
    36  H   -0.283614   0.521239
    37  H    0.153500   0.059426
 Sum of Mulliken charges =  -1.00000   1.00000

 Dipole moment (field-independent basis, Debye):
    X=             -7.0285    Y=              1.9553    Z=              0.2118  Tot=              7.2985
 Quadrupole moment (field-independent basis, Debye-Ang):
   XX=           -210.6990   YY=           -137.1376   ZZ=           -143.5331
   XY=            -11.6410   XZ=            -26.9025   YZ=             -3.1102

 Summary of Natural Population Analysis:

                                       Natural Population
                Natural  -----------------------------------------------
    Atom  No    Charge         Core      Valence    Rydberg      Total
 -----------------------------------------------------------------------
      C    1   -0.29803      0.99963     2.29367    0.00473     3.29803
      C    2    0.06763      0.99942     1.91886    0.01408     2.93237
      C    3   -0.09931      0.99939     2.08779    0.01213     3.09931
      S    4    0.18428      4.99938     2.79921    0.01713     7.81572
      C    5    0.07078      0.99961     1.91084    0.01877     2.92922
      N    6   -0.25598      0.99963     2.74599    0.01036     3.75598
      C    7   -0.21935      0.99957     2.20867    0.01111     3.21935
      C    8   -0.07537      0.99962     2.06341    0.01234     3.07537
      N    9   -0.28030      0.99970     2.76786    0.01274     3.78030
      C   10   -0.08243      0.99964     2.07197    0.01082     3.08243
      C   11   -0.19504      0.99964     2.18838    0.00702     3.19504
      C   12   -0.19412      0.99964     2.18754    0.00694     3.19412
      C   13   -0.09103      0.99964     2.08040    0.01099     3.09103
      C   14   -0.03144      0.99956     2.01776    0.01412     3.03144
      C   15   -0.29231      0.99965     2.28623    0.00642     3.29231
      N   16   -0.41770      0.99977     2.90687    0.01106     3.91770
      H   17    0.11506      0.00000     0.38375    0.00118     0.38494
      H   18    0.10395      0.00000     0.39507    0.00098     0.39605
      H   19    0.09899      0.00000     0.39991    0.00110     0.40101
      H   20    0.10918      0.00000     0.38940    0.00142     0.39082
      H   21    0.11039      0.00000     0.38820    0.00141     0.38961
      H   22    0.08327      0.00000     0.41334    0.00340     0.41673
      H   23    0.09554      0.00000     0.40343    0.00103     0.40446
      H   24    0.09566      0.00000     0.40336    0.00098     0.40434
      H   25    0.07748      0.00000     0.42077    0.00174     0.42252
      H   26    0.09523      0.00000     0.40401    0.00075     0.40477
      H   27    0.09843      0.00000     0.40071    0.00085     0.40157
      H   28    0.09509      0.00000     0.40417    0.00074     0.40491
      H   29    0.10020      0.00000     0.39896    0.00084     0.39980
      H   30    0.07558      0.00000     0.42299    0.00144     0.42442
      H   31    0.10909      0.00000     0.38953    0.00138     0.39091
      H   32    0.09636      0.00000     0.40126    0.00238     0.40364
      H   33    0.09678      0.00000     0.40219    0.00103     0.40322
      H   34    0.10327      0.00000     0.39450    0.00224     0.39673
      H   35    0.10117      0.00000     0.39790    0.00093     0.39883
      H   36    0.17751      0.00000     0.31682    0.00567     0.32249
      H   37    0.17149      0.00000     0.32674    0.00177     0.32851
 =======================================================================
   * Total *   -0.00000     19.99347    44.79249    0.21404    65.00000

 Normal termination of Gaussian 16 at Fri Dec 11 02:16:20 2020.
