 Gaussian 16, Revision A.03,

 -----------------------------------------------------------
 # opt freq B3LYP/6-31G(d) empiricaldispersion=gd3bj scf=xqc
 -----------------------------------------------------------

 -------------------------------
 CID_136602400_JID_8438_neutraal
 -------------------------------
 Symbolic Z-matrix:
 Charge =  0 Multiplicity = 1

 SCF Done:  E(RB3LYP) =  -876.125580371     A.U. after   15 cycles
 SCF Done:  E(RB3LYP) =  -876.132388208     A.U. after   13 cycles
 SCF Done:  E(RB3LYP) =  -876.131614655     A.U. after   13 cycles
 SCF Done:  E(RB3LYP) =  -876.134245910     A.U. after   14 cycles
 SCF Done:  E(RB3LYP) =  -876.134667264     A.U. after   12 cycles
 SCF Done:  E(RB3LYP) =  -876.134881108     A.U. after   12 cycles
 SCF Done:  E(RB3LYP) =  -876.134823817     A.U. after   12 cycles
 SCF Done:  E(RB3LYP) =  -876.135013068     A.U. after   11 cycles
 SCF Done:  E(RB3LYP) =  -876.135051097     A.U. after   10 cycles
 SCF Done:  E(RB3LYP) =  -876.135079937     A.U. after   11 cycles
 SCF Done:  E(RB3LYP) =  -876.135085511     A.U. after   10 cycles
 SCF Done:  E(RB3LYP) =  -876.135089073     A.U. after   10 cycles
 SCF Done:  E(RB3LYP) =  -876.135089650     A.U. after    8 cycles
 Optimization completed.
    -- Stationary point found.
 Normal termination of Gaussian 16 at Fri Dec 11 20:25:33 2020.

 --------------------------------------------------------------------
 #N Geom=AllCheck Guess=TCheck SCRF=Check GenChk RB3LYP/6-31G(d) Freq
 --------------------------------------------------------------------

 Structure from the checkpoint file:  "JID_8438.chk"
 -------------------------------
 CID_136602400_JID_8438_neutraal
 -------------------------------
 Charge =  0 Multiplicity = 1

 SCF Done:  E(RB3LYP) =  -876.135089650     A.U. after    1 cycles

  Exact polarizability: 175.971   8.731 203.660   0.710  14.507 100.012
 Approx polarizability: 256.569  17.394 331.525   5.867  46.942 161.917

                      1                      2                      3
                      A                      A                      A
 Frequencies --     22.8957                36.4888                44.1835
 Red. masses --      5.1258                 6.0823                 5.7997
 Frc consts  --      0.0016                 0.0048                 0.0067
 IR Inten    --      0.8039                 2.7138                 0.0269

                      4                      5                      6
                      A                      A                      A
 Frequencies --     69.2174                91.2095               107.6721
 Red. masses --      5.0061                 3.8543                 4.2342
 Frc consts  --      0.0141                 0.0189                 0.0289
 IR Inten    --      1.5271                 0.3161                 3.7910

                      7                      8                      9
                      A                      A                      A
 Frequencies --    109.4927               120.9201               140.3434
 Red. masses --      3.0408                 2.3209                 1.1992
 Frc consts  --      0.0215                 0.0200                 0.0139
 IR Inten    --      2.1866                 0.7979                 0.1056

                     10                     11                     12
                      A                      A                      A
 Frequencies --    146.4713               159.4020               171.4135
 Red. masses --      1.2658                 2.3416                 2.7665
 Frc consts  --      0.0160                 0.0351                 0.0479
 IR Inten    --      0.2103                 0.4448                 2.1593

                     13                     14                     15
                      A                      A                      A
 Frequencies --    179.1795               198.7811               251.7750
 Red. masses --      1.2764                 3.9240                 4.2406
 Frc consts  --      0.0241                 0.0914                 0.1584
 IR Inten    --      0.1536                 5.0956                 4.8978

                     16                     17                     18
                      A                      A                      A
 Frequencies --    257.2986               266.2366               278.6895
 Red. masses --      4.3287                 3.8709                 5.0374
 Frc consts  --      0.1688                 0.1617                 0.2305
 IR Inten    --      5.5910                 0.3102                 6.7364

                     19                     20                     21
                      A                      A                      A
 Frequencies --    329.5576               340.8175               360.6156
 Red. masses --      4.6781                 4.3856                 4.2931
 Frc consts  --      0.2994                 0.3001                 0.3289
 IR Inten    --      4.2059                 6.1966                 6.8124

                     22                     23                     24
                      A                      A                      A
 Frequencies --    386.9603               413.5613               436.1339
 Red. masses --      5.8356                 5.4393                 4.9426
 Frc consts  --      0.5148                 0.5481                 0.5539
 IR Inten    --      9.4910                11.7138                 3.1398

                     25                     26                     27
                      A                      A                      A
 Frequencies --    502.3476               565.3955               617.4307
 Red. masses --      6.3334                 4.5158                 4.1178
 Frc consts  --      0.9417                 0.8505                 0.9249
 IR Inten    --      4.9903                 1.6645                 4.7680

                     28                     29                     30
                      A                      A                      A
 Frequencies --    648.0869               703.2310               725.9397
 Red. masses --      5.6276                 3.7269                 2.3170
 Frc consts  --      1.3927                 1.0859                 0.7194
 IR Inten    --      0.9311                 1.7445                17.3997

                     31                     32                     33
                      A                      A                      A
 Frequencies --    737.8716               775.9642               788.2086
 Red. masses --      2.5998                 4.2277                 4.3681
 Frc consts  --      0.8340                 1.4998                 1.5989
 IR Inten    --     41.8342                 3.6368                15.8925

                     34                     35                     36
                      A                      A                      A
 Frequencies --    819.0276               821.9300               854.2464
 Red. masses --      4.6345                 2.2251                 5.4702
 Frc consts  --      1.8317                 0.8857                 2.3519
 IR Inten    --     16.4843                 6.6930                 5.1198

                     37                     38                     39
                      A                      A                      A
 Frequencies --    870.1283               899.0143               952.2777
 Red. masses --      1.3755                 6.0831                 1.6595
 Frc consts  --      0.6136                 2.8968                 0.8866
 IR Inten    --      2.9785                 9.0827                16.7154

                     40                     41                     42
                      A                      A                      A
 Frequencies --    992.4815              1033.2674              1047.5849
 Red. masses --      6.4887                 2.8068                 6.7633
 Frc consts  --      3.7658                 1.7655                 4.3731
 IR Inten    --      4.5481                 9.7072                51.2962

                     43                     44                     45
                      A                      A                      A
 Frequencies --   1074.1262              1112.5357              1130.3428
 Red. masses --      2.1699                 1.3414                 2.3883
 Frc consts  --      1.4750                 0.9782                 1.7978
 IR Inten    --     16.9650                12.1275                73.0165

                     46                     47                     48
                      A                      A                      A
 Frequencies --   1143.3762              1158.8202              1185.0793
 Red. masses --      1.0879                 1.3028                 1.2765
 Frc consts  --      0.8380                 1.0307                 1.0563
 IR Inten    --     36.6629                12.4431                 0.5988

                     49                     50                     51
                      A                      A                      A
 Frequencies --   1185.4744              1191.4165              1213.9361
 Red. masses --      1.3093                 2.5648                 1.7345
 Frc consts  --      1.0841                 2.1450                 1.5060
 IR Inten    --      9.6655               130.8482                22.5843

                     52                     53                     54
                      A                      A                      A
 Frequencies --   1222.5921              1232.5840              1248.6998
 Red. masses --      1.6314                 2.8004                 1.9195
 Frc consts  --      1.4367                 2.5067                 1.7634
 IR Inten    --     40.4015                93.6997               250.3793

                     55                     56                     57
                      A                      A                      A
 Frequencies --   1290.4659              1319.5105              1396.3102
 Red. masses --      2.1478                 2.2808                 1.7851
 Frc consts  --      2.1073                 2.3397                 2.0506
 IR Inten    --    363.0806                79.2418                26.7911

                     58                     59                     60
                      A                      A                      A
 Frequencies --   1405.7965              1411.6635              1439.6844
 Red. masses --      4.6031                 5.7670                 1.3209
 Frc consts  --      5.3597                 6.7712                 1.6131
 IR Inten    --     37.2027                31.7195                44.7903

                     61                     62                     63
                      A                      A                      A
 Frequencies --   1465.8399              1480.4671              1492.5709
 Red. masses --      2.0853                 2.1012                 1.2410
 Frc consts  --      2.6399                 2.7134                 1.6289
 IR Inten    --     29.7286                18.5312                12.5659

                     64                     65                     66
                      A                      A                      A
 Frequencies --   1493.4063              1511.9289              1512.0046
 Red. masses --      1.2941                 1.0485                 1.0497
 Frc consts  --      1.7004                 1.4121                 1.4139
 IR Inten    --      6.0351                 7.3762                 3.0269

                     67                     68                     69
                      A                      A                      A
 Frequencies --   1516.5595              1523.6191              1526.7987
 Red. masses --      1.0474                 1.0494                 1.0668
 Frc consts  --      1.4193                 1.4354                 1.4652
 IR Inten    --     11.3025                 8.0781                23.4872

                     70                     71                     72
                      A                      A                      A
 Frequencies --   1539.2085              1544.0718              1584.9626
 Red. masses --      1.5736                 1.6803                 5.1154
 Frc consts  --      2.1965                 2.3603                 7.5713
 IR Inten    --    126.5374                22.2348                10.5544

                     73                     74                     75
                      A                      A                      A
 Frequencies --   1652.4761              1686.4806              1788.8152
 Red. masses --      9.3977                 6.1031                11.6993
 Frc consts  --     15.1196                10.2273                22.0567
 IR Inten    --     29.0678                64.5232               265.8412

                     76                     77                     78
                      A                      A                      A
 Frequencies --   1791.4977              3073.0048              3075.4072
 Red. masses --     11.5188                 1.0293                 1.0318
 Frc consts  --     21.7817                 5.7270                 5.7497
 IR Inten    --    270.6822                41.0090                30.6232

                     79                     80                     81
                      A                      A                      A
 Frequencies --   3079.6286              3146.4896              3148.5472
 Red. masses --      1.0295                 1.1073                 1.1059
 Frc consts  --      5.7525                 6.4590                 6.4595
 IR Inten    --     31.4535                19.1965                 8.0074

                     82                     83                     84
                      A                      A                      A
 Frequencies --   3155.5599              3160.9538              3177.5867
 Red. masses --      1.1076                 1.1053                 1.1072
 Frc consts  --      6.4981                 6.5069                 6.5866
 IR Inten    --     17.4258                11.5056                13.4524

                     85                     86                     87
                      A                      A                      A
 Frequencies --   3180.0333              3189.6888              3202.5772
 Red. masses --      1.0888                 1.1074                 1.0890
 Frc consts  --      6.4873                 6.6382                 6.5809
 IR Inten    --      4.3128                13.2561                15.7794

                     88                     89                     90
                      A                      A                      A
 Frequencies --   3272.5117              3296.0686              3373.2098
 Red. masses --      1.0918                 1.1025                 1.0735
 Frc consts  --      6.8892                 7.0569                 7.1968
 IR Inten    --      0.4987                 1.8383                11.8335

 - Thermochemistry -
 -------------------
 Temperature   298.150 Kelvin.  Pressure   1.00000 Atm.
 Atom     1 has atomic number  6 and mass  12.00000

 Molecular mass:   250.09536 amu.
 Principal axes and moments of inertia in atomic units:
                           1         2         3
     Eigenvalues --  3656.194694885.984617272.52837
           X            0.99891  -0.04648  -0.00344
           Y            0.04641   0.99879  -0.01629
           Z            0.00420   0.01612   0.99986
 This molecule is an asymmetric top.
 Rotational symmetry number  1.
 Warning -- assumption of classical behavior for rotation
           may cause significant error
 Rotational temperatures (Kelvin)      0.02369     0.01773     0.01191
 Rotational constants (GHZ):           0.49361     0.36937     0.24816
 Zero-point vibrational energy     665591.1 (Joules/Mol)
                                  159.08009 (Kcal/Mol)
 Warning -- explicit consideration of  27 degrees of freedom as
           vibrations may cause significant error
 Vibrational temperatures:     32.94    52.50    63.57    99.59   131.23
          (Kelvin)            154.92   157.54   173.98   201.92   210.74
                              229.34   246.63   257.80   286.00   362.25
                              370.20   383.06   400.97   474.16   490.36
                              518.85   556.75   595.02   627.50   722.77
                              813.48   888.35   932.45  1011.79  1044.47
                             1061.63  1116.44  1134.06  1178.40  1182.57
                             1229.07  1251.92  1293.48  1370.12  1427.96
                             1486.64  1507.24  1545.43  1600.69  1626.31
                             1645.06  1667.28  1705.06  1705.63  1714.18
                             1746.58  1759.04  1773.41  1796.60  1856.69
                             1898.48  2008.98  2022.63  2031.07  2071.38
                             2109.02  2130.06  2147.48  2148.68  2175.33
                             2175.44  2181.99  2192.15  2196.72  2214.58
                             2221.57  2280.41  2377.54  2426.47  2573.71
                             2577.57  4421.37  4424.82  4430.90  4527.10
                             4530.06  4540.15  4547.91  4571.84  4575.36
                             4589.25  4607.79  4708.41  4742.31  4853.30

 Zero-point correction=                           0.253510 (Hartree/Particle)
 Thermal correction to Energy=                    0.272176
 Thermal correction to Enthalpy=                  0.273120
 Thermal correction to Gibbs Free Energy=         0.205071
 Sum of electronic and zero-point Energies=           -875.881579
 Sum of electronic and thermal Energies=              -875.862914
 Sum of electronic and thermal Enthalpies=            -875.861970
 Sum of electronic and thermal Free Energies=         -875.930019

                     E (Thermal)             CV                S
                      KCal/Mol        Cal/Mol-Kelvin    Cal/Mol-Kelvin
 Total                  170.793             65.712            143.222
 Electronic               0.000              0.000              0.000
 Translational            0.889              2.981             42.450
 Rotational               0.889              2.981             33.229
 Vibrational            169.015             59.751             67.542
 Vibration     1          0.593              1.985              6.366
 Vibration     2          0.594              1.982              5.441
 Vibration     3          0.595              1.980              5.062
 Vibration     4          0.598              1.969              4.175
 Vibration     5          0.602              1.955              3.634
 Vibration     6          0.606              1.943              3.310
 Vibration     7          0.606              1.942              3.278
 Vibration     8          0.609              1.932              3.086
 Vibration     9          0.615              1.913              2.799
 Vibration    10          0.617              1.906              2.718
 Vibration    11          0.621              1.892              2.557
 Vibration    12          0.626              1.878              2.420
 Vibration    13          0.629              1.868              2.337
 Vibration    14          0.637              1.842              2.144
 Vibration    15          0.664              1.760              1.718
 Vibration    16          0.667              1.750              1.680
 Vibration    17          0.672              1.735              1.621
 Vibration    18          0.679              1.713              1.542
 Vibration    19          0.712              1.616              1.262
 Vibration    20          0.720              1.594              1.208
 Vibration    21          0.735              1.553              1.119
 Vibration    22          0.755              1.498              1.012
 Vibration    23          0.777              1.441              0.914
 Vibration    24          0.797              1.391              0.839
 Vibration    25          0.858              1.245              0.652
 Vibration    26          0.921              1.106              0.513
 Vibration    27          0.977              0.995              0.421

                           ! Non-Optimized Parameters !
 Normal termination of Gaussian 16 at Fri Dec 11 20:38:30 2020.

 ----------------------------------------------------------------------
 # B3LYP/6-311++G(d,p) empiricaldispersion=gd3bj scf=xqc pop=npa geom=c
 heck
 ----------------------------------------------------------------------

 ---------------------------------------
 CID_136602400_JID_8438_Energie_neutraal
 ---------------------------------------
 Structure from the checkpoint file:  "JID_8438.chk"
 Charge =  0 Multiplicity = 1

 SCF Done:  E(RB3LYP) =  -876.386646168     A.U. after   16 cycles
 Normal termination of Gaussian 16 at Fri Dec 11 20:44:33 2020.

 ----------------------------------------------------------------------
 # B3LYP/6-311++G(d,p) empiricaldispersion=gd3bj scf=xqc pop=npa geom=c
 heck
 ----------------------------------------------------------------------

 -------------------------------------
 CID_136602400_JID_8438_Energie_kation
 -------------------------------------
 Structure from the checkpoint file:  "JID_8438.chk"
 Charge =  1 Multiplicity = 2

 SCF Done:  E(UB3LYP) =  -876.092737021     A.U. after   29 cycles
 Normal termination of Gaussian 16 at Fri Dec 11 21:00:51 2020.
 Gaussian 16:  ES64L-G16RevA.03 25-Dec-2016

 ----------------------------------------------------------------------
 # B3LYP/6-311++G(d,p) empiricaldispersion=gd3bj scf=xqc pop=npa geom=c
 heck
 ----------------------------------------------------------------------

 ------------------------------------
 CID_136602400_JID_8438_Energie_anion
 ------------------------------------
 Structure from the checkpoint file:  "JID_8438.chk"
 Charge = -1 Multiplicity = 2

                         Standard orientation:
 ---------------------------------------------------------------------
 Center     Atomic      Atomic             Coordinates (Angstroms)
 Number     Number       Type             X           Y           Z
 ---------------------------------------------------------------------
      1          6           0       -1.198460    2.845687   -0.858231
      2          7           0        0.100195    2.264007   -0.558410
      3          6           0        1.273366    2.984611   -0.517071
      4          6           0        2.301479    2.129236   -0.211359
      5          6           0        1.740812    0.829338   -0.060370
      6          6           0        0.357729    0.938634   -0.281625
      7          6           0       -0.702556   -0.076707   -0.278479
      8          6           0       -0.520294   -1.233486   -0.962490
      9          6           0       -1.322579   -2.456737   -0.953191
     10          7           0       -1.031121   -3.519808   -1.609118
     11          6           0       -1.879959    0.224643    0.593920
     12          8           0       -1.850234    1.021730    1.510468
     13          8           0       -2.998213   -0.445670    0.240575
     14          6           0       -4.142883   -0.202766    1.076431
     15          6           0        2.572373   -0.311436    0.346199
     16          8           0        3.780197   -0.248122    0.484478
     17          8           0        1.872318   -1.451930    0.570617
     18          6           0        2.656651   -2.575597    0.990681
     19          1           0       -1.736321    3.092104    0.060794
     20          1           0       -1.049499    3.748478   -1.453864
     21          1           0       -1.794239    2.139328   -1.441935
     22          1           0        1.267438    4.045987   -0.718311
     23          1           0        3.346535    2.370904   -0.090640
     24          1           0        0.391374   -1.302794   -1.551630
     25          1           0       -2.221312   -2.477314   -0.341601
     26          1           0       -0.167483   -3.375304   -2.150248
     27          1           0       -4.416325    0.854878    1.047027
     28          1           0       -4.939531   -0.820093    0.662080
     29          1           0       -3.929277   -0.485697    2.110004
     30          1           0        3.427594   -2.807672    0.251096
     31          1           0        3.139986   -2.371039    1.949788
     32          1           0        1.950925   -3.401743    1.084549
 ---------------------------------------------------------------------

 SCF Done:  E(UB3LYP) =  -876.427906641     A.U. after   25 cycles

 The electronic state is 2-A.
 Alpha  occ. eigenvalues --  -19.03935 -19.03602 -18.97710 -18.96192 -14.24501
 Alpha  occ. eigenvalues --  -14.13049 -10.17056 -10.14970 -10.11671 -10.11204
 Alpha  occ. eigenvalues --  -10.10012 -10.08425 -10.07576 -10.04643 -10.04237
 Alpha  occ. eigenvalues --  -10.04192 -10.02904 -10.01619  -0.97937  -0.97466
 Alpha  occ. eigenvalues --   -0.88975  -0.88222  -0.87051  -0.74409  -0.69593
 Alpha  occ. eigenvalues --   -0.66897  -0.62712  -0.61260  -0.58680  -0.58132
 Alpha  occ. eigenvalues --   -0.51176  -0.48954  -0.46247  -0.44259  -0.43665
 Alpha  occ. eigenvalues --   -0.42685  -0.39984  -0.37149  -0.36520  -0.36281
 Alpha  occ. eigenvalues --   -0.35516  -0.35073  -0.34873  -0.34687  -0.32064
 Alpha  occ. eigenvalues --   -0.31575  -0.30864  -0.29847  -0.28650  -0.27947
 Alpha  occ. eigenvalues --   -0.27922  -0.27454  -0.25541  -0.25363  -0.25113
 Alpha  occ. eigenvalues --   -0.24072  -0.21723  -0.20143  -0.18477  -0.18247
 Alpha  occ. eigenvalues --   -0.15699  -0.14574  -0.13374  -0.12760  -0.11471
 Alpha  occ. eigenvalues --   -0.09048   0.01770
 Alpha virt. eigenvalues --    0.07509   0.08169   0.08797   0.09715   0.10242
 Alpha virt. eigenvalues --    0.10996   0.11196   0.11700   0.11863   0.12155
 Alpha virt. eigenvalues --    0.13080   0.13204   0.13740   0.14372   0.14439

  Beta  occ. eigenvalues --  -19.03932 -19.03555 -18.97655 -18.95975 -14.24437
  Beta  occ. eigenvalues --  -14.12483 -10.17025 -10.14839 -10.11673 -10.11205
  Beta  occ. eigenvalues --  -10.10010 -10.08409 -10.07563 -10.04656 -10.04233
  Beta  occ. eigenvalues --  -10.04156 -10.02713 -10.01167  -0.97898  -0.97282
  Beta  occ. eigenvalues --   -0.88903  -0.87929  -0.86924  -0.73504  -0.69503
  Beta  occ. eigenvalues --   -0.66366  -0.62628  -0.61191  -0.58342  -0.58003
  Beta  occ. eigenvalues --   -0.50443  -0.48663  -0.46024  -0.44194  -0.43508
  Beta  occ. eigenvalues --   -0.42486  -0.39853  -0.36929  -0.36457  -0.36111
  Beta  occ. eigenvalues --   -0.35393  -0.35002  -0.34775  -0.34362  -0.31998
  Beta  occ. eigenvalues --   -0.31393  -0.30765  -0.29571  -0.28469  -0.27801
  Beta  occ. eigenvalues --   -0.27782  -0.26913  -0.25368  -0.25217  -0.24926
  Beta  occ. eigenvalues --   -0.23945  -0.21498  -0.18418  -0.17980  -0.17545
  Beta  occ. eigenvalues --   -0.15623  -0.14151  -0.12514  -0.12036  -0.10665
  Beta  occ. eigenvalues --   -0.07704
  Beta virt. eigenvalues --    0.07485   0.08058   0.08309   0.08815   0.09708
  Beta virt. eigenvalues --    0.11003   0.11012   0.11219   0.11704   0.11897
  Beta virt. eigenvalues --    0.12219   0.13078   0.13210   0.13784   0.14487

 Mulliken charges and spin densities:
               1          2
     1  C   -0.306320  -0.009454
     2  N    0.314651   0.024245
     3  C   -0.026174   0.016832
     4  C   -0.219967   0.003927
     5  C   -0.233238   0.016925
     6  C   -0.134256   0.008772
     7  C    0.929089   0.075127
     8  C   -0.281047   0.450362
     9  C   -0.432666  -0.066652
    10  N   -0.321140   0.292316
    11  C   -0.722087   0.097071
    12  O   -0.294624   0.073738
    13  O   -0.010180   0.005175
    14  C   -0.239723  -0.004434
    15  C   -0.538672   0.008497
    16  O   -0.329524   0.018901
    17  O   -0.058768  -0.003947
    18  C   -0.278214  -0.001918
    19  H    0.203654   0.009977
    20  H    0.118443   0.002244
    21  H    0.164203   0.002771
    22  H    0.133019  -0.001062
    23  H    0.161332   0.001106
    24  H    0.131888  -0.011435
    25  H    0.203627  -0.003111
    26  H    0.162926  -0.010894
    27  H    0.142986   0.000807
    28  H    0.121169   0.002181
    29  H    0.175238   0.000760
    30  H    0.164530  -0.000305
    31  H    0.153661   0.000103
    32  H    0.146181   0.001376
 Sum of Mulliken charges =  -1.00000   1.00000

 Dipole moment (field-independent basis, Debye):
    X=             -1.4682    Y=              4.5303    Z=              0.7156  Tot=              4.8157
 Quadrupole moment (field-independent basis, Debye-Ang):
   XX=           -134.3095   YY=           -135.5749   ZZ=           -120.2460
   XY=            -14.1281   XZ=             -4.6933   YZ=            -17.0619

 Summary of Natural Population Analysis:

                                       Natural Population
                Natural  -----------------------------------------------
    Atom  No    Charge         Core      Valence    Rydberg      Total
 -----------------------------------------------------------------------
      C    1   -0.17547      0.99965     2.16950    0.00632     3.17547
      N    2   -0.18691      0.99960     2.67900    0.00831     3.68691
      C    3   -0.02608      0.99958     2.01556    0.01094     3.02608
      C    4   -0.12671      0.99955     2.11812    0.00904     3.12671
      C    5   -0.11178      0.99941     2.10273    0.00965     3.11178
      C    6    0.12784      0.99949     1.86035    0.01232     2.87216
      C    7   -0.07243      0.99936     2.06025    0.01282     3.07243
      C    8    0.01824      0.99952     1.97307    0.00917     2.98176
      C    9    0.02523      0.99969     1.95978    0.01531     2.97477
      N   10   -0.22993      0.99975     2.71995    0.01023     3.72993
      C   11    0.41362      0.99964     1.56270    0.02404     2.58638
      O   12   -0.30653      0.99987     3.30086    0.00579     4.30653
      O   13   -0.27902      0.99986     3.26991    0.00925     4.27902
      C   14   -0.10641      0.99961     2.09820    0.00860     3.10641
      C   15    0.40242      0.99961     1.57495    0.02302     2.59758
      O   16   -0.32274      0.99988     3.31712    0.00574     4.32274
      O   17   -0.27256      0.99986     3.26312    0.00958     4.27256
      C   18   -0.10526      0.99961     2.09735    0.00830     3.10526
      H   19    0.10525      0.00000     0.39354    0.00121     0.39475
      H   20    0.09063      0.00000     0.40852    0.00085     0.40937
      H   21    0.10566      0.00000     0.39334    0.00101     0.39434
      H   22    0.09213      0.00000     0.40693    0.00094     0.40787
      H   23    0.10756      0.00000     0.39148    0.00096     0.39244
      H   24    0.08724      0.00000     0.41211    0.00066     0.41276
      H   25    0.08264      0.00000     0.41559    0.00178     0.41736
      H   26    0.14065      0.00000     0.35679    0.00256     0.35935
      H   27    0.08612      0.00000     0.41261    0.00128     0.41388
      H   28    0.08503      0.00000     0.41412    0.00085     0.41497
      H   29    0.08793      0.00000     0.41088    0.00119     0.41207
      H   30    0.08689      0.00000     0.41196    0.00114     0.41311
      H   31    0.08513      0.00000     0.41372    0.00115     0.41487
      H   32    0.09194      0.00000     0.40726    0.00081     0.40806
 =======================================================================
   * Total *    0.00031     17.99354    47.79137    0.21477    65.99969

 Normal termination of Gaussian 16 at Fri Dec 11 21:15:13 2020.
