 Gaussian 16, Revision A.03,

 -----------------------------------------------------------
 # opt freq B3LYP/6-31G(d) empiricaldispersion=gd3bj scf=xqc
 -----------------------------------------------------------

 ------------------------------
 CID_82328156_JID_5356_neutraal
 ------------------------------
 Symbolic Z-matrix:
 Charge =  0 Multiplicity = 1

 SCF Done:  E(RB3LYP) =  -748.203983704     A.U. after   14 cycles
 SCF Done:  E(RB3LYP) =  -748.208194037     A.U. after   12 cycles
 SCF Done:  E(RB3LYP) =  -748.203889311     A.U. after   13 cycles
 SCF Done:  E(RB3LYP) =  -748.207903666     A.U. after   13 cycles
 SCF Done:  E(RB3LYP) =  -748.209779105     A.U. after    9 cycles
 SCF Done:  E(RB3LYP) =  -748.209498193     A.U. after   13 cycles
 SCF Done:  E(RB3LYP) =  -748.211172759     A.U. after   13 cycles
 SCF Done:  E(RB3LYP) =  -748.211441792     A.U. after   12 cycles
 SCF Done:  E(RB3LYP) =  -748.211607306     A.U. after   11 cycles
 SCF Done:  E(RB3LYP) =  -748.211570315     A.U. after   12 cycles
 SCF Done:  E(RB3LYP) =  -748.211777760     A.U. after   10 cycles
 SCF Done:  E(RB3LYP) =  -748.211778753     A.U. after    9 cycles
 SCF Done:  E(RB3LYP) =  -748.211779357     A.U. after    8 cycles
 SCF Done:  E(RB3LYP) =  -748.211780173     A.U. after    9 cycles
 SCF Done:  E(RB3LYP) =  -748.211780490     A.U. after    9 cycles
 SCF Done:  E(RB3LYP) =  -748.211780562     A.U. after    8 cycles
 Optimization completed.
    -- Stationary point found.
 Normal termination of Gaussian 16 at Thu Dec 10 15:47:24 2020.

 --------------------------------------------------------------------
 #N Geom=AllCheck Guess=TCheck SCRF=Check GenChk RB3LYP/6-31G(d) Freq
 --------------------------------------------------------------------

 Structure from the checkpoint file:  "JID_5356.chk"
 ------------------------------
 CID_82328156_JID_5356_neutraal
 ------------------------------
 Charge =  0 Multiplicity = 1

 SCF Done:  E(RB3LYP) =  -748.211780562     A.U. after    1 cycles

  Exact polarizability: 137.310  -0.197 109.534  -2.488   4.026 114.812
 Approx polarizability: 171.431   2.631 155.854 -11.287   8.987 181.518

                      1                      2                      3
                      A                      A                      A
 Frequencies --     23.8273                28.7335                40.2482
 Red. masses --      7.0036                 4.6041                 7.2277
 Frc consts  --      0.0023                 0.0022                 0.0069
 IR Inten    --      8.7865                 0.3470                 0.7955

                      4                      5                      6
                      A                      A                      A
 Frequencies --     54.6148                81.7333                88.4975
 Red. masses --      4.4247                 2.7253                 4.0815
 Frc consts  --      0.0078                 0.0107                 0.0188
 IR Inten    --      2.8124                 0.0885                 1.9696

                      7                      8                      9
                      A                      A                      A
 Frequencies --    100.1929               116.8622               146.9547
 Red. masses --      3.0219                 3.1542                 1.9046
 Frc consts  --      0.0179                 0.0254                 0.0242
 IR Inten    --      1.0433                 2.0607                 1.0283

                     10                     11                     12
                      A                      A                      A
 Frequencies --    171.7329               190.9595               219.7258
 Red. masses --      3.5039                 4.3502                 1.3255
 Frc consts  --      0.0609                 0.0935                 0.0377
 IR Inten    --      7.6713                 0.3165                 1.2157

                     13                     14                     15
                      A                      A                      A
 Frequencies --    225.1115               253.9926               277.0986
 Red. masses --      1.7624                 2.2276                 1.8814
 Frc consts  --      0.0526                 0.0847                 0.0851
 IR Inten    --      1.2150                 0.3371                 0.2150

                     16                     17                     18
                      A                      A                      A
 Frequencies --    315.5159               358.8871               394.3693
 Red. masses --      3.0284                 2.2548                 2.3913
 Frc consts  --      0.1776                 0.1711                 0.2191
 IR Inten    --      2.4555                 1.6499                 1.5556

                     19                     20                     21
                      A                      A                      A
 Frequencies --    428.0823               441.3471               465.4735
 Red. masses --      2.6801                 2.4623                 3.4792
 Frc consts  --      0.2894                 0.2826                 0.4441
 IR Inten    --      2.6606                 3.3396                 5.1791

                     22                     23                     24
                      A                      A                      A
 Frequencies --    471.5753               506.6988               546.8782
 Red. masses --      1.4136                 3.1697                 3.7356
 Frc consts  --      0.1852                 0.4795                 0.6582
 IR Inten    --     76.2744                19.0770                18.0470

                     25                     26                     27
                      A                      A                      A
 Frequencies --    562.3486               582.1796               650.1647
 Red. masses --      3.0422                 1.7657                 2.7050
 Frc consts  --      0.5668                 0.3526                 0.6737
 IR Inten    --     35.3765                 5.2825                18.8260

                     28                     29                     30
                      A                      A                      A
 Frequencies --    673.9325               714.8104               754.1788
 Red. masses --      2.2022                 2.5538                 1.5742
 Frc consts  --      0.5893                 0.7688                 0.5275
 IR Inten    --     50.2492                39.3517                14.6042

                     31                     32                     33
                      A                      A                      A
 Frequencies --    796.2811               806.5538               835.9781
 Red. masses --      1.4060                 1.8407                 2.5410
 Frc consts  --      0.5252                 0.7055                 1.0463
 IR Inten    --      2.2842                28.9714                 3.4341

                     34                     35                     36
                      A                      A                      A
 Frequencies --    849.5117               895.0497               905.8357
 Red. masses --      2.4638                 1.7200                 3.3406
 Frc consts  --      1.0476                 0.8119                 1.6150
 IR Inten    --     11.8128                 8.1867                11.6799

                     37                     38                     39
                      A                      A                      A
 Frequencies --    964.3128               980.8836              1009.2393
 Red. masses --      1.7961                 1.6867                 2.0086
 Frc consts  --      0.9840                 0.9561                 1.2054
 IR Inten    --     11.1175                10.7327                 7.6616

                     40                     41                     42
                      A                      A                      A
 Frequencies --   1031.9313              1057.9146              1084.3720
 Red. masses --      4.4885                 1.8920                 2.7620
 Frc consts  --      2.8161                 1.2476                 1.9135
 IR Inten    --      3.2731                 3.8328                50.2266

                     43                     44                     45
                      A                      A                      A
 Frequencies --   1102.9169              1105.6975              1134.5247
 Red. masses --      1.9404                 2.2944                 1.9226
 Frc consts  --      1.3907                 1.6527                 1.4580
 IR Inten    --      7.8729                33.6189                 3.2257

                     46                     47                     48
                      A                      A                      A
 Frequencies --   1144.9404              1157.4047              1188.0155
 Red. masses --      1.8582                 2.0298                 1.8630
 Frc consts  --      1.4352                 1.6020                 1.5492
 IR Inten    --     48.0896                13.0801                53.1785

                     49                     50                     51
                      A                      A                      A
 Frequencies --   1200.3744              1211.4423              1276.8650
 Red. masses --      2.1970                 2.1272                 1.2812
 Frc consts  --      1.8651                 1.8394                 1.2307
 IR Inten    --    148.8945                71.9320                 5.5231

                     52                     53                     54
                      A                      A                      A
 Frequencies --   1285.4497              1294.9099              1311.9762
 Red. masses --      1.6463                 1.3691                 1.2497
 Frc consts  --      1.6028                 1.3526                 1.2674
 IR Inten    --     20.4875               237.5711                 1.4250

                     55                     56                     57
                      A                      A                      A
 Frequencies --   1325.2861              1348.4884              1357.5308
 Red. masses --      1.3595                 1.1514                 1.9384
 Frc consts  --      1.4068                 1.2335                 2.1048
 IR Inten    --      1.1142                20.4522               193.6370

                     58                     59                     60
                      A                      A                      A
 Frequencies --   1380.0052              1391.4568              1401.4040
 Red. masses --      1.3268                 1.9747                 1.3279
 Frc consts  --      1.4888                 2.2526                 1.5365
 IR Inten    --     19.6581                25.5341                 8.8405

                     61                     62                     63
                      A                      A                      A
 Frequencies --   1414.6311              1417.7574              1423.4007
 Red. masses --      1.3879                 1.3975                 1.4408
 Frc consts  --      1.6365                 1.6550                 1.7199
 IR Inten    --      3.6909                 3.8465                90.1041

                     64                     65                     66
                      A                      A                      A
 Frequencies --   1437.1134              1443.2692              1448.2154
 Red. masses --      1.2474                 1.2764                 1.3452
 Frc consts  --      1.5179                 1.5665                 1.6623
 IR Inten    --     22.6034                 5.3749                 5.6734

                     67                     68                     69
                      A                      A                      A
 Frequencies --   1492.2685              1508.1209              1510.0595
 Red. masses --      1.0873                 1.0820                 1.0875
 Frc consts  --      1.4266                 1.4499                 1.4610
 IR Inten    --      1.4305                 6.4190                 4.8318

                     70                     71                     72
                      A                      A                      A
 Frequencies --   1515.9454              1524.4809              1527.8546
 Red. masses --      1.0497                 1.0643                 1.0490
 Frc consts  --      1.4213                 1.4573                 1.4427
 IR Inten    --      1.5047                 9.3339                 1.7167

                     73                     74                     75
                      A                      A                      A
 Frequencies --   1531.2743              1544.1713              1548.1893
 Red. masses --      1.0469                 1.0836                 1.0797
 Frc consts  --      1.4463                 1.5223                 1.5248
 IR Inten    --      4.7204                 3.4592                 5.3967

                     76                     77                     78
                      A                      A                      A
 Frequencies --   1826.9441              1877.6998              2980.4734
 Red. masses --      9.8576                10.0116                 1.0717
 Frc consts  --     19.3853                20.7973                 5.6094
 IR Inten    --    222.6080               212.6334                44.6030

                     79                     80                     81
                      A                      A                      A
 Frequencies --   3029.9046              3030.4589              3035.7170
 Red. masses --      1.0695                 1.0819                 1.0594
 Frc consts  --      5.7847                 5.8540                 5.7522
 IR Inten    --     24.9330                 9.7422                 7.3850

                     82                     83                     84
                      A                      A                      A
 Frequencies --   3043.8941              3048.2423              3069.6181
 Red. masses --      1.0369                 1.0722                 1.0987
 Frc consts  --      5.6604                 5.8700                 6.0993
 IR Inten    --     29.6486                30.3766                 6.5734

                     85                     86                     87
                      A                      A                      A
 Frequencies --   3075.0414              3082.9030              3084.5209
 Red. masses --      1.0640                 1.0382                 1.0865
 Frc consts  --      5.9279                 5.8137                 6.0906
 IR Inten    --     17.8027                15.8575                35.6196

                     88                     89                     90
                      A                      A                      A
 Frequencies --   3096.5284              3101.4785              3113.9573
 Red. masses --      1.0943                 1.0956                 1.1017
 Frc consts  --      6.1819                 6.2093                 6.2942
 IR Inten    --      9.2792                24.0497                49.2967

                     91                     92                     93
                      A                      A                      A
 Frequencies --   3120.7231              3122.2263              3153.1116
 Red. masses --      1.1050                 1.0962                 1.1010
 Frc consts  --      6.3408                 6.2958                 6.4491
 IR Inten    --     11.4530                65.1785                21.3419

                     94                     95                     96
                      A                      A                      A
 Frequencies --   3166.2929              3680.4075              3727.4093
 Red. masses --      1.1015                 1.0639                 1.0658
 Frc consts  --      6.5063                 8.4905                 8.7246
 IR Inten    --     13.2779                49.2837                25.6290

 - Thermochemistry -
 -------------------
 Temperature   298.150 Kelvin.  Pressure   1.00000 Atm.
 Atom     1 has atomic number  6 and mass  12.00000

 Molecular mass:   217.13141 amu.
 Principal axes and moments of inertia in atomic units:
                           1         2         3
     Eigenvalues --  2087.117506132.645676832.80301
           X            0.99969  -0.02450   0.00511
           Y            0.02446   0.99967   0.00840
           Z           -0.00531  -0.00827   0.99995
 This molecule is an asymmetric top.
 Rotational symmetry number  1.
 Warning -- assumption of classical behavior for rotation
           may cause significant error
 Rotational temperatures (Kelvin)      0.04150     0.01412     0.01268
 Rotational constants (GHZ):           0.86471     0.29428     0.26413
 Zero-point vibrational energy     774447.9 (Joules/Mol)
                                  185.09750 (Kcal/Mol)
 Warning -- explicit consideration of  26 degrees of freedom as
           vibrations may cause significant error
 Vibrational temperatures:     34.28    41.34    57.91    78.58   117.60
          (Kelvin)            127.33   144.16   168.14   211.44   247.09
                              274.75   316.14   323.89   365.44   398.68
                              453.96   516.36   567.41   615.91   635.00
                              669.71   678.49   729.03   786.84   809.09
                              837.63   935.44   969.64  1028.45  1085.10
                             1145.67  1160.45  1202.79  1222.26  1287.78
                             1303.30  1387.43  1411.27  1452.07  1484.72
                             1522.10  1560.17  1586.85  1590.85  1632.33
                             1647.31  1665.25  1709.29  1727.07  1743.00
                             1837.12  1849.48  1863.09  1887.64  1906.79
                             1940.17  1953.18  1985.52  2002.00  2016.31
                             2035.34  2039.84  2047.96  2067.69  2076.54
                             2083.66  2147.04  2169.85  2172.64  2181.11
                             2193.39  2198.24  2203.16  2221.72  2227.50
                             2628.57  2701.59  4288.24  4359.36  4360.15
                             4367.72  4379.48  4385.74  4416.50  4424.30
                             4435.61  4437.94  4455.21  4462.34  4480.29
                             4490.02  4492.19  4536.62  4555.59  5295.29
                             5362.91

 Zero-point correction=                           0.294972 (Hartree/Particle)
 Thermal correction to Energy=                    0.312318
 Thermal correction to Enthalpy=                  0.313262
 Thermal correction to Gibbs Free Energy=         0.247678
 Sum of electronic and zero-point Energies=           -747.916809
 Sum of electronic and thermal Energies=              -747.899463
 Sum of electronic and thermal Enthalpies=            -747.898519
 Sum of electronic and thermal Free Energies=         -747.964103

                     E (Thermal)             CV                S
                      KCal/Mol        Cal/Mol-Kelvin    Cal/Mol-Kelvin
 Total                  195.982             62.484            138.033
 Electronic               0.000              0.000              0.000
 Translational            0.889              2.981             42.029
 Rotational               0.889              2.981             32.836
 Vibrational            194.205             56.523             63.168
 Vibration     1          0.593              1.985              6.287
 Vibration     2          0.593              1.984              5.915
 Vibration     3          0.594              1.981              5.247
 Vibration     4          0.596              1.976              4.643
 Vibration     5          0.600              1.962              3.849
 Vibration     6          0.601              1.957              3.693
 Vibration     7          0.604              1.949              3.451
 Vibration     8          0.608              1.935              3.152
 Vibration     9          0.617              1.906              2.711
 Vibration    10          0.626              1.877              2.416
 Vibration    11          0.634              1.852              2.218
 Vibration    12          0.647              1.811              1.961
 Vibration    13          0.650              1.803              1.918
 Vibration    14          0.665              1.756              1.703
 Vibration    15          0.678              1.716              1.552
 Vibration    16          0.703              1.644              1.333
 Vibration    17          0.734              1.557              1.127
 Vibration    18          0.761              1.482              0.984
 Vibration    19          0.790              1.409              0.865
 Vibration    20          0.801              1.380              0.822
 Vibration    21          0.823              1.327              0.750
 Vibration    22          0.829              1.313              0.733
 Vibration    23          0.862              1.235              0.642
 Vibration    24          0.902              1.147              0.551
 Vibration    25          0.918              1.113              0.519
 Vibration    26          0.939              1.070              0.481

                           ! Non-Optimized Parameters !
 Normal termination of Gaussian 16 at Thu Dec 10 15:58:26 2020.

 ----------------------------------------------------------------------
 # B3LYP/6-311++G(d,p) empiricaldispersion=gd3bj scf=xqc pop=npa geom=c
 heck
 ----------------------------------------------------------------------

 --------------------------------------
 CID_82328156_JID_5356_Energie_neutraal
 --------------------------------------
 Structure from the checkpoint file:  "JID_5356.chk"
 Charge =  0 Multiplicity = 1

 SCF Done:  E(RB3LYP) =  -748.448962551     A.U. after   14 cycles
 Normal termination of Gaussian 16 at Thu Dec 10 16:03:01 2020.

 ----------------------------------------------------------------------
 # B3LYP/6-311++G(d,p) empiricaldispersion=gd3bj scf=xqc pop=npa geom=c
 heck
 ----------------------------------------------------------------------

 ------------------------------------
 CID_82328156_JID_5356_Energie_kation
 ------------------------------------
 Structure from the checkpoint file:  "JID_5356.chk"
 Charge =  1 Multiplicity = 2

 SCF Done:  E(UB3LYP) =  -748.156662513     A.U. after   19 cycles
 Normal termination of Gaussian 16 at Thu Dec 10 16:12:59 2020.
 Gaussian 16:  ES64L-G16RevA.03 25-Dec-2016

 ----------------------------------------------------------------------
 # B3LYP/6-311++G(d,p) empiricaldispersion=gd3bj scf=xqc pop=npa geom=c
 heck
 ----------------------------------------------------------------------

 -----------------------------------
 CID_82328156_JID_5356_Energie_anion
 -----------------------------------
 Structure from the checkpoint file:  "JID_5356.chk"
 Charge = -1 Multiplicity = 2

                         Standard orientation:
 ---------------------------------------------------------------------
 Center     Atomic      Atomic             Coordinates (Angstroms)
 Number     Number       Type             X           Y           Z
 ---------------------------------------------------------------------
      1          6           0       -3.134653    2.535456    0.577394
      2          6           0       -3.077801    1.301819   -0.329309
      3          6           0       -1.870746    1.291366   -1.283005
      4          6           0       -0.466357    1.184458   -0.653382
      5          7           0        0.038294   -0.180671   -0.495645
      6          6           0        1.465795   -0.332587   -0.721651
      7          6           0        2.389992    0.282697    0.348736
      8          6           0        3.858126    0.165392   -0.030659
      9          8           0        4.261378   -0.321137   -1.056773
     10          8           0        4.742179    0.657148    0.882664
     11          6           0       -0.516020   -1.015040    0.562367
     12          6           0       -0.738141   -0.354861    1.932469
     13          6           0       -1.787392   -1.757632    0.128704
     14          8           0       -2.704301   -2.045401    0.869497
     15          8           0       -1.760365   -2.134306   -1.167888
     16          1           0       -3.147315    3.458609   -0.015210
     17          1           0       -2.271225    2.590834    1.250726
     18          1           0       -4.034879    2.524535    1.201541
     19          1           0       -3.109868    0.396035    0.283756
     20          1           0       -3.988424    1.273763   -0.941984
     21          1           0       -1.968029    0.475764   -2.007424
     22          1           0       -1.902372    2.228073   -1.856983
     23          1           0        0.235336    1.675924   -1.334885
     24          1           0       -0.426115    1.763697    0.284579
     25          1           0        1.696680   -1.398298   -0.817612
     26          1           0        1.715156    0.115166   -1.688284
     27          1           0        2.147691    1.344482    0.496367
     28          1           0        2.239741   -0.206003    1.321032
     29          1           0        4.261158    1.013559    1.647896
     30          1           0        0.205151   -1.832044    0.706709
     31          1           0       -1.505107    0.421355    1.890427
     32          1           0       -1.068955   -1.100703    2.658306
     33          1           0        0.190735    0.099775    2.288573
     34          1           0       -2.585363   -2.636670   -1.307999
 ---------------------------------------------------------------------

 SCF Done:  E(UB3LYP) =  -748.446451255     A.U. after   32 cycles

 The electronic state is 2-A.
 Alpha  occ. eigenvalues --  -19.08580 -19.05939 -19.02804 -19.00930 -14.20999
 Alpha  occ. eigenvalues --  -10.21404 -10.20328 -10.12680 -10.10121 -10.10030
 Alpha  occ. eigenvalues --  -10.08240 -10.07732 -10.07426 -10.07220 -10.06547
 Alpha  occ. eigenvalues --   -1.02625  -0.99752  -0.93451  -0.92046  -0.83652
 Alpha  occ. eigenvalues --   -0.70667  -0.69184  -0.66394  -0.62167  -0.58580
 Alpha  occ. eigenvalues --   -0.56215  -0.53362  -0.50419  -0.49899  -0.46573
 Alpha  occ. eigenvalues --   -0.42896  -0.41406  -0.40675  -0.40235  -0.37841
 Alpha  occ. eigenvalues --   -0.36734  -0.36448  -0.35948  -0.35170  -0.33849
 Alpha  occ. eigenvalues --   -0.32681  -0.32313  -0.31267  -0.30374  -0.30013
 Alpha  occ. eigenvalues --   -0.29500  -0.28278  -0.27556  -0.27342  -0.26420
 Alpha  occ. eigenvalues --   -0.25345  -0.24722  -0.23877  -0.23677  -0.23391
 Alpha  occ. eigenvalues --   -0.22020  -0.19959  -0.18080  -0.11614   0.03876
 Alpha virt. eigenvalues --    0.05693   0.06359   0.07270   0.07869   0.08578
 Alpha virt. eigenvalues --    0.09057   0.09816   0.09891   0.10241   0.10959
 Alpha virt. eigenvalues --    0.11274   0.12423   0.12580   0.12974   0.13670

  Beta  occ. eigenvalues --  -19.08565 -19.05869 -19.02783 -19.00923 -14.21000
  Beta  occ. eigenvalues --  -10.21361 -10.20328 -10.12672 -10.10109 -10.10013
  Beta  occ. eigenvalues --  -10.08173 -10.07726 -10.07419 -10.07202 -10.06515
  Beta  occ. eigenvalues --   -1.02578  -0.99667  -0.93412  -0.91961  -0.83637
  Beta  occ. eigenvalues --   -0.70646  -0.69128  -0.66341  -0.62125  -0.58506
  Beta  occ. eigenvalues --   -0.56163  -0.53301  -0.50281  -0.49842  -0.46521
  Beta  occ. eigenvalues --   -0.42836  -0.41348  -0.40607  -0.40197  -0.37793
  Beta  occ. eigenvalues --   -0.36710  -0.36422  -0.35868  -0.35142  -0.33810
  Beta  occ. eigenvalues --   -0.32651  -0.32275  -0.31237  -0.30323  -0.29954
  Beta  occ. eigenvalues --   -0.29463  -0.28239  -0.27482  -0.27295  -0.26382
  Beta  occ. eigenvalues --   -0.25308  -0.24670  -0.23852  -0.23658  -0.23333
  Beta  occ. eigenvalues --   -0.21977  -0.19935  -0.18052  -0.11600
  Beta virt. eigenvalues --    0.05765   0.06565   0.07141   0.07993   0.08202
  Beta virt. eigenvalues --    0.08960   0.09547   0.09957   0.10063   0.10299
  Beta virt. eigenvalues --    0.11036   0.11729   0.12512   0.12887   0.13284

 Mulliken charges and spin densities:
               1          2
     1  C   -0.084462  -0.495506
     2  C   -0.282437   0.292450
     3  C    0.078545  -0.532634
     4  C   -0.094200  -0.288343
     5  N    0.413109   0.031196
     6  C    0.637238  -1.047788
     7  C   -0.275985   0.232081
     8  C    0.496422  -0.587344
     9  O   -0.277384  -0.010531
    10  O   -0.153065  -0.002656
    11  C   -0.988715   0.809867
    12  C    0.580273  -1.159478
    13  C   -0.027449  -0.354796
    14  O   -0.219704   0.018355
    15  O   -0.107322   0.020313
    16  H   -0.001834   0.126663
    17  H   -0.196942   0.333937
    18  H    0.020967   0.116121
    19  H    0.117419   0.059465
    20  H    0.055337   0.097681
    21  H    0.185476  -0.030723
    22  H   -0.022499   0.166919
    23  H    0.022018   0.140609
    24  H    0.285676  -0.147980
    25  H    0.063016   0.134396
    26  H    0.218504  -0.031832
    27  H   -0.595427   0.806679
    28  H   -0.201402   0.387116
    29  H   -0.503813   0.801342
    30  H   -0.133535   0.317296
    31  H    0.370267  -0.198425
    32  H   -0.068872   0.247003
    33  H   -0.465201   0.630756
    34  H    0.155981   0.117792
 Sum of Mulliken charges =  -1.00000   1.00000

 Dipole moment (field-independent basis, Debye):
    X=             -7.9107    Y=             -1.9756    Z=             -4.8719  Tot=              9.4983
 Quadrupole moment (field-independent basis, Debye-Ang):
   XX=           -177.4140   YY=           -128.0031   ZZ=           -131.9462
   XY=             -5.1633   XZ=             -3.6286   YZ=             -3.4836

 Summary of Natural Population Analysis:

                                       Natural Population
                Natural  -----------------------------------------------
    Atom  No    Charge         Core      Valence    Rydberg      Total
 -----------------------------------------------------------------------
      C    1   -0.28623      0.99967     2.28234    0.00423     3.28623
      C    2   -0.19583      0.99963     2.18958    0.00662     3.19583
      C    3   -0.19866      0.99962     2.19025    0.00879     3.19866
      C    4   -0.08694      0.99960     2.07540    0.01194     3.08694
      N    5   -0.28200      0.99970     2.76988    0.01242     3.78200
      C    6   -0.07320      0.99961     2.06177    0.01183     3.07320
      C    7   -0.26259      0.99958     2.25449    0.00852     3.26259
      C    8    0.40744      0.99972     1.56824    0.02460     2.59256
      O    9   -0.30152      0.99986     3.29537    0.00629     4.30152
      O   10   -0.34256      0.99988     3.33583    0.00685     4.34256
      C   11   -0.05072      0.99953     2.03775    0.01343     3.05072
      C   12   -0.29581      0.99964     2.28937    0.00681     3.29581
      C   13    0.40957      0.99970     1.56378    0.02695     2.59043
      O   14   -0.31177      0.99987     3.30606    0.00584     4.31177
      O   15   -0.33763      0.99987     3.33124    0.00651     4.33763
      H   16    0.09442      0.00000     0.40448    0.00109     0.40558
      H   17    0.09876      0.00000     0.40012    0.00112     0.40124
      H   18    0.09727      0.00000     0.40189    0.00084     0.40273
      H   19    0.09986      0.00000     0.39829    0.00185     0.40014
      H   20    0.09294      0.00000     0.40606    0.00101     0.40706
      H   21    0.10469      0.00000     0.39396    0.00134     0.39531
      H   22    0.09407      0.00000     0.40498    0.00095     0.40593
      H   23    0.09843      0.00000     0.40035    0.00122     0.40157
      H   24    0.08779      0.00000     0.41043    0.00178     0.41221
      H   25    0.09802      0.00000     0.40090    0.00108     0.40198
      H   26    0.09938      0.00000     0.39939    0.00123     0.40062
      H   27    0.11482      0.00000     0.38232    0.00286     0.38518
      H   28    0.11441      0.00000     0.38175    0.00384     0.38559
      H   29    0.24707      0.00000     0.23484    0.01809     0.25293
      H   30    0.11475      0.00000     0.38363    0.00161     0.38525
      H   31    0.10061      0.00000     0.39807    0.00131     0.39939
      H   32    0.10897      0.00000     0.39006    0.00097     0.39103
      H   33    0.10578      0.00000     0.39238    0.00184     0.39422
      H   34    0.23641      0.00000     0.26029    0.00330     0.26359
 =======================================================================
   * Total *    0.00000     14.99547    43.79556    0.20897    59.00000

 Normal termination of Gaussian 16 at Thu Dec 10 16:27:16 2020.
