 Gaussian 16, Revision A.03,

 -----------------------------------------------------------
 # opt freq B3LYP/6-31G(d) empiricaldispersion=gd3bj scf=xqc
 -----------------------------------------------------------

 -------------------------------
 CID_150015864_JID_6855_neutraal
 -------------------------------
 Symbolic Z-matrix:
 Charge =  0 Multiplicity = 1

 SCF Done:  E(RB3LYP) =  -1103.00761173     A.U. after   17 cycles
 SCF Done:  E(RB3LYP) =  -1103.00806736     A.U. after   14 cycles
 SCF Done:  E(RB3LYP) =  -1103.01409153     A.U. after   14 cycles
 SCF Done:  E(RB3LYP) =  -1103.01488285     A.U. after   14 cycles
 SCF Done:  E(RB3LYP) =  -1103.01548894     A.U. after   16 cycles
 SCF Done:  E(RB3LYP) =  -1103.01534380     A.U. after   13 cycles
 SCF Done:  E(RB3LYP) =  -1103.01572886     A.U. after   14 cycles
 SCF Done:  E(RB3LYP) =  -1103.01624481     A.U. after   13 cycles
 SCF Done:  E(RB3LYP) =  -1103.01648182     A.U. after   13 cycles
 SCF Done:  E(RB3LYP) =  -1103.01662528     A.U. after   13 cycles
 SCF Done:  E(RB3LYP) =  -1103.01710955     A.U. after   10 cycles
 SCF Done:  E(RB3LYP) =  -1103.01710981     A.U. after    8 cycles
 SCF Done:  E(RB3LYP) =  -1103.01710997     A.U. after    8 cycles
 SCF Done:  E(RB3LYP) =  -1103.01711007     A.U. after    8 cycles
 Optimization completed.
    -- Stationary point found.
 Normal termination of Gaussian 16 at Fri Dec 11 00:10:35 2020.

 --------------------------------------------------------------------
 #N Geom=AllCheck Guess=TCheck SCRF=Check GenChk RB3LYP/6-31G(d) Freq
 --------------------------------------------------------------------

 Structure from the checkpoint file:  "JID_6855.chk"
 -------------------------------
 CID_150015864_JID_6855_neutraal
 -------------------------------
 Charge =  0 Multiplicity = 1

 SCF Done:  E(RB3LYP) =  -1103.01711007     A.U. after    1 cycles

  Exact polarizability: 162.502 -18.304 153.425   1.814  12.491 109.124
 Approx polarizability: 214.167 -30.961 257.248   6.758  46.593 202.447

                      1                      2                      3
                      A                      A                      A
 Frequencies --     21.5742                47.3673                49.5112
 Red. masses --      3.6541                 5.5770                 7.3669
 Frc consts  --      0.0010                 0.0074                 0.0106
 IR Inten    --      0.1801                 1.3609                 0.1858

                      4                      5                      6
                      A                      A                      A
 Frequencies --     63.8654                70.5293               100.6653
 Red. masses --     10.0868                10.1088                 5.2290
 Frc consts  --      0.0242                 0.0296                 0.0312
 IR Inten    --      0.2079                 0.3576                 0.4100

                      7                      8                      9
                      A                      A                      A
 Frequencies --    130.7041               149.4810               163.8787
 Red. masses --      5.4618                 5.8698                 6.4587
 Frc consts  --      0.0550                 0.0773                 0.1022
 IR Inten    --      2.9443                 1.3440                 1.9382

                     10                     11                     12
                      A                      A                      A
 Frequencies --    209.3253               231.2759               239.6951
 Red. masses --      7.0253                 3.5003                 2.0746
 Frc consts  --      0.1814                 0.1103                 0.0702
 IR Inten    --      2.5104                 2.7366                 0.5943

                     13                     14                     15
                      A                      A                      A
 Frequencies --    257.3982               320.7352               337.5362
 Red. masses --      2.7697                 2.2738                 4.7536
 Frc consts  --      0.1081                 0.1378                 0.3191
 IR Inten    --      3.6131                 3.0803                 4.7955

                     16                     17                     18
                      A                      A                      A
 Frequencies --    378.3365               409.6197               445.7752
 Red. masses --      2.8766                 2.2597                 3.0659
 Frc consts  --      0.2426                 0.2234                 0.3590
 IR Inten    --      2.0169                 2.3537                 0.1084

                     19                     20                     21
                      A                      A                      A
 Frequencies --    457.6796               495.8103               498.5336
 Red. masses --      3.6934                 2.1563                 6.8361
 Frc consts  --      0.4558                 0.3123                 1.0010
 IR Inten    --      2.3364                 0.4191                 0.2569

                     22                     23                     24
                      A                      A                      A
 Frequencies --    556.2170               587.6101               614.9988
 Red. masses --      4.0607                11.0752                 4.0090
 Frc consts  --      0.7402                 2.2531                 0.8934
 IR Inten    --      1.8902                13.0645                 6.0952

                     25                     26                     27
                      A                      A                      A
 Frequencies --    621.6841               686.4952               706.4916
 Red. masses --      5.1772                 5.3900                 4.3370
 Frc consts  --      1.1789                 1.4966                 1.2754
 IR Inten    --     45.0246                 9.1430                27.2243

                     28                     29                     30
                      A                      A                      A
 Frequencies --    719.9702               807.2141               823.2547
 Red. masses --      3.6130                 1.6097                 2.1564
 Frc consts  --      1.1034                 0.6180                 0.8611
 IR Inten    --     13.1283                 0.7175                 8.7773

                     31                     32                     33
                      A                      A                      A
 Frequencies --    860.2975               865.7612               886.9303
 Red. masses --      2.1571                 5.5974                 2.4252
 Frc consts  --      0.9406                 2.4719                 1.1240
 IR Inten    --      0.9274                13.3925                33.6245

                     34                     35                     36
                      A                      A                      A
 Frequencies --    908.7549               919.9823               945.3075
 Red. masses --      1.8898                 1.6813                 1.6327
 Frc consts  --      0.9195                 0.8384                 0.8596
 IR Inten    --      0.5482                 4.6123                 0.9355

                     37                     38                     39
                      A                      A                      A
 Frequencies --    980.9529               991.8273              1020.8905
 Red. masses --      2.2731                 2.4199                 2.8058
 Frc consts  --      1.2887                 1.4026                 1.7229
 IR Inten    --      9.9907                58.0537                12.4258

                     40                     41                     42
                      A                      A                      A
 Frequencies --   1049.1246              1072.3422              1102.6776
 Red. masses --      1.8521                 1.4805                 1.2715
 Frc consts  --      1.2011                 1.0031                 0.9109
 IR Inten    --      0.5122                 2.8273                 0.4391

                     43                     44                     45
                      A                      A                      A
 Frequencies --   1107.9491              1122.1031              1135.7135
 Red. masses --      2.2619                 2.2896                 4.0942
 Frc consts  --      1.6359                 1.6985                 3.1114
 IR Inten    --      9.3539                84.5177               161.2061

                     46                     47                     48
                      A                      A                      A
 Frequencies --   1174.2486              1214.9095              1216.4865
 Red. masses --      2.2260                 1.2570                 1.4051
 Frc consts  --      1.8084                 1.0931                 1.2251
 IR Inten    --      6.6442                 9.3201                 5.9899

                     49                     50                     51
                      A                      A                      A
 Frequencies --   1259.0672              1270.3559              1295.9993
 Red. masses --      1.8769                 1.3265                 2.8609
 Frc consts  --      1.7531                 1.2613                 2.8311
 IR Inten    --     46.3462                13.1238               295.2784

                     52                     53                     54
                      A                      A                      A
 Frequencies --   1302.0903              1312.9007              1330.9143
 Red. masses --      1.2915                 1.2606                 1.2416
 Frc consts  --      1.2901                 1.2803                 1.2958
 IR Inten    --      3.6722                 1.8270                 1.4173

                     55                     56                     57
                      A                      A                      A
 Frequencies --   1338.4406              1347.0711              1377.8804
 Red. masses --      1.2256                 1.2482                 1.3356
 Frc consts  --      1.2936                 1.3344                 1.4940
 IR Inten    --     16.5980                 0.9736                 3.3482

                     58                     59                     60
                      A                      A                      A
 Frequencies --   1382.8254              1388.9678              1402.0219
 Red. masses --      1.4665                 1.3727                 1.4511
 Frc consts  --      1.6522                 1.5603                 1.6805
 IR Inten    --     46.1162                 1.4998                 0.1659

                     61                     62                     63
                      A                      A                      A
 Frequencies --   1404.7835              1415.7848              1479.3340
 Red. masses --      1.4829                 1.4961                 1.0835
 Frc consts  --      1.7241                 1.7669                 1.3970
 IR Inten    --      8.0501                 0.3482                21.2978

                     64                     65                     66
                      A                      A                      A
 Frequencies --   1498.5440              1513.3281              1516.1623
 Red. masses --      1.1066                 1.0877                 1.0914
 Frc consts  --      1.4642                 1.4676                 1.4781
 IR Inten    --     12.7556                 0.9128                 2.6621

                     67                     68                     69
                      A                      A                      A
 Frequencies --   1519.6505              1525.3090              1539.1711
 Red. masses --      1.0913                 1.0875                 1.0962
 Frc consts  --      1.4849                 1.4907                 1.5301
 IR Inten    --      5.4283                10.0283                 4.3097

                     70                     71                     72
                      A                      A                      A
 Frequencies --   1773.4836              1817.4159              2296.0980
 Red. masses --     12.0337                11.8804                13.9854
 Frc consts  --     22.3000                23.1201                43.4417
 IR Inten    --    144.1668               219.2780               359.9930

                     73                     74                     75
                      A                      A                      A
 Frequencies --   3025.9469              3028.6228              3033.4252
 Red. masses --      1.0705                 1.0671                 1.0649
 Frc consts  --      5.7752                 5.7669                 5.7732
 IR Inten    --     16.8372                20.2627                25.8728

                     76                     77                     78
                      A                      A                      A
 Frequencies --   3034.8349              3040.3391              3048.6481
 Red. masses --      1.0746                 1.0627                 1.0696
 Frc consts  --      5.8311                 5.7875                 5.8571
 IR Inten    --      5.5713                 2.8957                38.0777

                     79                     80                     81
                      A                      A                      A
 Frequencies --   3079.7225              3080.9217              3081.3284
 Red. masses --      1.0945                 1.0590                 1.0967
 Frc consts  --      6.1161                 5.9223                 6.1350
 IR Inten    --     57.8589                 8.7316                52.7563

                     82                     83                     84
                      A                      A                      A
 Frequencies --   3085.1146              3092.0770              3096.6005
 Red. masses --      1.1001                 1.1025                 1.0592
 Frc consts  --      6.1691                 6.2104                 5.9843
 IR Inten    --     34.4481                45.8023                13.0926

                     85                     86                     87
                      A                      A                      A
 Frequencies --   3110.1725              3135.5348              3155.8449
 Red. masses --      1.0985                 1.1062                 1.1068
 Frc consts  --      6.2606                 6.4075                 6.4945
 IR Inten    --     21.7779                 7.5146                 0.5342

 - Thermochemistry -
 -------------------
 Temperature   298.150 Kelvin.  Pressure   1.00000 Atm.
 Atom     1 has atomic number  6 and mass  12.00000

 Molecular mass:   241.08850 amu.
 Principal axes and moments of inertia in atomic units:
                           1         2         3
     Eigenvalues --  2398.254895387.656047003.42276
           X            0.99953  -0.03066  -0.00087
           Y            0.03066   0.99953   0.00169
           Z            0.00082  -0.00172   1.00000
 This molecule is an asymmetric top.
 Rotational symmetry number  1.
 Warning -- assumption of classical behavior for rotation
           may cause significant error
 Rotational temperatures (Kelvin)      0.03612     0.01608     0.01237
 Rotational constants (GHZ):           0.75252     0.33498     0.25769
 Zero-point vibrational energy     665220.8 (Joules/Mol)
                                  158.99158 (Kcal/Mol)
 Warning -- explicit consideration of  24 degrees of freedom as
           vibrations may cause significant error
 Vibrational temperatures:     31.04    68.15    71.24    91.89   101.48
          (Kelvin)            144.83   188.05   215.07   235.78   301.17
                              332.75   344.87   370.34   461.47   485.64
                              544.34   589.35   641.37   658.50   713.36
                              717.28   800.27   845.44   884.85   894.46
                              987.71  1016.48  1035.88  1161.40  1184.48
                             1237.78  1245.64  1276.09  1307.50  1323.65
                             1360.09  1411.37  1427.02  1468.83  1509.46
                             1542.86  1586.51  1594.09  1614.46  1634.04
                             1689.48  1747.98  1750.25  1811.52  1827.76
                             1864.65  1873.42  1888.97  1914.89  1925.72
                             1938.13  1982.46  1989.58  1998.41  2017.20
                             2021.17  2037.00  2128.43  2156.07  2177.34
                             2181.42  2186.44  2194.58  2214.52  2551.65
                             2614.86  3303.57  4353.66  4357.51  4364.42
                             4366.45  4374.37  4386.32  4431.03  4432.76
                             4433.34  4438.79  4448.81  4455.32  4474.84
                             4511.34  4540.56

 Zero-point correction=                           0.253369 (Hartree/Particle)
 Thermal correction to Energy=                    0.269408
 Thermal correction to Enthalpy=                  0.270352
 Thermal correction to Gibbs Free Energy=         0.207877
 Sum of electronic and zero-point Energies=          -1102.763741
 Sum of electronic and thermal Energies=             -1102.747702
 Sum of electronic and thermal Enthalpies=           -1102.746758
 Sum of electronic and thermal Free Energies=        -1102.809234

                     E (Thermal)             CV                S
                      KCal/Mol        Cal/Mol-Kelvin    Cal/Mol-Kelvin
 Total                  169.056             58.806            131.491
 Electronic               0.000              0.000              0.000
 Translational            0.889              2.981             42.341
 Rotational               0.889              2.981             32.870
 Vibrational            167.278             52.844             56.280
 Vibration     1          0.593              1.985              6.484
 Vibration     2          0.595              1.979              4.924
 Vibration     3          0.595              1.978              4.837
 Vibration     4          0.597              1.972              4.334
 Vibration     5          0.598              1.968              4.139
 Vibration     6          0.604              1.949              3.441
 Vibration     7          0.612              1.923              2.936
 Vibration     8          0.618              1.903              2.679
 Vibration     9          0.623              1.887              2.505
 Vibration    10          0.642              1.827              2.050
 Vibration    11          0.653              1.793              1.869
 Vibration    12          0.657              1.780              1.805
 Vibration    13          0.667              1.750              1.679
 Vibration    14          0.706              1.634              1.306
 Vibration    15          0.718              1.601              1.224
 Vibration    16          0.749              1.516              1.046
 Vibration    17          0.774              1.449              0.928
 Vibration    18          0.805              1.370              0.809
 Vibration    19          0.816              1.344              0.773
 Vibration    20          0.851              1.259              0.669
 Vibration    21          0.854              1.253              0.662
 Vibration    22          0.912              1.126              0.531
 Vibration    23          0.945              1.058              0.471
 Vibration    24          0.974              1.000              0.425

 Optimization completed.
    -- Stationary point found.
 Normal termination of Gaussian 16 at Fri Dec 11 00:21:05 2020.

 ----------------------------------------------------------------------
 # B3LYP/6-311++G(d,p) empiricaldispersion=gd3bj scf=xqc pop=npa geom=c
 heck
 ----------------------------------------------------------------------

 ---------------------------------------
 CID_150015864_JID_6855_Energie_neutraal
 ---------------------------------------
 Structure from the checkpoint file:  "JID_6855.chk"
 Charge =  0 Multiplicity = 1

 SCF Done:  E(RB3LYP) =  -1103.24301145     A.U. after   17 cycles
 Normal termination of Gaussian 16 at Fri Dec 11 00:25:51 2020.

 ----------------------------------------------------------------------
 # B3LYP/6-311++G(d,p) empiricaldispersion=gd3bj scf=xqc pop=npa geom=c
 heck
 ----------------------------------------------------------------------

 -------------------------------------
 CID_150015864_JID_6855_Energie_kation
 -------------------------------------
 Structure from the checkpoint file:  "JID_6855.chk"
 Charge =  1 Multiplicity = 2

 SCF Done:  E(UB3LYP) =  -1102.90996231     A.U. after   33 cycles
 SCF Done:  E(UB3LYP) =  -1102.90996231     a.u. after    1 cycles
 Normal termination of Gaussian 16 at Fri Dec 11 00:39:08 2020.
 Gaussian 16:  ES64L-G16RevA.03 25-Dec-2016

 ----------------------------------------------------------------------
 # B3LYP/6-311++G(d,p) empiricaldispersion=gd3bj scf=xqc pop=npa geom=c
 heck
 ----------------------------------------------------------------------

 ------------------------------------
 CID_150015864_JID_6855_Energie_anion
 ------------------------------------
 Structure from the checkpoint file:  "JID_6855.chk"
 Charge = -1 Multiplicity = 2

                         Standard orientation:
 ---------------------------------------------------------------------
 Center     Atomic      Atomic             Coordinates (Angstroms)
 Number     Number       Type             X           Y           Z
 ---------------------------------------------------------------------
      1          6           0       -4.026575    0.659368   -0.688340
      2          6           0       -3.976448   -0.728769   -0.037677
      3          6           0       -2.545177   -1.284176   -0.014487
      4          6           0       -1.596934   -0.315544    0.706572
      5          6           0       -1.639512    1.088947    0.057644
      6          6           0       -3.072068    1.633481    0.013316
      7          6           0       -0.141627   -0.746636    0.797298
      8          8           0        0.630961   -0.259572    1.595375
      9         16           0        0.392499   -1.979601   -0.411206
     10          6           0        2.173874   -2.045948    0.002921
     11          6           0        3.053799   -1.033569   -0.753942
     12          6           0        2.929207    0.371771   -0.208191
     13          8           0        3.616221    0.831495    0.673708
     14          7           0        1.890649    1.106536   -0.873140
     15          7           0        1.653741    2.223025   -0.370992
     16          7           0        1.352514    3.244165    0.014845
     17          1           0       -5.050522    1.051411   -0.669688
     18          1           0       -3.740971    0.571690   -1.746575
     19          1           0       -4.355734   -0.662053    0.992187
     20          1           0       -4.634424   -1.425575   -0.570062
     21          1           0       -2.205988   -1.428799   -1.049080
     22          1           0       -2.523519   -2.267694    0.468493
     23          1           0       -1.920545   -0.207515    1.751105
     24          1           0       -1.234902    1.017839   -0.961313
     25          1           0       -0.988177    1.763818    0.621543
     26          1           0       -3.079624    2.608057   -0.489378
     27          1           0       -3.421544    1.806603    1.041118
     28          1           0        2.266209   -1.904683    1.082354
     29          1           0        2.490564   -3.060804   -0.249784
     30          1           0        4.099834   -1.326335   -0.619551
     31          1           0        2.812340   -1.047364   -1.820401
 ---------------------------------------------------------------------

 SCF Done:  E(UB3LYP) =  -1103.24644476     A.U. after   33 cycles
 SCF Done:  E(UB3LYP) =  -1103.24644476     a.u. after    1 cycles

 The electronic state is 2-A.
 Alpha  occ. eigenvalues --  -88.75001 -19.01456 -18.96294 -14.33649 -14.25018
 Alpha  occ. eigenvalues --  -14.22855 -10.17611 -10.13459 -10.09759 -10.09176
 Alpha  occ. eigenvalues --  -10.07931 -10.07868 -10.07756 -10.07604 -10.07283
 Alpha  occ. eigenvalues --  -10.06848  -7.83672  -5.80000  -5.79616  -5.79179
 Alpha  occ. eigenvalues --   -1.01189  -0.95129  -0.91604  -0.83784  -0.75017
 Alpha  occ. eigenvalues --   -0.70815  -0.67260  -0.65513  -0.63121  -0.56604
 Alpha  occ. eigenvalues --   -0.53902  -0.52261  -0.49700  -0.47214  -0.42759
 Alpha  occ. eigenvalues --   -0.39653  -0.39163  -0.38429  -0.37341  -0.36145
 Alpha  occ. eigenvalues --   -0.35771  -0.35281  -0.34197  -0.34071  -0.32705
 Alpha  occ. eigenvalues --   -0.31312  -0.30698  -0.30601  -0.29271  -0.28857
 Alpha  occ. eigenvalues --   -0.27910  -0.26518  -0.25814  -0.25286  -0.24588
 Alpha  occ. eigenvalues --   -0.23607  -0.22985  -0.22221  -0.21417  -0.20479
 Alpha  occ. eigenvalues --   -0.15533  -0.14969  -0.14491  -0.13121   0.04125
 Alpha virt. eigenvalues --    0.05723   0.07293   0.07326   0.07806   0.08152
 Alpha virt. eigenvalues --    0.08793   0.09704   0.10132   0.10640   0.10832
 Alpha virt. eigenvalues --    0.11166   0.11684   0.11843   0.12698   0.13454

  Beta  occ. eigenvalues --  -88.74998 -19.01440 -18.96004 -14.33313 -14.24656
  Beta  occ. eigenvalues --  -14.23008 -10.17606 -10.13161 -10.09686 -10.09173
  Beta  occ. eigenvalues --  -10.07916 -10.07865 -10.07745 -10.07597 -10.07277
  Beta  occ. eigenvalues --  -10.06873  -7.83668  -5.79992  -5.79613  -5.79178
  Beta  occ. eigenvalues --   -1.00631  -0.95099  -0.91085  -0.83560  -0.75001
  Beta  occ. eigenvalues --   -0.70711  -0.67215  -0.65494  -0.62936  -0.56281
  Beta  occ. eigenvalues --   -0.53790  -0.52220  -0.49567  -0.47182  -0.42723
  Beta  occ. eigenvalues --   -0.39477  -0.38642  -0.37726  -0.36909  -0.36059
  Beta  occ. eigenvalues --   -0.35688  -0.35259  -0.33942  -0.33697  -0.32061
  Beta  occ. eigenvalues --   -0.31218  -0.30547  -0.30376  -0.29232  -0.28643
  Beta  occ. eigenvalues --   -0.27797  -0.26359  -0.25785  -0.25172  -0.23704
  Beta  occ. eigenvalues --   -0.23408  -0.22873  -0.22150  -0.21392  -0.20357
  Beta  occ. eigenvalues --   -0.15508  -0.14801  -0.13724  -0.12930
  Beta virt. eigenvalues --    0.06083   0.07383   0.07483   0.07925   0.08176
  Beta virt. eigenvalues --    0.09038   0.09905   0.10234   0.10332   0.10750
  Beta virt. eigenvalues --    0.10829   0.11254   0.11778   0.11939   0.12726

 Mulliken charges and spin densities:
               1          2
     1  C    0.035411  -0.432266
     2  C    0.080600  -0.555316
     3  C   -0.439717   0.069597
     4  C    0.400036  -0.026746
     5  C   -0.440034   0.054633
     6  C   -0.214624  -0.321508
     7  C   -0.182625   0.154696
     8  O   -0.164099  -0.016238
     9  S    0.103406  -0.318647
    10  C    0.331337  -0.328388
    11  C   -0.300952   0.112457
    12  C   -0.298822   0.098163
    13  O   -0.335085   0.103195
    14  N    0.192905   0.086606
    15  N   -0.046204   0.020197
    16  N   -0.163330   0.134254
    17  H   -0.157418   0.327423
    18  H    0.121892  -0.008036
    19  H    0.056444   0.070353
    20  H   -0.205900   0.378512
    21  H    0.148891  -0.013617
    22  H    0.021125   0.144406
    23  H    0.087412   0.142706
    24  H    0.086803   0.076828
    25  H    0.188448   0.032711
    26  H    0.096645   0.075746
    27  H    0.054119   0.073979
    28  H    0.250859  -0.024698
    29  H   -0.446170   0.678536
    30  H    0.021610   0.160135
    31  H    0.117037   0.050329
 Sum of Mulliken charges =  -1.00000   1.00000

 Dipole moment (field-independent basis, Debye):
    X=             -4.0289    Y=             -1.2822    Z=             -1.4534  Tot=              4.4709
 Quadrupole moment (field-independent basis, Debye-Ang):
   XX=           -169.0453   YY=           -144.5021   ZZ=           -121.1419
   XY=             -5.3653   XZ=             -6.7725   YZ=             -4.9003

 Summary of Natural Population Analysis:

                                       Natural Population
                Natural  -----------------------------------------------
    Atom  No    Charge         Core      Valence    Rydberg      Total
 -----------------------------------------------------------------------
      C    1   -0.19203      0.99963     2.18327    0.00913     3.19203
      C    2   -0.18830      0.99963     2.17999    0.00868     3.18830
      C    3   -0.19625      0.99962     2.18709    0.00954     3.19625
      C    4   -0.15478      0.99952     2.14378    0.01148     3.15478
      C    5   -0.18757      0.99961     2.18031    0.00765     3.18757
      C    6   -0.18762      0.99963     2.18100    0.00698     3.18762
      C    7    0.21741      0.99964     1.75506    0.02788     2.78259
      O    8   -0.28370      0.99987     3.27508    0.00876     4.28370
      S    9    0.09461      4.99951     2.88906    0.01682     7.90539
      C   10   -0.24550      0.99958     2.23450    0.01142     3.24550
      C   11   -0.23585      0.99957     2.22621    0.01008     3.23585
      C   12    0.36844      0.99969     1.60456    0.02732     2.63156
      O   13   -0.27719      0.99987     3.27105    0.00628     4.27719
      N   14   -0.25093      0.99968     2.73819    0.01306     3.75093
      N   15    0.16299      0.99971     2.32030    0.01700     3.33701
      N   16    0.01827      0.99981     2.47035    0.01157     3.48173
      H   17    0.09792      0.00000     0.40113    0.00095     0.40208
      H   18    0.09280      0.00000     0.40609    0.00111     0.40720
      H   19    0.09268      0.00000     0.40612    0.00120     0.40732
      H   20    0.09924      0.00000     0.39979    0.00097     0.40076
      H   21    0.10100      0.00000     0.39757    0.00143     0.39900
      H   22    0.10375      0.00000     0.39534    0.00090     0.39625
      H   23    0.10682      0.00000     0.39130    0.00188     0.39318
      H   24    0.10031      0.00000     0.39838    0.00131     0.39969
      H   25    0.11142      0.00000     0.38611    0.00247     0.38858
      H   26    0.09995      0.00000     0.39908    0.00097     0.40005
      H   27    0.09251      0.00000     0.40616    0.00133     0.40749
      H   28    0.11653      0.00000     0.38189    0.00158     0.38347
      H   29    0.10697      0.00000     0.39054    0.00249     0.39303
      H   30    0.10938      0.00000     0.38947    0.00115     0.39062
      H   31    0.10672      0.00000     0.39208    0.00120     0.39328
 =======================================================================
   * Total *   -0.00000     19.99455    43.78086    0.22459    64.00000

 Normal termination of Gaussian 16 at Fri Dec 11 00:52:56 2020.
