 Gaussian 16, Revision A.03,

 -----------------------------------------------------------
 # opt freq B3LYP/6-31G(d) empiricaldispersion=gd3bj scf=xqc
 -----------------------------------------------------------

 --------------------------------
 CID_107804771_JID_10479_neutraal
 --------------------------------
 Symbolic Z-matrix:
 Charge =  0 Multiplicity = 1

 SCF Done:  E(RB3LYP) =  -1257.84799405     A.U. after   14 cycles
 SCF Done:  E(RB3LYP) =  -1257.85502304     A.U. after   13 cycles
 SCF Done:  E(RB3LYP) =  -1257.85520020     A.U. after   12 cycles
 SCF Done:  E(RB3LYP) =  -1257.85697920     A.U. after   12 cycles
 SCF Done:  E(RB3LYP) =  -1257.85752884     A.U. after   12 cycles
 SCF Done:  E(RB3LYP) =  -1257.85781659     A.U. after   12 cycles
 SCF Done:  E(RB3LYP) =  -1257.85817616     A.U. after   12 cycles
 SCF Done:  E(RB3LYP) =  -1257.85830842     A.U. after   11 cycles
 SCF Done:  E(RB3LYP) =  -1257.85837368     A.U. after   12 cycles
 SCF Done:  E(RB3LYP) =  -1257.85845850     A.U. after   12 cycles
 SCF Done:  E(RB3LYP) =  -1257.87232548     A.U. after   11 cycles
 SCF Done:  E(RB3LYP) =  -1257.87232580     A.U. after    8 cycles
 SCF Done:  E(RB3LYP) =  -1257.87232593     A.U. after    8 cycles
 SCF Done:  E(RB3LYP) =  -1257.87232617     A.U. after    9 cycles
 SCF Done:  E(RB3LYP) =  -1257.87232621     A.U. after    6 cycles
 Optimization completed.
    -- Stationary point found.
 Normal termination of Gaussian 16 at Sun Dec 13 21:21:02 2020.

 --------------------------------------------------------------------
 #N Geom=AllCheck Guess=TCheck SCRF=Check GenChk RB3LYP/6-31G(d) Freq
 --------------------------------------------------------------------

 Structure from the checkpoint file:  "JID_10479.chk"
 --------------------------------
 CID_107804771_JID_10479_neutraal
 --------------------------------
 Charge =  0 Multiplicity = 1

 SCF Done:  E(RB3LYP) =  -1257.87232621     A.U. after    1 cycles

  Exact polarizability: 278.034  16.845 186.061   5.834   9.670 117.075
 Approx polarizability: 381.287  22.841 322.589   5.849  19.500 180.092

                      1                      2                      3
                      A                      A                      A
 Frequencies --     12.0589                23.8316                40.1235
 Red. masses --      6.1974                 4.2290                 4.0171
 Frc consts  --      0.0005                 0.0014                 0.0038
 IR Inten    --      0.4533                 0.3714                 0.2183

                      4                      5                      6
                      A                      A                      A
 Frequencies --     48.4799                74.5146               112.5192
 Red. masses --      5.5618                 5.3952                 5.1695
 Frc consts  --      0.0077                 0.0176                 0.0386
 IR Inten    --      0.3898                 1.2191                 0.8176

                      7                      8                      9
                      A                      A                      A
 Frequencies --    139.5138               160.6263               173.6894
 Red. masses --      4.4462                 5.0782                 5.0341
 Frc consts  --      0.0510                 0.0772                 0.0895
 IR Inten    --      2.7357                 0.4609                 2.6865

                     10                     11                     12
                      A                      A                      A
 Frequencies --    206.9304               253.6867               259.6299
 Red. masses --      5.7553                 2.4748                 2.1466
 Frc consts  --      0.1452                 0.0938                 0.0853
 IR Inten    --      1.6947                 2.8432                 2.8893

                     13                     14                     15
                      A                      A                      A
 Frequencies --    298.8920               314.0442               322.8861
 Red. masses --      4.5604                 6.1342                 4.2195
 Frc consts  --      0.2400                 0.3564                 0.2592
 IR Inten    --      1.0837                 4.8390                 0.4327

                     16                     17                     18
                      A                      A                      A
 Frequencies --    346.5346               361.7607               407.0666
 Red. masses --      2.1901                 2.8020                 4.0823
 Frc consts  --      0.1550                 0.2161                 0.3986
 IR Inten    --      6.5933                 8.7322                 1.8257

                     19                     20                     21
                      A                      A                      A
 Frequencies --    428.7862               439.2150               453.3009
 Red. masses --      2.0406                 3.1129                 2.3798
 Frc consts  --      0.2211                 0.3538                 0.2881
 IR Inten    --      0.3592                 3.5965                 2.5978

                     22                     23                     24
                      A                      A                      A
 Frequencies --    477.4935               497.0085               511.4526
 Red. masses --      2.0284                 2.7187                 2.1997
 Frc consts  --      0.2725                 0.3957                 0.3390
 IR Inten    --     23.6641                 2.6706               101.7769

                     25                     26                     27
                      A                      A                      A
 Frequencies --    515.2779               534.9359               552.2509
 Red. masses --      3.0796                 6.9240                 3.3337
 Frc consts  --      0.4818                 1.1674                 0.5990
 IR Inten    --     83.5444                 2.9600                89.0779

                     28                     29                     30
                      A                      A                      A
 Frequencies --    604.1622               633.9276               639.5922
 Red. masses --      2.1650                 3.6256                 1.8631
 Frc consts  --      0.4656                 0.8584                 0.4490
 IR Inten    --     50.0832                 6.9999                10.9639

                     31                     32                     33
                      A                      A                      A
 Frequencies --    662.0591               684.1204               716.4107
 Red. masses --      6.3793                 2.1525                 5.3954
 Frc consts  --      1.6475                 0.5936                 1.6315
 IR Inten    --      7.8290                26.9719                 1.7101

                     34                     35                     36
                      A                      A                      A
 Frequencies --    735.1361               786.1570               807.3912
 Red. masses --      4.0876                 5.2465                 1.2621
 Frc consts  --      1.3015                 1.9105                 0.4848
 IR Inten    --      0.6110                23.2163                11.6772

                     37                     38                     39
                      A                      A                      A
 Frequencies --    820.2877               821.1990               835.7651
 Red. masses --      3.9802                 3.4710                 1.4747
 Frc consts  --      1.5779                 1.3791                 0.6069
 IR Inten    --     23.0373                11.3123                15.7386

                     40                     41                     42
                      A                      A                      A
 Frequencies --    849.6650               856.9168               875.4427
 Red. masses --      2.9042                 1.7234                 1.5930
 Frc consts  --      1.2353                 0.7456                 0.7193
 IR Inten    --     24.8526                36.8972                 0.5318

                     43                     44                     45
                      A                      A                      A
 Frequencies --    894.2473               912.7242               926.0828
 Red. masses --      3.0657                 4.2755                 2.3626
 Frc consts  --      1.4444                 2.0985                 1.1938
 IR Inten    --     39.8441                16.8937                 3.8224

                     46                     47                     48
                      A                      A                      A
 Frequencies --    962.6332               972.0685              1016.1546
 Red. masses --      2.1225                 1.2670                 1.8051
 Frc consts  --      1.1588                 0.7054                 1.0982
 IR Inten    --     10.9019                 0.7860                18.8940

                     49                     50                     51
                      A                      A                      A
 Frequencies --   1034.0538              1056.7288              1062.3937
 Red. masses --      2.6025                 2.2124                 2.7123
 Frc consts  --      1.6395                 1.4556                 1.8037
 IR Inten    --     27.7322                16.2667                21.0318

                     52                     53                     54
                      A                      A                      A
 Frequencies --   1076.3347              1109.5011              1120.9218
 Red. masses --      3.4901                 1.7339                 2.2763
 Frc consts  --      2.3822                 1.2576                 1.6851
 IR Inten    --     50.3094                 5.5815                28.3827

                     55                     56                     57
                      A                      A                      A
 Frequencies --   1137.6050              1155.2330              1159.9109
 Red. masses --      2.5546                 4.9084                 2.1565
 Frc consts  --      1.9479                 3.8595                 1.7094
 IR Inten    --     68.1920               104.8766                20.5603

                     58                     59                     60
                      A                      A                      A
 Frequencies --   1169.0260              1181.9277              1189.2738
 Red. masses --      1.5589                 2.6219                 2.4960
 Frc consts  --      1.2552                 2.1580                 2.0800
 IR Inten    --     14.4250                32.2753                12.0159

                     61                     62                     63
                      A                      A                      A
 Frequencies --   1236.2175              1246.5044              1266.7591
 Red. masses --      1.5059                 1.0767                 1.4383
 Frc consts  --      1.3559                 0.9857                 1.3598
 IR Inten    --     19.9932                 4.0665                34.2703

                     64                     65                     66
                      A                      A                      A
 Frequencies --   1277.3692              1288.3361              1298.8733
 Red. masses --      1.5122                 1.4258                 1.3879
 Frc consts  --      1.4538                 1.3943                 1.3796
 IR Inten    --     45.3562                 6.0076                35.4766

                     67                     68                     69
                      A                      A                      A
 Frequencies --   1322.6315              1325.6801              1337.7753
 Red. masses --      1.4541                 2.0440                 1.5205
 Frc consts  --      1.4987                 2.1165                 1.6032
 IR Inten    --     40.9748                12.4944                44.2767

                     70                     71                     72
                      A                      A                      A
 Frequencies --   1340.0683              1352.4263              1374.3057
 Red. masses --      1.7123                 1.1978                 2.0646
 Frc consts  --      1.8117                 1.2908                 2.2974
 IR Inten    --      2.2631                 1.1073                 8.7319

                     73                     74                     75
                      A                      A                      A
 Frequencies --   1376.5358              1381.6995              1408.9536
 Red. masses --      1.6148                 1.4818                 1.3252
 Frc consts  --      1.8028                 1.6667                 1.5500
 IR Inten    --     62.3389                11.8123                16.5704

                     76                     77                     78
                      A                      A                      A
 Frequencies --   1410.6746              1427.5366              1442.9888
 Red. masses --      1.3276                 1.4333                 1.3473
 Frc consts  --      1.5566                 1.7209                 1.6529
 IR Inten    --     26.7756                20.0086                 9.6507

                     79                     80                     81
                      A                      A                      A
 Frequencies --   1446.0939              1449.3802              1456.0703
 Red. masses --      1.5086                 2.0571                 1.4143
 Frc consts  --      1.8587                 2.5460                 1.7666
 IR Inten    --     18.5780                12.6953                11.5493

                     82                     83                     84
                      A                      A                      A
 Frequencies --   1487.0410              1507.9126              1509.8953
 Red. masses --      2.0371                 1.2450                 1.1034
 Frc consts  --      2.6541                 1.6680                 1.4821
 IR Inten    --     28.4222                 7.3919                 5.5990

                     85                     86                     87
                      A                      A                      A
 Frequencies --   1513.0736              1518.4022              1526.0872
 Red. masses --      1.0888                 1.0885                 1.1100
 Frc consts  --      1.4687                 1.4786                 1.5231
 IR Inten    --      2.2949                14.3812                 9.5506

                     88                     89                     90
                      A                      A                      A
 Frequencies --   1536.1045              1545.9159              1558.6607
 Red. masses --      1.1105                 2.7773                 4.1808
 Frc consts  --      1.5439                 3.9106                 5.9843
 IR Inten    --      7.7128                50.5625               180.4964

                     91                     92                     93
                      A                      A                      A
 Frequencies --   1615.8755              1669.0912              2942.6879
 Red. masses --      4.3602                 6.0864                 1.0727
 Frc consts  --      6.7077                 9.9901                 5.4727
 IR Inten    --     21.4795               238.5554                27.9106

                     94                     95                     96
                      A                      A                      A
 Frequencies --   2949.1685              2969.0076              2991.7921
 Red. masses --      1.0719                 1.0708                 1.0702
 Frc consts  --      5.4928                 5.5614                 5.6441
 IR Inten    --     62.3136                87.0245                15.2245

                     97                     98                     99
                      A                      A                      A
 Frequencies --   2998.2745              3063.6918              3072.7662
 Red. masses --      1.0704                 1.0861                 1.0673
 Frc consts  --      5.6695                 6.0064                 5.9373
 IR Inten    --    112.4281                 5.3488                11.3549

                    100                    101                    102
                      A                      A                      A
 Frequencies --   3076.0974              3085.2703              3098.5586
 Red. masses --      1.0870                 1.0850                 1.0875
 Frc consts  --      6.0598                 6.0849                 6.1516
 IR Inten    --     25.3545                75.0619                55.8420

                    103                    104                    105
                      A                      A                      A
 Frequencies --   3116.4321              3118.5136              3125.2506
 Red. masses --      1.0933                 1.0947                 1.1075
 Frc consts  --      6.2560                 6.2725                 6.3733
 IR Inten    --     46.5353                39.9695                15.2493

                    106                    107                    108
                      A                      A                      A
 Frequencies --   3187.1038              3212.8333              3227.2032
 Red. masses --      1.0906                 1.0882                 1.0942
 Frc consts  --      6.5268                 6.6179                 6.7145
 IR Inten    --     12.3459                 3.3632                 2.4538

                    109                    110                    111
                      A                      A                      A
 Frequencies --   3240.8472              3592.0405              3693.7522
 Red. masses --      1.0942                 1.0758                 1.0651
 Frc consts  --      6.7711                 8.1781                 8.5623
 IR Inten    --      1.4454                13.5722                25.4714

 - Thermochemistry -
 -------------------
 Temperature   298.150 Kelvin.  Pressure   1.00000 Atm.
 Atom     1 has atomic number  6 and mass  12.00000

 Molecular mass:   293.11980 amu.
 Principal axes and moments of inertia in atomic units:
                           1         2         3
     Eigenvalues --  2274.99299********************
           X            0.99999  -0.00412  -0.00006
           Y            0.00412   0.99992   0.01185
           Z            0.00002  -0.01185   0.99993
 This molecule is an asymmetric top.
 Rotational symmetry number  1.
 Warning -- assumption of classical behavior for rotation
           may cause significant error
 Rotational temperatures (Kelvin)      0.03807     0.00526     0.00482
 Rotational constants (GHZ):           0.79330     0.10960     0.10045
 Zero-point vibrational energy     859204.6 (Joules/Mol)
                                  205.35483 (Kcal/Mol)
 Warning -- explicit consideration of  28 degrees of freedom as
           vibrations may cause significant error
 Vibrational temperatures:     17.35    34.29    57.73    69.75   107.21
          (Kelvin)            161.89   200.73   231.11   249.90   297.73
                              365.00   373.55   430.04   451.84   464.56
                              498.59   520.49   585.68   616.93   631.93
                              652.20   687.01   715.08   735.87   741.37
                              769.65   794.57   869.25   912.08   920.23
                              952.56   984.30  1030.76  1057.70  1131.10
                             1161.66  1180.21  1181.52  1202.48  1222.48
                             1232.91  1259.57  1286.62  1313.21  1332.43
                             1385.01  1398.59  1462.02  1487.77  1520.40
                             1528.55  1548.61  1596.32  1612.76  1636.76
                             1662.12  1668.85  1681.97  1700.53  1711.10
                             1778.64  1793.44  1822.58  1837.85  1853.63
                             1868.79  1902.97  1907.36  1924.76  1928.06
                             1945.84  1977.32  1980.53  1987.96  2027.17
                             2029.65  2053.91  2076.14  2080.61  2085.33
                             2094.96  2139.52  2169.55  2172.40  2176.98
                             2184.64  2195.70  2210.11  2224.23  2242.57
                             2324.88  2401.45  4233.87  4243.20  4271.74
                             4304.52  4313.85  4407.97  4421.03  4425.82
                             4439.02  4458.13  4483.85  4486.85  4496.54
                             4585.53  4622.55  4643.23  4662.86  5168.15
                             5314.49

 Zero-point correction=                           0.327254 (Hartree/Particle)
 Thermal correction to Energy=                    0.345060
 Thermal correction to Enthalpy=                  0.346004
 Thermal correction to Gibbs Free Energy=         0.278667
 Sum of electronic and zero-point Energies=          -1257.545072
 Sum of electronic and thermal Energies=             -1257.527266
 Sum of electronic and thermal Enthalpies=           -1257.526322
 Sum of electronic and thermal Free Energies=        -1257.593660

                     E (Thermal)             CV                S
                      KCal/Mol        Cal/Mol-Kelvin    Cal/Mol-Kelvin
 Total                  216.528             70.058            141.724
 Electronic               0.000              0.000              0.000
 Translational            0.889              2.981             42.924
 Rotational               0.889              2.981             34.864
 Vibrational            214.751             64.097             63.937
 Vibration     1          0.593              1.987              7.639
 Vibration     2          0.593              1.985              6.286
 Vibration     3          0.594              1.981              5.253
 Vibration     4          0.595              1.978              4.878
 Vibration     5          0.599              1.966              4.030
 Vibration     6          0.607              1.939              3.225
 Vibration     7          0.615              1.914              2.811
 Vibration     8          0.622              1.891              2.542
 Vibration     9          0.627              1.875              2.395
 Vibration    10          0.641              1.830              2.071
 Vibration    11          0.665              1.757              1.705
 Vibration    12          0.668              1.746              1.664
 Vibration    13          0.692              1.676              1.423
 Vibration    14          0.702              1.647              1.341
 Vibration    15          0.708              1.630              1.295
 Vibration    16          0.725              1.582              1.182
 Vibration    17          0.736              1.551              1.115
 Vibration    18          0.772              1.455              0.937
 Vibration    19          0.790              1.408              0.863
 Vibration    20          0.799              1.385              0.829
 Vibration    21          0.812              1.354              0.786
 Vibration    22          0.834              1.300              0.717
 Vibration    23          0.853              1.257              0.666
 Vibration    24          0.867              1.225              0.630
 Vibration    25          0.870              1.216              0.621
 Vibration    26          0.890              1.173              0.576
 Vibration    27          0.908              1.135              0.540
 Vibration    28          0.963              1.023              0.443

 Optimization completed.
    -- Stationary point found.
 Normal termination of Gaussian 16 at Sun Dec 13 21:38:10 2020.

 ----------------------------------------------------------------------
 # B3LYP/6-311++G(d,p) empiricaldispersion=gd3bj scf=xqc pop=npa geom=c
 heck
 ----------------------------------------------------------------------

 ----------------------------------------
 CID_107804771_JID_10479_Energie_neutraal
 ----------------------------------------
 Structure from the checkpoint file:  "JID_10479.chk"
 Charge =  0 Multiplicity = 1

 SCF Done:  E(RB3LYP) =  -1258.14123979     A.U. after   15 cycles
 Normal termination of Gaussian 16 at Sun Dec 13 21:45:19 2020.

 ----------------------------------------------------------------------
 # B3LYP/6-311++G(d,p) empiricaldispersion=gd3bj scf=xqc pop=npa geom=c
 heck
 ----------------------------------------------------------------------

 --------------------------------------
 CID_107804771_JID_10479_Energie_kation
 --------------------------------------
 Structure from the checkpoint file:  "JID_10479.chk"
 Charge =  1 Multiplicity = 2

 SCF Done:  E(UB3LYP) =  -1257.87056493     A.U. after   26 cycles
 Normal termination of Gaussian 16 at Sun Dec 13 22:01:55 2020.
 Gaussian 16:  ES64L-G16RevA.03 25-Dec-2016

 ----------------------------------------------------------------------
 # B3LYP/6-311++G(d,p) empiricaldispersion=gd3bj scf=xqc pop=npa geom=c
 heck
 ----------------------------------------------------------------------

 -------------------------------------
 CID_107804771_JID_10479_Energie_anion
 -------------------------------------
 Structure from the checkpoint file:  "JID_10479.chk"
 Charge = -1 Multiplicity = 2

                         Standard orientation:
 ---------------------------------------------------------------------
 Center     Atomic      Atomic             Coordinates (Angstroms)
 Number     Number       Type             X           Y           Z
 ---------------------------------------------------------------------
      1          6           0       -4.536677   -0.606964   -0.521684
      2          6           0       -5.325677    0.453376   -1.283660
      3          8           0       -5.874690    1.423526   -0.405116
      4          6           0       -4.847965    2.050467    0.349218
      5          6           0       -4.054192    1.029034    1.156576
      6          7           0       -3.473017    0.029924    0.258448
      7          6           0       -2.646714   -0.933434    0.979478
      8          6           0       -1.723621   -1.758568    0.069620
      9          6           0       -0.881762   -0.867096   -0.849465
     10          7           0        0.035307   -0.028722   -0.072275
     11          6           0        1.422437   -0.196177   -0.127823
     12          6           0        2.259183    0.922523   -0.009254
     13          6           0        3.638218    0.730900   -0.013447
     14          6           0        4.214307   -0.555582   -0.152080
     15          6           0        3.366422   -1.664072   -0.269667
     16          6           0        1.992121   -1.488292   -0.249060
     17          7           0        5.602394   -0.591324   -0.152650
     18          6           0        6.089448    0.595950   -0.024460
     19         16           0        4.918176    1.922779    0.116646
     20          8           0       -0.896269   -2.592011    0.873975
     21          1           0       -5.225010   -1.178217    0.130548
     22          1           0       -4.096718   -1.309182   -1.237641
     23          1           0       -4.663818    0.940309   -2.019077
     24          1           0       -6.168376    0.000726   -1.813665
     25          1           0       -5.341049    2.769171    1.009818
     26          1           0       -4.163920    2.595151   -0.322601
     27          1           0       -4.722115    0.563656    1.906586
     28          1           0       -3.244008    1.532939    1.697336
     29          1           0       -2.001813   -0.367165    1.662849
     30          1           0       -3.245766   -1.626368    1.597838
     31          1           0       -2.307652   -2.447898   -0.549311
     32          1           0       -0.310803   -1.490374   -1.544158
     33          1           0       -1.548045   -0.223764   -1.432003
     34          1           0       -0.246295    0.942140   -0.041157
     35          1           0        1.831056    1.917447    0.077474
     36          1           0        3.798875   -2.655019   -0.362005
     37          1           0        1.337737   -2.351532   -0.292222
     38          1           0        7.150151    0.818379    0.000320
     39          1           0       -0.301529   -1.988507    1.353440
 ---------------------------------------------------------------------

 SCF Done:  E(UB3LYP) =  -1258.13661394     A.U. after   33 cycles
 SCF Done:  E(UB3LYP) =  -1258.13661394     a.u. after    1 cycles

 The electronic state is 2-A.
 Alpha  occ. eigenvalues --  -88.77333 -19.04182 -19.03709 -14.22840 -14.22646
 Alpha  occ. eigenvalues --  -14.20779 -10.13385 -10.13231 -10.12928 -10.12083
 Alpha  occ. eigenvalues --  -10.11431 -10.11196 -10.10893 -10.10877 -10.10811
 Alpha  occ. eigenvalues --  -10.10626 -10.09607 -10.07472 -10.07233 -10.07002
 Alpha  occ. eigenvalues --   -7.85980  -5.82266  -5.81939  -5.81541  -0.95949
 Alpha  occ. eigenvalues --   -0.94254  -0.85804  -0.84562  -0.83754  -0.74180
 Alpha  occ. eigenvalues --   -0.69636  -0.69006  -0.68092  -0.64224  -0.62856
 Alpha  occ. eigenvalues --   -0.61004  -0.57240  -0.56710  -0.53041  -0.51890
 Alpha  occ. eigenvalues --   -0.48564  -0.48068  -0.47697  -0.43247  -0.42810
 Alpha  occ. eigenvalues --   -0.41257  -0.40214  -0.39682  -0.38981  -0.38636
 Alpha  occ. eigenvalues --   -0.38521  -0.36966  -0.35940  -0.34143  -0.33893
 Alpha  occ. eigenvalues --   -0.33766  -0.32524  -0.32033  -0.31186  -0.30408
 Alpha  occ. eigenvalues --   -0.30195  -0.29466  -0.29048  -0.28444  -0.27609
 Alpha  occ. eigenvalues --   -0.27082  -0.25864  -0.24427  -0.23842  -0.22879
 Alpha  occ. eigenvalues --   -0.20518  -0.20205  -0.18568  -0.17696  -0.17519
 Alpha  occ. eigenvalues --   -0.14381  -0.13961  -0.10550   0.03845
 Alpha virt. eigenvalues --    0.05501   0.05965   0.06992   0.07444   0.07568
 Alpha virt. eigenvalues --    0.08072   0.08362   0.08863   0.09206   0.09603
 Alpha virt. eigenvalues --    0.09725   0.10535   0.10875   0.11502   0.11709

  Beta  occ. eigenvalues --  -88.77321 -19.04173 -19.03708 -14.22826 -14.22634
  Beta  occ. eigenvalues --  -14.20708 -10.13380 -10.13213 -10.12907 -10.11838
  Beta  occ. eigenvalues --  -10.11330 -10.11180 -10.10883 -10.10874 -10.10795
  Beta  occ. eigenvalues --  -10.10617 -10.09593 -10.07433 -10.07120 -10.07027
  Beta  occ. eigenvalues --   -7.85969  -5.82262  -5.81937  -5.81499  -0.95931
  Beta  occ. eigenvalues --   -0.94249  -0.85595  -0.84528  -0.83666  -0.74073
  Beta  occ. eigenvalues --   -0.69522  -0.68972  -0.68045  -0.64129  -0.62699
  Beta  occ. eigenvalues --   -0.60931  -0.57189  -0.56667  -0.52770  -0.51850
  Beta  occ. eigenvalues --   -0.48492  -0.47919  -0.47610  -0.43181  -0.42769
  Beta  occ. eigenvalues --   -0.41212  -0.40174  -0.39644  -0.38937  -0.38500
  Beta  occ. eigenvalues --   -0.38478  -0.36907  -0.35900  -0.34107  -0.33826
  Beta  occ. eigenvalues --   -0.33722  -0.32479  -0.31640  -0.31126  -0.30310
  Beta  occ. eigenvalues --   -0.30134  -0.29400  -0.28989  -0.28329  -0.27570
  Beta  occ. eigenvalues --   -0.27057  -0.25528  -0.24383  -0.23779  -0.22833
  Beta  occ. eigenvalues --   -0.20324  -0.19932  -0.18279  -0.17627  -0.17425
  Beta  occ. eigenvalues --   -0.14315  -0.13640  -0.10110
  Beta virt. eigenvalues --    0.06069   0.06831   0.07279   0.07308   0.07413
  Beta virt. eigenvalues --    0.07659   0.08325   0.08627   0.08957   0.09290
  Beta virt. eigenvalues --    0.09816   0.10057   0.10594   0.10922   0.11552

 Mulliken charges and spin densities:
               1          2
     1  C   -0.173625   0.054200
     2  C    0.441132  -0.900859
     3  O   -0.183103   0.063786
     4  C    0.404977  -0.854712
     5  C    0.035392  -0.147713
     6  N    0.175780   0.060721
     7  C   -0.555094  -0.105667
     8  C   -0.269699   0.290082
     9  C   -0.153796  -0.398437
    10  N   -0.019850   0.044794
    11  C    1.195545  -0.592721
    12  C    0.104247  -0.238084
    13  C    1.099648   0.288381
    14  C   -1.716924   0.060016
    15  C   -0.816704   0.179242
    16  C   -0.168661  -0.107631
    17  N   -0.001264   0.018933
    18  C    0.162739   0.197267
    19  S   -0.553273  -0.102735
    20  O   -0.164617  -0.007783
    21  H    0.044031   0.094208
    22  H   -0.125569   0.233675
    23  H   -0.083065   0.223739
    24  H   -0.026708   0.199598
    25  H   -0.066171   0.251486
    26  H   -0.195536   0.336751
    27  H    0.076798   0.050214
    28  H   -0.390282   0.525551
    29  H    0.091554   0.142815
    30  H    0.105385   0.009544
    31  H   -0.048546   0.255524
    32  H    0.084892   0.072597
    33  H   -0.091279   0.322478
    34  H    0.515809  -0.186754
    35  H   -0.504064   0.652162
    36  H    0.153906   0.004776
    37  H    0.153336   0.012492
    38  H    0.235366  -0.012787
    39  H    0.227294   0.010852
 Sum of Mulliken charges =  -1.00000   1.00000

 Dipole moment (field-independent basis, Debye):
    X=              0.2691    Y=             -1.7408    Z=              0.4389  Tot=              1.8153
 Quadrupole moment (field-independent basis, Debye-Ang):
   XX=           -238.8970   YY=           -167.1535   ZZ=           -153.3238
   XY=             14.7844   XZ=             -2.7103   YZ=             -1.1119

 Summary of Natural Population Analysis:

                                       Natural Population
                Natural  -----------------------------------------------
    Atom  No    Charge         Core      Valence    Rydberg      Total
 -----------------------------------------------------------------------
      C    1   -0.09940      0.99961     2.08883    0.01096     3.09940
      C    2   -0.01392      0.99957     2.00147    0.01288     3.01392
      O    3   -0.29840      0.99989     3.28930    0.00921     4.29840
      C    4   -0.01443      0.99957     2.00122    0.01364     3.01443
      C    5   -0.09782      0.99961     2.08633    0.01187     3.09782
      N    6   -0.28673      0.99971     2.77379    0.01323     3.78673
      C    7   -0.09507      0.99959     2.08466    0.01081     3.09507
      C    8    0.05660      0.99955     1.92940    0.01445     2.94340
      C    9   -0.10092      0.99959     2.08973    0.01160     3.10092
      N   10   -0.32929      0.99968     2.81778    0.01183     3.82929
      C   11    0.10714      0.99949     1.88209    0.01128     2.89286
      C   12   -0.13052      0.99946     2.12015    0.01090     3.13052
      C   13   -0.09447      0.99941     2.08394    0.01112     3.09447
      C   14    0.03479      0.99942     1.95038    0.01542     2.96521
      C   15   -0.06460      0.99953     2.05648    0.00858     3.06460
      C   16   -0.14336      0.99953     2.13619    0.00764     3.14336
      N   17   -0.22566      0.99966     2.71540    0.01060     3.72566
      C   18    0.00108      0.99965     1.98403    0.01524     2.99892
      S   19    0.15278      4.99948     2.82687    0.02087     7.84722
      O   20   -0.37171      0.99990     3.36542    0.00639     4.37171
      H   21    0.08213      0.00000     0.41641    0.00145     0.41787
      H   22    0.09988      0.00000     0.39839    0.00172     0.40012
      H   23    0.08192      0.00000     0.41638    0.00170     0.41808
      H   24    0.09135      0.00000     0.40759    0.00106     0.40865
      H   25    0.09201      0.00000     0.40685    0.00113     0.40799
      H   26    0.08262      0.00000     0.41528    0.00210     0.41738
      H   27    0.08055      0.00000     0.41806    0.00140     0.41945
      H   28    0.10367      0.00000     0.39433    0.00200     0.39633
      H   29    0.10041      0.00000     0.39792    0.00168     0.39959
      H   30    0.08666      0.00000     0.41197    0.00136     0.41334
      H   31    0.08680      0.00000     0.41192    0.00128     0.41320
      H   32    0.09887      0.00000     0.39987    0.00126     0.40113
      H   33    0.10628      0.00000     0.39188    0.00183     0.39372
      H   34    0.18943      0.00000     0.30761    0.00296     0.31057
      H   35    0.10165      0.00000     0.39645    0.00190     0.39835
      H   36    0.10093      0.00000     0.39783    0.00123     0.39907
      H   37    0.10738      0.00000     0.39097    0.00166     0.39262
      H   38    0.08996      0.00000     0.40895    0.00110     0.41004
      H   39    0.23141      0.00000     0.26571    0.00288     0.26859
 =======================================================================
   * Total *    0.00000     23.99192    53.73786    0.27022    78.00000

 Normal termination of Gaussian 16 at Sun Dec 13 22:23:40 2020.
