 Gaussian 16, Revision A.03,

 -----------------------------------------------------------
 # opt freq B3LYP/6-31G(d) empiricaldispersion=gd3bj scf=xqc
 -----------------------------------------------------------

 -------------------------------
 CID_115081967_JID_1021_neutraal
 -------------------------------
 Symbolic Z-matrix:
 Charge =  0 Multiplicity = 1

 SCF Done:  E(RB3LYP) =  -533.923564333     A.U. after   14 cycles
 SCF Done:  E(RB3LYP) =  -533.927766346     A.U. after   12 cycles
 SCF Done:  E(RB3LYP) =  -533.928677528     A.U. after   12 cycles
 SCF Done:  E(RB3LYP) =  -533.929005506     A.U. after   11 cycles
 SCF Done:  E(RB3LYP) =  -533.929160855     A.U. after   11 cycles
 SCF Done:  E(RB3LYP) =  -533.929218395     A.U. after   10 cycles
 SCF Done:  E(RB3LYP) =  -533.929262953     A.U. after   10 cycles
 SCF Done:  E(RB3LYP) =  -533.929272866     A.U. after    9 cycles
 SCF Done:  E(RB3LYP) =  -533.929275280     A.U. after    9 cycles
 SCF Done:  E(RB3LYP) =  -533.929275978     A.U. after    8 cycles
 SCF Done:  E(RB3LYP) =  -533.929276329     A.U. after    8 cycles
 SCF Done:  E(RB3LYP) =  -533.929276563     A.U. after    8 cycles
 SCF Done:  E(RB3LYP) =  -533.929276679     A.U. after    8 cycles
 SCF Done:  E(RB3LYP) =  -533.929276695     A.U. after    7 cycles
 Optimization completed.
    -- Stationary point found.
 Normal termination of Gaussian 16 at Tue Dec  8 19:10:57 2020.

 --------------------------------------------------------------------
 #N Geom=AllCheck Guess=TCheck SCRF=Check GenChk RB3LYP/6-31G(d) Freq
 --------------------------------------------------------------------

 Structure from the checkpoint file:  "JID_1021.chk"
 -------------------------------
 CID_115081967_JID_1021_neutraal
 -------------------------------
 Charge =  0 Multiplicity = 1

 SCF Done:  E(RB3LYP) =  -533.929276695     A.U. after    1 cycles

  Exact polarizability: 116.539   4.702  88.367   2.533  -2.766  64.698
 Approx polarizability: 146.069  -2.695 142.211   8.050 -10.637  98.363

                      1                      2                      3
                      A                      A                      A
 Frequencies --     32.7710                49.1689               114.4388
 Red. masses --      5.2756                 3.5544                 5.0465
 Frc consts  --      0.0033                 0.0051                 0.0389
 IR Inten    --      1.5528                 0.3329                 0.7014

                      4                      5                      6
                      A                      A                      A
 Frequencies --    127.8908               166.2864               193.2151
 Red. masses --      3.4104                 4.1330                 2.6644
 Frc consts  --      0.0329                 0.0673                 0.0586
 IR Inten    --      2.1350                 0.5143                 0.6152

                      7                      8                      9
                      A                      A                      A
 Frequencies --    255.8064               289.1272               311.2066
 Red. masses --      1.0816                 3.1795                 1.1543
 Frc consts  --      0.0417                 0.1566                 0.0659
 IR Inten    --      0.7845                 7.6142                39.1901

                     10                     11                     12
                      A                      A                      A
 Frequencies --    345.6322               355.8740               445.3416
 Red. masses --      2.6227                 3.5287                 3.1377
 Frc consts  --      0.1846                 0.2633                 0.3666
 IR Inten    --      9.0306                14.0034                 1.0392

                     13                     14                     15
                      A                      A                      A
 Frequencies --    449.9085               478.1522               520.7457
 Red. masses --      1.1806                 2.7098                 2.6636
 Frc consts  --      0.1408                 0.3650                 0.4256
 IR Inten    --    138.4909                14.6567                11.1148

                     16                     17                     18
                      A                      A                      A
 Frequencies --    606.0862               687.4807               705.1143
 Red. masses --      3.5227                 4.4470                 1.9134
 Frc consts  --      0.7624                 1.2383                 0.5605
 IR Inten    --      0.2526                 7.7544                23.1679

                     19                     20                     21
                      A                      A                      A
 Frequencies --    752.6289               770.7833               873.1636
 Red. masses --      2.1227                 3.4706                 2.5073
 Frc consts  --      0.7084                 1.2148                 1.1263
 IR Inten    --      4.9609                 5.4060                13.0156

                     22                     23                     24
                      A                      A                      A
 Frequencies --    906.4220               940.8791               954.3474
 Red. masses --      2.7035                 1.9755                 1.7606
 Frc consts  --      1.3087                 1.0304                 0.9448
 IR Inten    --     45.6447                 2.5357               133.1275

                     25                     26                     27
                      A                      A                      A
 Frequencies --    961.3509              1001.5174              1032.5330
 Red. masses --      3.3686                 2.9693                 1.4407
 Frc consts  --      1.8343                 1.7548                 0.9050
 IR Inten    --     10.4846                47.5674                 6.5082

                     28                     29                     30
                      A                      A                      A
 Frequencies --   1076.6511              1093.5658              1096.4354
 Red. masses --      2.0083                 1.9471                 4.0085
 Frc consts  --      1.3716                 1.3720                 2.8392
 IR Inten    --     27.9071               109.8801                35.8299

                     31                     32                     33
                      A                      A                      A
 Frequencies --   1123.5775              1166.7437              1204.5961
 Red. masses --      3.6674                 2.2360                 1.9562
 Frc consts  --      2.7278                 1.7934                 1.6724
 IR Inten    --     27.3577                11.4669                51.3533

                     34                     35                     36
                      A                      A                      A
 Frequencies --   1224.7914              1244.4282              1262.1290
 Red. masses --      1.1478                 1.6468                 2.0752
 Frc consts  --      1.0145                 1.5026                 1.9477
 IR Inten    --      8.3989                13.8237                10.8388

                     37                     38                     39
                      A                      A                      A
 Frequencies --   1280.8534              1339.7852              1377.8063
 Red. masses --      1.5371                 2.0115                 1.5844
 Frc consts  --      1.4858                 2.1274                 1.7721
 IR Inten    --      2.4626                17.4873                 2.1897

                     40                     41                     42
                      A                      A                      A
 Frequencies --   1387.8016              1411.4165              1418.5245
 Red. masses --      1.6638                 1.3136                 1.2589
 Frc consts  --      1.8881                 1.5417                 1.4925
 IR Inten    --     14.9799                 2.3620                 1.7590

                     43                     44                     45
                      A                      A                      A
 Frequencies --   1441.7243              1452.3925              1489.2098
 Red. masses --      1.4215                 1.2247                 1.1016
 Frc consts  --      1.7408                 1.5221                 1.4394
 IR Inten    --      7.1878                95.6105                12.5072

                     46                     47                     48
                      A                      A                      A
 Frequencies --   1523.6860              1529.8940              1539.1561
 Red. masses --      1.0448                 1.0507                 1.0920
 Frc consts  --      1.4292                 1.4490                 1.5242
 IR Inten    --      6.1507                 2.7390                 0.5466

                     49                     50                     51
                      A                      A                      A
 Frequencies --   1630.4940              1644.3947              1704.4803
 Red. masses --      6.3514                 9.3909                 1.0902
 Frc consts  --      9.9485                14.9614                 1.8662
 IR Inten    --      5.3271                65.1359                22.8597

                     52                     53                     54
                      A                      A                      A
 Frequencies --   3000.7822              3037.3591              3050.6317
 Red. masses --      1.0720                 1.0817                 1.0410
 Frc consts  --      5.6873                 5.8795                 5.7081
 IR Inten    --     58.4018                14.6163                22.5850

                     55                     56                     57
                      A                      A                      A
 Frequencies --   3059.8556              3110.1568              3114.3650
 Red. masses --      1.0649                 1.0942                 1.0996
 Frc consts  --      5.8745                 6.2360                 6.2839
 IR Inten    --     13.0375                45.5653                32.9574

                     58                     59                     60
                      A                      A                      A
 Frequencies --   3127.1255              3148.8682              3320.2574
 Red. masses --      1.0978                 1.1012                 1.0996
 Frc consts  --      6.3250                 6.4330                 7.1423
 IR Inten    --      8.5896                19.5420                 1.0628

                     61                     62                     63
                      A                      A                      A
 Frequencies --   3444.3163              3531.0311              3732.6770
 Red. masses --      1.0506                 1.0904                 1.0654
 Frc consts  --      7.3435                 8.0100                 8.7463
 IR Inten    --      1.5146                 0.4626                49.5409

 - Thermochemistry -
 -------------------
 Temperature   298.150 Kelvin.  Pressure   1.00000 Atm.
 Atom     1 has atomic number  6 and mass  12.00000

 Molecular mass:   156.08988 amu.
 Principal axes and moments of inertia in atomic units:
                           1         2         3
     Eigenvalues --   582.848443397.933413803.47832
           X            0.99983   0.01835  -0.00234
           Y           -0.01833   0.99977   0.01133
           Z            0.00255  -0.01129   0.99993
 This molecule is an asymmetric top.
 Rotational symmetry number  1.
 Warning -- assumption of classical behavior for rotation
           may cause significant error
 Rotational temperatures (Kelvin)      0.14860     0.02549     0.02277
 Rotational constants (GHZ):           3.09642     0.53113     0.47450
 Zero-point vibrational energy     512419.4 (Joules/Mol)
                                  122.47118 (Kcal/Mol)
 Warning -- explicit consideration of  16 degrees of freedom as
           vibrations may cause significant error
 Vibrational temperatures:     47.15    70.74   164.65   184.01   239.25
          (Kelvin)            277.99   368.05   415.99   447.76   497.29
                              512.02   640.75   647.32   687.95   749.24
                              872.02   989.13  1014.50  1082.87  1108.99
                             1256.29  1304.14  1353.72  1373.09  1383.17
                             1440.96  1485.58  1549.06  1573.40  1577.53
                             1616.58  1678.68  1733.15  1762.20  1790.45
                             1815.92  1842.86  1927.65  1982.36  1996.74
                             2030.71  2040.94  2074.32  2089.67  2142.64
                             2192.24  2201.18  2214.50  2345.92  2365.92
                             2452.37  4317.46  4370.08  4389.18  4402.45
                             4474.82  4480.88  4499.24  4530.52  4777.11
                             4955.60  5080.37  5370.49

 Zero-point correction=                           0.195170 (Hartree/Particle)
 Thermal correction to Energy=                    0.206457
 Thermal correction to Enthalpy=                  0.207401
 Thermal correction to Gibbs Free Energy=         0.157235
 Sum of electronic and zero-point Energies=           -533.734106
 Sum of electronic and thermal Energies=              -533.722819
 Sum of electronic and thermal Enthalpies=            -533.721875
 Sum of electronic and thermal Free Energies=         -533.772041

                     E (Thermal)             CV                S
                      KCal/Mol        Cal/Mol-Kelvin    Cal/Mol-Kelvin
 Total                  129.554             41.565            105.583
 Electronic               0.000              0.000              0.000
 Translational            0.889              2.981             41.045
 Rotational               0.889              2.981             30.400
 Vibrational            127.776             35.603             34.138
 Vibration     1          0.594              1.983              5.654
 Vibration     2          0.595              1.978              4.851
 Vibration     3          0.607              1.937              3.192
 Vibration     4          0.611              1.925              2.978
 Vibration     5          0.624              1.884              2.477
 Vibration     6          0.635              1.849              2.197
 Vibration     7          0.666              1.753              1.690
 Vibration     8          0.686              1.694              1.479
 Vibration     9          0.700              1.652              1.356
 Vibration    10          0.724              1.584              1.186
 Vibration    11          0.731              1.563              1.140
 Vibration    12          0.805              1.371              0.810
 Vibration    13          0.809              1.361              0.796
 Vibration    14          0.835              1.299              0.715
 Vibration    15          0.876              1.204              0.608
 Vibration    16          0.965              1.019              0.439

 Optimization completed.
    -- Stationary point found.
 Normal termination of Gaussian 16 at Tue Dec  8 19:14:50 2020.

 ----------------------------------------------------------------------
 # B3LYP/6-311++G(d,p) empiricaldispersion=gd3bj scf=xqc pop=npa geom=c
 heck
 ----------------------------------------------------------------------

 ---------------------------------------
 CID_115081967_JID_1021_Energie_neutraal
 ---------------------------------------
 Structure from the checkpoint file:  "JID_1021.chk"
 Charge =  0 Multiplicity = 1

 SCF Done:  E(RB3LYP) =  -534.097754829     A.U. after   15 cycles
 Normal termination of Gaussian 16 at Tue Dec  8 19:16:14 2020.

 ----------------------------------------------------------------------
 # B3LYP/6-311++G(d,p) empiricaldispersion=gd3bj scf=xqc pop=npa geom=c
 heck
 ----------------------------------------------------------------------

 -------------------------------------
 CID_115081967_JID_1021_Energie_kation
 -------------------------------------
 Structure from the checkpoint file:  "JID_1021.chk"
 Charge =  1 Multiplicity = 2

 SCF Done:  E(UB3LYP) =  -533.777756465     A.U. after   23 cycles
 Normal termination of Gaussian 16 at Tue Dec  8 19:19:05 2020.
 Gaussian 16:  ES64L-G16RevA.03 25-Dec-2016

 ----------------------------------------------------------------------
 # B3LYP/6-311++G(d,p) empiricaldispersion=gd3bj scf=xqc pop=npa geom=c
 heck
 ----------------------------------------------------------------------

 ------------------------------------
 CID_115081967_JID_1021_Energie_anion
 ------------------------------------
 Structure from the checkpoint file:  "JID_1021.chk"
 Charge = -1 Multiplicity = 2

                         Standard orientation:
 ---------------------------------------------------------------------
 Center     Atomic      Atomic             Coordinates (Angstroms)
 Number     Number       Type             X           Y           Z
 ---------------------------------------------------------------------
      1          6           0        3.460970    1.071197    0.232013
      2          6           0        2.594591   -0.168067    0.449436
      3          6           0        1.144286    0.085847    0.126113
      4          6           0        0.496074    1.210234   -0.266733
      5          8           0       -0.831116    0.890291   -0.472849
      6          6           0       -0.914647   -0.448946   -0.184158
      7          7           0        0.218882   -0.964832    0.174403
      8          6           0       -2.256026   -1.088441   -0.286618
      9          6           0       -3.329758   -0.359147    0.543817
     10          8           0       -3.672846    0.905557    0.010138
     11          7           0        3.151276   -1.303680   -0.303722
     12          1           0        3.427619    1.388821   -0.817802
     13          1           0        4.499088    0.842522    0.485152
     14          1           0        3.121603    1.908117    0.851732
     15          1           0        2.650722   -0.451147    1.509414
     16          1           0        0.773997    2.236013   -0.442644
     17          1           0       -2.586750   -1.105008   -1.332840
     18          1           0       -2.146932   -2.122834    0.052080
     19          1           0       -4.249195   -0.951852    0.533507
     20          1           0       -2.993363   -0.283893    1.590544
     21          1           0       -2.856400    1.428792   -0.039104
     22          1           0        2.534780   -2.104933   -0.165981
     23          1           0        3.092480   -1.087868   -1.300353
 ---------------------------------------------------------------------

 SCF Done:  E(UB3LYP) =  -534.084077151     A.U. after   31 cycles

 The electronic state is 2-A.
 Alpha  occ. eigenvalues --  -19.09500 -19.02122 -14.20714 -14.19290 -10.15973
 Alpha  occ. eigenvalues --  -10.12249 -10.11884 -10.10746 -10.09725 -10.08720
 Alpha  occ. eigenvalues --  -10.05996  -1.02738  -0.92536  -0.82494  -0.78606
 Alpha  occ. eigenvalues --   -0.70351  -0.65313  -0.61985  -0.54772  -0.54329
 Alpha  occ. eigenvalues --   -0.49482  -0.46182  -0.42364  -0.41256  -0.39341
 Alpha  occ. eigenvalues --   -0.36907  -0.36776  -0.35597  -0.33856  -0.32871
 Alpha  occ. eigenvalues --   -0.31080  -0.29883  -0.29242  -0.27345  -0.26733
 Alpha  occ. eigenvalues --   -0.25813  -0.23598  -0.21488  -0.19387  -0.18175
 Alpha  occ. eigenvalues --   -0.15573  -0.13739   0.04632
 Alpha virt. eigenvalues --    0.06620   0.08052   0.08329   0.08848   0.09108
 Alpha virt. eigenvalues --    0.09758   0.10351   0.11183   0.11388   0.12133
 Alpha virt. eigenvalues --    0.13004   0.13449   0.14211   0.15288   0.16137

  Beta  occ. eigenvalues --  -19.09435 -19.02111 -14.20701 -14.19267 -10.15935
  Beta  occ. eigenvalues --  -10.12215 -10.11810 -10.10738 -10.09733 -10.08701
  Beta  occ. eigenvalues --  -10.05960  -1.02639  -0.92517  -0.82446  -0.78562
  Beta  occ. eigenvalues --   -0.70270  -0.65258  -0.61903  -0.54708  -0.54231
  Beta  occ. eigenvalues --   -0.49434  -0.46099  -0.42280  -0.41186  -0.39290
  Beta  occ. eigenvalues --   -0.36794  -0.36652  -0.35525  -0.33806  -0.32828
  Beta  occ. eigenvalues --   -0.31021  -0.29805  -0.29177  -0.27301  -0.26694
  Beta  occ. eigenvalues --   -0.25760  -0.23561  -0.21353  -0.19356  -0.18142
  Beta  occ. eigenvalues --   -0.15515  -0.13535
  Beta virt. eigenvalues --    0.07016   0.07676   0.08692   0.08883   0.09449
  Beta virt. eigenvalues --    0.09496   0.10117   0.10829   0.11657   0.11733
  Beta virt. eigenvalues --    0.12726   0.13317   0.13750   0.14375   0.15583

 Mulliken charges and spin densities:
               1          2
     1  C    1.213361  -1.768812
     2  C   -1.334920   1.013624
     3  C    2.765698  -2.663073
     4  C   -1.971718   1.891379
     5  O   -0.112107   0.028693
     6  C   -0.309651   0.186771
     7  N   -0.186823   0.193694
     8  C    0.956800  -1.312008
     9  C    0.972858  -1.310087
    10  O   -0.304781   0.057058
    11  N   -0.229928  -0.028574
    12  H   -0.139860   0.288884
    13  H   -0.150669   0.308985
    14  H   -0.253931   0.398396
    15  H   -0.097021   0.284530
    16  H   -1.260282   1.467449
    17  H   -0.152824   0.356715
    18  H   -0.105572   0.255677
    19  H   -0.474689   0.668797
    20  H   -0.109658   0.252801
    21  H    0.112578   0.140810
    22  H    0.078182   0.169036
    23  H    0.094957   0.119256
 Sum of Mulliken charges =  -1.00000   1.00000

 Dipole moment (field-independent basis, Debye):
    X=              0.2058    Y=             -1.9531    Z=             -0.8085  Tot=              2.1239
 Quadrupole moment (field-independent basis, Debye-Ang):
   XX=           -143.5534   YY=           -108.1141   ZZ=            -90.9925
   XY=             -5.3857   XZ=             -1.6864   YZ=             -0.6927

 Summary of Natural Population Analysis:

                                       Natural Population
                Natural  -----------------------------------------------
    Atom  No    Charge         Core      Valence    Rydberg      Total
 -----------------------------------------------------------------------
      C    1   -0.28767      0.99966     2.28177    0.00624     3.28767
      C    2   -0.02717      0.99958     2.01539    0.01220     3.02717
      C    3    0.03186      0.99951     1.95182    0.01680     2.96814
      C    4    0.05278      0.99941     1.93478    0.01304     2.94722
      O    5   -0.25023      0.99986     3.24117    0.00919     4.25023
      C    6    0.27900      0.99959     1.70127    0.02015     2.72100
      N    7   -0.25953      0.99966     2.75013    0.00974     3.75953
      C    8   -0.23231      0.99958     2.22460    0.00813     3.23231
      C    9   -0.00230      0.99961     1.99116    0.01152     3.00230
      O   10   -0.37262      0.99990     3.36566    0.00706     4.37262
      N   11   -0.41580      0.99978     2.90733    0.00868     3.91580
      H   12    0.09695      0.00000     0.40160    0.00145     0.40305
      H   13    0.10402      0.00000     0.39484    0.00113     0.39598
      H   14    0.10508      0.00000     0.39282    0.00210     0.39492
      H   15    0.09592      0.00000     0.40232    0.00176     0.40408
      H   16    0.10506      0.00000     0.39196    0.00298     0.39494
      H   17    0.11115      0.00000     0.38682    0.00203     0.38885
      H   18    0.11610      0.00000     0.38196    0.00194     0.38390
      H   19    0.08781      0.00000     0.40981    0.00238     0.41219
      H   20    0.07692      0.00000     0.42122    0.00186     0.42308
      H   21    0.23511      0.00000     0.26107    0.00381     0.26489
      H   22    0.17981      0.00000     0.31795    0.00224     0.32019
      H   23    0.17005      0.00000     0.32811    0.00184     0.32995
 =======================================================================
   * Total *   -0.00000     10.99613    30.85556    0.14830    42.00000

 Normal termination of Gaussian 16 at Tue Dec  8 19:23:01 2020.
