 Gaussian 16, Revision A.03,

 -----------------------------------------------------------
 # opt freq B3LYP/6-31G(d) empiricaldispersion=gd3bj scf=xqc
 -----------------------------------------------------------

 -------------------------------
 CID_106515501_JID_5772_neutraal
 -------------------------------
 Symbolic Z-matrix:
 Charge =  0 Multiplicity = 1

 SCF Done:  E(RB3LYP) =  -1024.15668896     A.U. after   15 cycles
 SCF Done:  E(RB3LYP) =  -1024.16449499     A.U. after   14 cycles
 SCF Done:  E(RB3LYP) =  -1024.16637608     A.U. after   15 cycles
 SCF Done:  E(RB3LYP) =  -1024.16555762     A.U. after   16 cycles
 SCF Done:  E(RB3LYP) =  -1024.16722490     A.U. after   13 cycles
 SCF Done:  E(RB3LYP) =  -1024.16732297     A.U. after   11 cycles
 SCF Done:  E(RB3LYP) =  -1024.16734654     A.U. after   11 cycles
 SCF Done:  E(RB3LYP) =  -1024.16735239     A.U. after   10 cycles
 SCF Done:  E(RB3LYP) =  -1024.16735436     A.U. after    9 cycles
 SCF Done:  E(RB3LYP) =  -1024.16735514     A.U. after    9 cycles
 SCF Done:  E(RB3LYP) =  -1024.16735551     A.U. after    8 cycles
 SCF Done:  E(RB3LYP) =  -1024.16735564     A.U. after    8 cycles
 SCF Done:  E(RB3LYP) =  -1024.16735568     A.U. after    7 cycles
 SCF Done:  E(RB3LYP) =  -1024.16735569     A.U. after    7 cycles
 Optimization completed.
    -- Stationary point found.
 Normal termination of Gaussian 16 at Thu Dec 10 16:54:42 2020.

 --------------------------------------------------------------------
 #N Geom=AllCheck Guess=TCheck SCRF=Check GenChk RB3LYP/6-31G(d) Freq
 --------------------------------------------------------------------

 Structure from the checkpoint file:  "JID_5772.chk"
 -------------------------------
 CID_106515501_JID_5772_neutraal
 -------------------------------
 Charge =  0 Multiplicity = 1

 SCF Done:  E(RB3LYP) =  -1024.16735569     A.U. after    1 cycles

  Exact polarizability: 237.597  21.848 149.118   5.291  14.120  74.427
 Approx polarizability: 407.167  78.740 271.160  12.337  36.453 122.709

                      1                      2                      3
                      A                      A                      A
 Frequencies --     39.7755                58.5243                81.8035
 Red. masses --      6.4398                 3.9720                 3.5441
 Frc consts  --      0.0060                 0.0080                 0.0140
 IR Inten    --      2.7901                 1.1499                 2.3833

                      4                      5                      6
                      A                      A                      A
 Frequencies --     95.3269               118.4728               141.9028
 Red. masses --      3.3074                 2.2637                 1.8332
 Frc consts  --      0.0177                 0.0187                 0.0217
 IR Inten    --      4.9985                 1.3501                 3.0563

                      7                      8                      9
                      A                      A                      A
 Frequencies --    202.3259               235.2267               271.5679
 Red. masses --      4.0503                 8.0637                 8.0506
 Frc consts  --      0.0977                 0.2629                 0.3498
 IR Inten    --      3.2260                 1.0976                 1.4095

                     10                     11                     12
                      A                      A                      A
 Frequencies --    295.2119               330.2236               377.8519
 Red. masses --      8.0520                 6.2818                 4.0196
 Frc consts  --      0.4134                 0.4036                 0.3381
 IR Inten    --      2.0877                 5.0267                12.6722

                     13                     14                     15
                      A                      A                      A
 Frequencies --    388.6946               435.1954               486.2162
 Red. masses --      2.6597                 8.6483                 6.3267
 Frc consts  --      0.2368                 0.9650                 0.8812
 IR Inten    --      0.5752                 9.1469                 2.3909

                     16                     17                     18
                      A                      A                      A
 Frequencies --    535.6500               563.3063               586.9909
 Red. masses --      2.9489                 3.2085                 3.2335
 Frc consts  --      0.4985                 0.5998                 0.6564
 IR Inten    --     62.6713                26.7912                15.7351

                     19                     20                     21
                      A                      A                      A
 Frequencies --    613.8903               625.5416               667.2195
 Red. masses --      2.8261                 4.6058                 7.4322
 Frc consts  --      0.6275                 1.0619                 1.9494
 IR Inten    --      8.0633                16.6593                 8.6183

                     22                     23                     24
                      A                      A                      A
 Frequencies --    687.0742               756.4157               777.7315
 Red. masses --      6.8167                 4.4745                 4.8870
 Frc consts  --      1.8960                 1.5084                 1.7416
 IR Inten    --      1.2190                 2.1418                 4.3650

                     25                     26                     27
                      A                      A                      A
 Frequencies --    827.5880               844.7283               887.2868
 Red. masses --      6.0121                 1.6348                 2.6734
 Frc consts  --      2.4261                 0.6873                 1.2400
 IR Inten    --      1.5411                28.1958                21.9323

                     28                     29                     30
                      A                      A                      A
 Frequencies --    890.3972               931.8878               979.7620
 Red. masses --      1.7627                 1.3981                 1.3215
 Frc consts  --      0.8234                 0.7154                 0.7474
 IR Inten    --      5.2080                 1.8627                 0.3901

                     31                     32                     33
                      A                      A                      A
 Frequencies --    999.3838              1013.9496              1019.4384
 Red. masses --      1.4316                 7.5312                 8.1646
 Frc consts  --      0.8424                 4.5619                 4.9993
 IR Inten    --      1.0578                 6.8497                38.2736

                     34                     35                     36
                      A                      A                      A
 Frequencies --   1090.6269              1106.2577              1126.8394
 Red. masses --      5.7487                 2.0434                 1.9953
 Frc consts  --      4.0288                 1.4734                 1.4927
 IR Inten    --     37.9971                 9.5382                20.4450

                     37                     38                     39
                      A                      A                      A
 Frequencies --   1134.2889              1175.1542              1214.3941
 Red. masses --      2.3628                 1.2565                 2.5153
 Frc consts  --      1.7911                 1.0224                 2.1856
 IR Inten    --     39.1233                15.7809                13.4917

                     40                     41                     42
                      A                      A                      A
 Frequencies --   1218.1699              1261.0110              1268.7477
 Red. masses --      1.7127                 1.3295                 2.6606
 Frc consts  --      1.4974                 1.2456                 2.5234
 IR Inten    --     35.4351                11.5728                39.2744

                     43                     44                     45
                      A                      A                      A
 Frequencies --   1296.9155              1301.8960              1361.9091
 Red. masses --     10.0819                 6.8592                 2.1225
 Frc consts  --      9.9911                 6.8498                 2.3195
 IR Inten    --      4.6104               336.9117                13.2536

                     46                     47                     48
                      A                      A                      A
 Frequencies --   1376.2020              1431.5660              1455.4536
 Red. masses --      1.7572                 1.4963                 1.9381
 Frc consts  --      1.9608                 1.8067                 2.4189
 IR Inten    --      4.2189                37.7127                10.3899

                     49                     50                     51
                      A                      A                      A
 Frequencies --   1480.0812              1510.9384              1527.9932
 Red. masses --      1.4039                 1.1117                 2.6090
 Frc consts  --      1.8120                 1.4953                 3.5889
 IR Inten    --     11.8756                12.0344                41.8020

                     52                     53                     54
                      A                      A                      A
 Frequencies --   1534.0757              1543.0933              1598.9033
 Red. masses --      1.0523                 2.1570                 6.1904
 Frc consts  --      1.4592                 3.0261                 9.3243
 IR Inten    --      7.4350                19.0967                49.6626

                     55                     56                     57
                      A                      A                      A
 Frequencies --   1625.6342              1650.6684              1662.0498
 Red. masses --      3.7942                 5.2537                 7.0616
 Frc consts  --      5.9077                 8.4341                11.4933
 IR Inten    --    104.9506                63.7491               262.3027

                     58                     59                     60
                      A                      A                      A
 Frequencies --   3048.9217              3142.5156              3176.4652
 Red. masses --      1.0393                 1.0952                 1.0876
 Frc consts  --      5.6924                 6.3723                 6.4659
 IR Inten    --     50.1155                22.5263                21.4712

                     61                     62                     63
                      A                      A                      A
 Frequencies --   3180.0470              3184.6872              3190.2593
 Red. masses --      1.1073                 1.0909                 1.0925
 Frc consts  --      6.5978                 6.5187                 6.5514
 IR Inten    --      8.2110                28.8235                17.8007

                     64                     65                     66
                      A                      A                      A
 Frequencies --   3198.5494              3262.7088              3605.6070
 Red. masses --      1.0944                 1.0932                 1.0784
 Frc consts  --      6.5968                 6.8566                 8.2600
 IR Inten    --     14.8465                 1.2416                84.9022

 - Thermochemistry -
 -------------------
 Temperature   298.150 Kelvin.  Pressure   1.00000 Atm.
 Atom     1 has atomic number  6 and mass  12.00000

 Molecular mass:   219.04663 amu.
 Principal axes and moments of inertia in atomic units:
                           1         2         3
     Eigenvalues --  1560.516165195.247226405.24413
           X            0.99999   0.00328  -0.00179
           Y           -0.00329   0.99998  -0.00513
           Z            0.00177   0.00514   0.99999
 This molecule is an asymmetric top.
 Rotational symmetry number  1.
 Warning -- assumption of classical behavior for rotation
           may cause significant error
 Rotational temperatures (Kelvin)      0.05550     0.01667     0.01352
 Rotational constants (GHZ):           1.15650     0.34738     0.28176
 Zero-point vibrational energy     476766.8 (Joules/Mol)
                                  113.95001 (Kcal/Mol)
 Warning -- explicit consideration of  19 degrees of freedom as
           vibrations may cause significant error
 Vibrational temperatures:     57.23    84.20   117.70   137.15   170.46
          (Kelvin)            204.17   291.10   338.44   390.73   424.74
                              475.12   543.64   559.24   626.15   699.56
                              770.68   810.47   844.55   883.25   900.01
                              959.98   988.55  1088.31  1118.98  1190.71
                             1215.38  1276.61  1281.08  1340.78  1409.66
                             1437.89  1458.85  1466.74  1569.17  1591.66
                             1621.27  1631.99  1690.78  1747.24  1752.67
                             1814.31  1825.44  1865.97  1873.14  1959.48
                             1980.05  2059.70  2094.07  2129.51  2173.90
                             2198.44  2207.19  2220.17  2300.47  2338.93
                             2374.94  2391.32  4386.72  4521.38  4570.23
                             4575.38  4582.05  4590.07  4602.00  4694.31
                             5187.66

 Zero-point correction=                           0.181591 (Hartree/Particle)
 Thermal correction to Energy=                    0.194430
 Thermal correction to Enthalpy=                  0.195375
 Thermal correction to Gibbs Free Energy=         0.140929
 Sum of electronic and zero-point Energies=          -1023.985765
 Sum of electronic and thermal Energies=             -1023.972925
 Sum of electronic and thermal Enthalpies=           -1023.971981
 Sum of electronic and thermal Free Energies=        -1024.026426

                     E (Thermal)             CV                S
                      KCal/Mol        Cal/Mol-Kelvin    Cal/Mol-Kelvin
 Total                  122.007             47.931            114.590
 Electronic               0.000              0.000              0.000
 Translational            0.889              2.981             42.055
 Rotational               0.889              2.981             32.318
 Vibrational            120.229             41.970             40.216
 Vibration     1          0.594              1.981              5.270
 Vibration     2          0.596              1.974              4.506
 Vibration     3          0.600              1.962              3.847
 Vibration     4          0.603              1.953              3.548
 Vibration     5          0.609              1.934              3.125
 Vibration     6          0.615              1.911              2.778
 Vibration     7          0.639              1.837              2.112
 Vibration     8          0.655              1.787              1.839
 Vibration     9          0.675              1.726              1.586
 Vibration    10          0.689              1.683              1.444
 Vibration    11          0.713              1.615              1.259
 Vibration    12          0.748              1.517              1.048
 Vibration    13          0.757              1.494              1.005
 Vibration    14          0.796              1.394              0.842
 Vibration    15          0.842              1.281              0.693
 Vibration    16          0.891              1.171              0.575
 Vibration    17          0.919              1.111              0.517
 Vibration    18          0.944              1.060              0.473
 Vibration    19          0.973              1.002              0.426

                           ! Non-Optimized Parameters !
 Normal termination of Gaussian 16 at Thu Dec 10 17:02:37 2020.

 ----------------------------------------------------------------------
 # B3LYP/6-311++G(d,p) empiricaldispersion=gd3bj scf=xqc pop=npa geom=c
 heck
 ----------------------------------------------------------------------

 ---------------------------------------
 CID_106515501_JID_5772_Energie_neutraal
 ---------------------------------------
 Structure from the checkpoint file:  "JID_5772.chk"
 Charge =  0 Multiplicity = 1

 SCF Done:  E(RB3LYP) =  -1024.35825029     A.U. after   17 cycles
 Normal termination of Gaussian 16 at Thu Dec 10 17:07:22 2020.

 ----------------------------------------------------------------------
 # B3LYP/6-311++G(d,p) empiricaldispersion=gd3bj scf=xqc pop=npa geom=c
 heck
 ----------------------------------------------------------------------

 -------------------------------------
 CID_106515501_JID_5772_Energie_kation
 -------------------------------------
 Structure from the checkpoint file:  "JID_5772.chk"
 Charge =  1 Multiplicity = 2

 SCF Done:  E(UB3LYP) =  -1024.07861990     A.U. after   29 cycles
 Normal termination of Gaussian 16 at Thu Dec 10 17:18:24 2020.
 Gaussian 16:  ES64L-G16RevA.03 25-Dec-2016

 ----------------------------------------------------------------------
 # B3LYP/6-311++G(d,p) empiricaldispersion=gd3bj scf=xqc pop=npa geom=c
 heck
 ----------------------------------------------------------------------

 ------------------------------------
 CID_106515501_JID_5772_Energie_anion
 ------------------------------------
 Structure from the checkpoint file:  "JID_5772.chk"
 Charge = -1 Multiplicity = 2

                         Standard orientation:
 ---------------------------------------------------------------------
 Center     Atomic      Atomic             Coordinates (Angstroms)
 Number     Number       Type             X           Y           Z
 ---------------------------------------------------------------------
      1          6           0       -0.937157   -2.325722    1.035716
      2          8           0       -0.717738   -1.578162   -0.173580
      3          6           0       -0.969017   -0.244964   -0.105428
      4          6           0        0.102262    0.616404   -0.106090
      5          7           0       -0.174976    1.975404   -0.089487
      6          6           0       -1.462732    2.417311   -0.061585
      7          7           0       -2.500174    1.649799   -0.046747
      8          6           0       -2.340574    0.265892   -0.089204
      9         16           0       -3.673834   -0.730964   -0.146821
     10          6           0        1.526380    0.236952   -0.086478
     11          6           0        2.014761   -0.882632   -0.775227
     12          6           0        3.381019   -1.150613   -0.732568
     13          7           0        4.275771   -0.406859   -0.068171
     14          6           0        3.803201    0.655938    0.591701
     15          6           0        2.458277    1.019574    0.613710
     16          1           0       -0.702998   -3.361234    0.786224
     17          1           0       -1.977984   -2.245375    1.354330
     18          1           0       -0.259829   -1.970994    1.822085
     19          1           0        0.586812    2.633072   -0.193469
     20          1           0       -1.587678    3.498280   -0.053719
     21          1           0        1.342092   -1.522963   -1.329351
     22          1           0        3.779368   -2.010830   -1.266515
     23          1           0        4.535604    1.247557    1.137527
     24          1           0        2.144987    1.875957    1.204229
 ---------------------------------------------------------------------

 SCF Done:  E(UB3LYP) =  -1024.40033775     A.U. after   24 cycles

 The electronic state is 2-A.
 Alpha  occ. eigenvalues --  -88.63838 -19.01760 -14.25587 -14.18327 -14.17414
 Alpha  occ. eigenvalues --  -10.13892 -10.10254 -10.09803 -10.09543 -10.09500
 Alpha  occ. eigenvalues --  -10.08545 -10.07935 -10.06832 -10.05886 -10.05131
 Alpha  occ. eigenvalues --   -7.72645  -5.68978  -5.68642  -5.68145  -0.93723
 Alpha  occ. eigenvalues --   -0.88778  -0.81787  -0.78875  -0.70312  -0.66090
 Alpha  occ. eigenvalues --   -0.63993  -0.60404  -0.58535  -0.53426  -0.51506
 Alpha  occ. eigenvalues --   -0.50435  -0.46881  -0.45501  -0.41826  -0.39193
 Alpha  occ. eigenvalues --   -0.38025  -0.36208  -0.35731  -0.34596  -0.33660
 Alpha  occ. eigenvalues --   -0.32118  -0.31549  -0.30790  -0.28691  -0.28080
 Alpha  occ. eigenvalues --   -0.24638  -0.24206  -0.22321  -0.21925  -0.19223
 Alpha  occ. eigenvalues --   -0.17508  -0.14881  -0.14522  -0.13960  -0.13211
 Alpha  occ. eigenvalues --   -0.08067  -0.06102   0.01316
 Alpha virt. eigenvalues --    0.06905   0.07676   0.08740   0.09402   0.09621
 Alpha virt. eigenvalues --    0.10283   0.10897   0.11241   0.11705   0.12520
 Alpha virt. eigenvalues --    0.12929   0.13652   0.14944   0.15513   0.15842

  Beta  occ. eigenvalues --  -88.63768 -19.01764 -14.25421 -14.18281 -14.17040
  Beta  occ. eigenvalues --  -10.13887 -10.10221 -10.09803 -10.09295 -10.09212
  Beta  occ. eigenvalues --  -10.08594 -10.07934 -10.06651 -10.05761 -10.05035
  Beta  occ. eigenvalues --   -7.72583  -5.68948  -5.68418  -5.68105  -0.93688
  Beta  occ. eigenvalues --   -0.88494  -0.81308  -0.78570  -0.69766  -0.65735
  Beta  occ. eigenvalues --   -0.63743  -0.60151  -0.58256  -0.53249  -0.51119
  Beta  occ. eigenvalues --   -0.50269  -0.46518  -0.45397  -0.41627  -0.38957
  Beta  occ. eigenvalues --   -0.37938  -0.35934  -0.35521  -0.34376  -0.33527
  Beta  occ. eigenvalues --   -0.31967  -0.31094  -0.30698  -0.28371  -0.27116
  Beta  occ. eigenvalues --   -0.24511  -0.24043  -0.21723  -0.21029  -0.18419
  Beta  occ. eigenvalues --   -0.16783  -0.14153  -0.13756  -0.13348  -0.12938
  Beta  occ. eigenvalues --   -0.06829  -0.05930
  Beta virt. eigenvalues --    0.06522   0.06952   0.08299   0.08793   0.09402
  Beta virt. eigenvalues --    0.09797   0.10327   0.11225   0.11692   0.12206
  Beta virt. eigenvalues --    0.12748   0.12972   0.13680   0.14956   0.15519

 Mulliken charges and spin densities:
               1          2
     1  C   -0.282299  -0.003415
     2  O   -0.132165   0.000414
     3  C   -0.079994  -0.021633
     4  C   -0.394326   0.193572
     5  N   -0.086775   0.066833
     6  C    0.251440   0.001025
     7  N   -0.026182   0.019987
     8  C   -0.332505   0.139775
     9  S   -0.774329   0.151039
    10  C    0.507271   0.036828
    11  C    0.202083   0.130390
    12  C   -0.583667  -0.008761
    13  N   -0.126996   0.173292
    14  C   -0.574685  -0.042750
    15  C    0.031022   0.162900
    16  H    0.110922   0.005019
    17  H    0.125931  -0.002012
    18  H    0.118584   0.000284
    19  H    0.258784   0.005328
    20  H    0.168153   0.002152
    21  H    0.208284  -0.001171
    22  H    0.132640  -0.002570
    23  H    0.120505   0.000716
    24  H    0.158304  -0.007243
 Sum of Mulliken charges =  -1.00000   1.00000

 Dipole moment (field-independent basis, Debye):
    X=              4.4950    Y=              2.9503    Z=              1.3462  Tot=              5.5427
 Quadrupole moment (field-independent basis, Debye-Ang):
   XX=           -181.9018   YY=            -95.5221   ZZ=           -101.4994
   XY=              2.6874   XZ=             -1.5662   YZ=             -1.1071

 Summary of Natural Population Analysis:

                                       Natural Population
                Natural  -----------------------------------------------
    Atom  No    Charge         Core      Valence    Rydberg      Total
 -----------------------------------------------------------------------
      C    1   -0.09962      0.99959     2.09250    0.00753     3.09962
      O    2   -0.28891      0.99985     3.27789    0.01117     4.28891
      C    3    0.13069      0.99928     1.85495    0.01508     2.86931
      C    4    0.12804      0.99944     1.85986    0.01266     2.87196
      N    5   -0.25777      0.99965     2.74843    0.00969     3.75777
      C    6    0.14796      0.99966     1.83672    0.01566     2.85204
      N    7   -0.24893      0.99967     2.73635    0.01291     3.74893
      C    8    0.03596      0.99955     1.94291    0.02157     2.96404
      S    9   -0.09079      4.99954     3.07567    0.01558     8.09079
      C   10    0.00274      0.99950     1.98876    0.00900     2.99726
      C   11   -0.08733      0.99952     2.08027    0.00754     3.08733
      C   12    0.01468      0.99960     1.97036    0.01536     2.98532
      N   13   -0.19188      0.99971     2.67892    0.01325     3.69188
      C   14    0.00608      0.99960     1.97855    0.01577     2.99392
      C   15   -0.10410      0.99953     2.09697    0.00759     3.10410
      H   16    0.08381      0.00000     0.41532    0.00087     0.41619
      H   17    0.09732      0.00000     0.40109    0.00159     0.40268
      H   18    0.07759      0.00000     0.42129    0.00112     0.42241
      H   19    0.19708      0.00000     0.30125    0.00167     0.30292
      H   20    0.07951      0.00000     0.41918    0.00130     0.42049
      H   21    0.11077      0.00000     0.38815    0.00108     0.38923
      H   22    0.08223      0.00000     0.41648    0.00130     0.41777
      H   23    0.08141      0.00000     0.41720    0.00140     0.41859
      H   24    0.09348      0.00000     0.40528    0.00123     0.40652
 =======================================================================
   * Total *   -0.00000     18.99371    37.80437    0.20192    57.00000

 Normal termination of Gaussian 16 at Thu Dec 10 17:26:19 2020.
