 Gaussian 16, Revision A.03,

 -----------------------------------------------------------
 # opt freq B3LYP/6-31G(d) empiricaldispersion=gd3bj scf=xqc
 -----------------------------------------------------------

 -------------------------------
 CID_131139662_JID_3564_neutraal
 -------------------------------
 Symbolic Z-matrix:
 Charge =  0 Multiplicity = 1

 SCF Done:  E(RB3LYP) =  -592.712035328     A.U. after   14 cycles
 SCF Done:  E(RB3LYP) =  -592.718276853     A.U. after   12 cycles
 SCF Done:  E(RB3LYP) =  -592.719311295     A.U. after   11 cycles
 SCF Done:  E(RB3LYP) =  -592.719391106     A.U. after   12 cycles
 SCF Done:  E(RB3LYP) =  -592.719923367     A.U. after   10 cycles
 SCF Done:  E(RB3LYP) =  -592.720088086     A.U. after   11 cycles
 SCF Done:  E(RB3LYP) =  -592.720171406     A.U. after   11 cycles
 SCF Done:  E(RB3LYP) =  -592.720195350     A.U. after   10 cycles
 SCF Done:  E(RB3LYP) =  -592.720203910     A.U. after   10 cycles
 SCF Done:  E(RB3LYP) =  -592.720205291     A.U. after    8 cycles
 SCF Done:  E(RB3LYP) =  -592.720206493     A.U. after    9 cycles
 SCF Done:  E(RB3LYP) =  -592.720206814     A.U. after    8 cycles
 SCF Done:  E(RB3LYP) =  -592.720206860     A.U. after    7 cycles
 Optimization completed.
    -- Stationary point found.
 Normal termination of Gaussian 16 at Wed Dec  9 23:40:06 2020.

 --------------------------------------------------------------------
 #N Geom=AllCheck Guess=TCheck SCRF=Check GenChk RB3LYP/6-31G(d) Freq
 --------------------------------------------------------------------

 Structure from the checkpoint file:  "JID_3564.chk"
 -------------------------------
 CID_131139662_JID_3564_neutraal
 -------------------------------
 Charge =  0 Multiplicity = 1

 SCF Done:  E(RB3LYP) =  -592.720206860     A.U. after    1 cycles

  Exact polarizability: 138.704   3.387 105.736   3.473   1.507  94.940
 Approx polarizability: 169.876   8.375 160.838   7.280   8.887 144.959

                      1                      2                      3
                      A                      A                      A
 Frequencies --     35.0783                62.1644                92.1662
 Red. masses --      3.4777                 4.4677                 2.4816
 Frc consts  --      0.0025                 0.0102                 0.0124
 IR Inten    --      0.5993                 1.7911                 0.2714

                      4                      5                      6
                      A                      A                      A
 Frequencies --    150.0625               159.6326               199.5021
 Red. masses --      3.1787                 2.7955                 1.6808
 Frc consts  --      0.0422                 0.0420                 0.0394
 IR Inten    --      0.3371                 1.2253                 2.6351

                      7                      8                      9
                      A                      A                      A
 Frequencies --    232.8136               269.4127               284.7874
 Red. masses --      2.9630                 1.5753                 3.0210
 Frc consts  --      0.0946                 0.0674                 0.1444
 IR Inten    --      1.9293                 0.7347                 4.3699

                     10                     11                     12
                      A                      A                      A
 Frequencies --    324.4418               340.8266               380.9333
 Red. masses --      2.1053                 2.3119                 2.4416
 Frc consts  --      0.1306                 0.1582                 0.2087
 IR Inten    --      3.2861                 9.6477                 1.9153

                     13                     14                     15
                      A                      A                      A
 Frequencies --    425.6306               430.3824               481.4500
 Red. masses --      2.5874                 3.1080                 3.8840
 Frc consts  --      0.2762                 0.3392                 0.5304
 IR Inten    --      5.7677                 0.3123                 6.8491

                     16                     17                     18
                      A                      A                      A
 Frequencies --    530.4179               553.2571               592.5443
 Red. masses --      3.3175                 3.0858                 1.7200
 Frc consts  --      0.5499                 0.5565                 0.3558
 IR Inten    --      3.5872                13.7446                57.4475

                     19                     20                     21
                      A                      A                      A
 Frequencies --    613.1207               674.7897               724.0850
 Red. masses --      2.0691                 2.2726                 3.0377
 Frc consts  --      0.4583                 0.6097                 0.9384
 IR Inten    --     30.7167                 8.8657                12.8587

                     22                     23                     24
                      A                      A                      A
 Frequencies --    769.7824               791.2795               822.1184
 Red. masses --      4.6908                 1.7048                 1.1377
 Frc consts  --      1.6377                 0.6289                 0.4531
 IR Inten    --     17.6769                68.4493                 0.8844

                     25                     26                     27
                      A                      A                      A
 Frequencies --    842.2414               905.5124               910.7293
 Red. masses --      2.7546                 2.4244                 2.2776
 Frc consts  --      1.1513                 1.1713                 1.1130
 IR Inten    --      4.8605                 8.2890                 2.0377

                     28                     29                     30
                      A                      A                      A
 Frequencies --    927.9987               977.9795               985.9765
 Red. masses --      1.8513                 2.2046                 1.9384
 Frc consts  --      0.9393                 1.2423                 1.1103
 IR Inten    --      5.9951                 3.2238                 0.5428

                     31                     32                     33
                      A                      A                      A
 Frequencies --    998.7168              1045.6011              1061.9279
 Red. masses --      1.8953                 1.9107                 2.4235
 Frc consts  --      1.1138                 1.2308                 1.6102
 IR Inten    --      1.4037                11.9187                12.6935

                     34                     35                     36
                      A                      A                      A
 Frequencies --   1078.5412              1091.7735              1111.7252
 Red. masses --      2.4282                 2.3227                 2.2632
 Frc consts  --      1.6642                 1.6312                 1.6480
 IR Inten    --     39.3074                 7.8925                 1.1278

                     37                     38                     39
                      A                      A                      A
 Frequencies --   1132.6007              1147.2305              1162.5387
 Red. masses --      1.9755                 2.1130                 1.5508
 Frc consts  --      1.4931                 1.6385                 1.2349
 IR Inten    --     11.0128                 6.4269                 4.3977

                     40                     41                     42
                      A                      A                      A
 Frequencies --   1172.4082              1212.7510              1229.9658
 Red. masses --      2.0348                 2.1946                 2.2942
 Frc consts  --      1.6479                 1.9017                 2.0449
 IR Inten    --     23.5632                34.5049                14.1932

                     43                     44                     45
                      A                      A                      A
 Frequencies --   1245.2759              1268.2160              1272.2728
 Red. masses --      1.3731                 1.6234                 1.1551
 Frc consts  --      1.2546                 1.5384                 1.1016
 IR Inten    --      3.1638                20.0017                 3.0706

                     46                     47                     48
                      A                      A                      A
 Frequencies --   1281.8103              1293.4848              1326.4466
 Red. masses --      1.7774                 1.7619                 1.2414
 Frc consts  --      1.7206                 1.7368                 1.2869
 IR Inten    --     75.4627                 2.4816                 4.7567

                     49                     50                     51
                      A                      A                      A
 Frequencies --   1343.0525              1361.3924              1374.3831
 Red. masses --      1.3008                 1.5917                 1.4347
 Frc consts  --      1.3825                 1.7381                 1.5967
 IR Inten    --      0.9667               179.1007                50.6047

                     52                     53                     54
                      A                      A                      A
 Frequencies --   1405.8002              1412.1422              1422.3012
 Red. masses --      1.4865                 1.4858                 1.4829
 Frc consts  --      1.7308                 1.7457                 1.7674
 IR Inten    --     26.9290                 9.0469                 3.2153

                     55                     56                     57
                      A                      A                      A
 Frequencies --   1424.3050              1447.5158              1501.8077
 Red. masses --      1.4248                 1.3916                 1.6824
 Frc consts  --      1.7030                 1.7180                 2.2357
 IR Inten    --      0.2644                21.2815                31.1405

                     58                     59                     60
                      A                      A                      A
 Frequencies --   1506.9005              1507.6079              1520.2406
 Red. masses --      1.3273                 1.2031                 1.0607
 Frc consts  --      1.7758                 1.6111                 1.4443
 IR Inten    --      4.2270                11.4264                 6.4759

                     61                     62                     63
                      A                      A                      A
 Frequencies --   1522.2973              1529.0607              1534.0671
 Red. masses --      1.0500                 1.1353                 1.0784
 Frc consts  --      1.4337                 1.5639                 1.4952
 IR Inten    --      5.3823                 7.7725                 3.1519

                     64                     65                     66
                      A                      A                      A
 Frequencies --   1541.3602              1543.9267              1555.7477
 Red. masses --      1.0760                 1.1757                 1.1042
 Frc consts  --      1.5061                 1.6511                 1.5746
 IR Inten    --      0.8822                16.7091                 8.5458

                     67                     68                     69
                      A                      A                      A
 Frequencies --   1789.9690              2868.0636              2893.8304
 Red. masses --      8.4723                 1.0738                 1.0737
 Frc consts  --     15.9935                 5.2042                 5.2975
 IR Inten    --    271.8625                67.3619               119.6147

                     70                     71                     72
                      A                      A                      A
 Frequencies --   2961.8065              2963.8578              3032.0696
 Red. masses --      1.0730                 1.0728                 1.0640
 Frc consts  --      5.5458                 5.5526                 5.7634
 IR Inten    --     27.2497                80.0333                59.8609

                     73                     74                     75
                      A                      A                      A
 Frequencies --   3056.3589              3061.3337              3079.4602
 Red. masses --      1.0355                 1.0862                 1.0777
 Frc consts  --      5.6989                 5.9976                 6.0214
 IR Inten    --     21.7916                23.5396                28.5404

                     76                     77                     78
                      A                      A                      A
 Frequencies --   3086.1794              3089.7715              3102.7876
 Red. masses --      1.1002                 1.0680                 1.0903
 Frc consts  --      6.1742                 6.0072                 6.1842
 IR Inten    --     35.7008                48.0164                38.3667

                     79                     80                     81
                      A                      A                      A
 Frequencies --   3122.1188              3128.5055              3132.9900
 Red. masses --      1.1002                 1.0924                 1.1022
 Frc consts  --      6.3185                 6.2997                 6.3742
 IR Inten    --     37.7031                21.1164                24.2174

                     82                     83                     84
                      A                      A                      A
 Frequencies --   3138.5181              3495.2375              3590.6404
 Red. masses --      1.1067                 1.0748                 1.0760
 Frc consts  --      6.4228                 7.7360                 8.1733
 IR Inten    --     18.7800                 0.6153                20.0969

 - Thermochemistry -
 -------------------
 Temperature   298.150 Kelvin.  Pressure   1.00000 Atm.
 Atom     1 has atomic number  6 and mass  12.00000

 Molecular mass:   183.13716 amu.
 Principal axes and moments of inertia in atomic units:
                           1         2         3
     Eigenvalues --  1142.674603577.260813937.79768
           X            0.99990   0.01324  -0.00561
           Y           -0.01355   0.99816  -0.05908
           Z            0.00482   0.05915   0.99824
 This molecule is an asymmetric top.
 Rotational symmetry number  1.
 Warning -- assumption of classical behavior for rotation
           may cause significant error
 Rotational temperatures (Kelvin)      0.07580     0.02421     0.02200
 Rotational constants (GHZ):           1.57940     0.50450     0.45831
 Zero-point vibrational energy     703833.7 (Joules/Mol)
                                  168.22030 (Kcal/Mol)
 Warning -- explicit consideration of  19 degrees of freedom as
           vibrations may cause significant error
 Vibrational temperatures:     50.47    89.44   132.61   215.91   229.68
          (Kelvin)            287.04   334.97   387.62   409.75   466.80
                              490.37   548.08   612.39   619.22   692.70
                              763.15   796.01   852.54   882.14   970.87
                             1041.80  1107.55  1138.47  1182.85  1211.80
                             1302.83  1310.34  1335.18  1407.09  1418.60
                             1436.93  1504.39  1527.88  1551.78  1570.82
                             1599.52  1629.56  1650.61  1672.63  1686.83
                             1744.88  1769.65  1791.67  1824.68  1830.52
                             1844.24  1861.04  1908.46  1932.35  1958.74
                             1977.43  2022.63  2031.76  2046.37  2049.26
                             2082.65  2160.77  2168.09  2169.11  2187.29
                             2190.25  2199.98  2207.18  2217.67  2221.37
                             2238.37  2575.37  4126.50  4163.58  4261.38
                             4264.33  4362.47  4397.42  4404.58  4430.66
                             4440.32  4445.49  4464.22  4492.03  4501.22
                             4507.67  4515.63  5028.87  5166.13

 Zero-point correction=                           0.268076 (Hartree/Particle)
 Thermal correction to Energy=                    0.280409
 Thermal correction to Enthalpy=                  0.281353
 Thermal correction to Gibbs Free Energy=         0.229243
 Sum of electronic and zero-point Energies=           -592.452131
 Sum of electronic and thermal Energies=              -592.439798
 Sum of electronic and thermal Enthalpies=            -592.438854
 Sum of electronic and thermal Free Energies=         -592.490964

                     E (Thermal)             CV                S
                      KCal/Mol        Cal/Mol-Kelvin    Cal/Mol-Kelvin
 Total                  175.959             48.127            109.675
 Electronic               0.000              0.000              0.000
 Translational            0.889              2.981             41.522
 Rotational               0.889              2.981             31.154
 Vibrational            174.182             42.165             36.999
 Vibration     1          0.594              1.982              5.519
 Vibration     2          0.597              1.972              4.387
 Vibration     3          0.602              1.955              3.614
 Vibration     4          0.618              1.903              2.671
 Vibration     5          0.621              1.892              2.554
 Vibration     6          0.638              1.841              2.138
 Vibration     7          0.654              1.791              1.857
 Vibration     8          0.674              1.729              1.600
 Vibration     9          0.683              1.702              1.505
 Vibration    10          0.709              1.627              1.288
 Vibration    11          0.720              1.594              1.208
 Vibration    12          0.751              1.511              1.035
 Vibration    13          0.787              1.414              0.873
 Vibration    14          0.792              1.404              0.857
 Vibration    15          0.838              1.291              0.706
 Vibration    16          0.885              1.183              0.586
 Vibration    17          0.909              1.133              0.537
 Vibration    18          0.950              1.048              0.463
 Vibration    19          0.972              1.004              0.428

 Optimization completed.
    -- Stationary point found.
 Normal termination of Gaussian 16 at Wed Dec  9 23:47:49 2020.

 ----------------------------------------------------------------------
 # B3LYP/6-311++G(d,p) empiricaldispersion=gd3bj scf=xqc pop=npa geom=c
 heck
 ----------------------------------------------------------------------

 ---------------------------------------
 CID_131139662_JID_3564_Energie_neutraal
 ---------------------------------------
 Structure from the checkpoint file:  "JID_3564.chk"
 Charge =  0 Multiplicity = 1

 SCF Done:  E(RB3LYP) =  -592.892709069     A.U. after   15 cycles
 Normal termination of Gaussian 16 at Wed Dec  9 23:50:52 2020.

 ----------------------------------------------------------------------
 # B3LYP/6-311++G(d,p) empiricaldispersion=gd3bj scf=xqc pop=npa geom=c
 heck
 ----------------------------------------------------------------------

 -------------------------------------
 CID_131139662_JID_3564_Energie_kation
 -------------------------------------
 Structure from the checkpoint file:  "JID_3564.chk"
 Charge =  1 Multiplicity = 2

 SCF Done:  E(UB3LYP) =  -592.604971326     A.U. after   25 cycles
 Normal termination of Gaussian 16 at Wed Dec  9 23:57:42 2020.
 Gaussian 16:  ES64L-G16RevA.03 25-Dec-2016

 ----------------------------------------------------------------------
 # B3LYP/6-311++G(d,p) empiricaldispersion=gd3bj scf=xqc pop=npa geom=c
 heck
 ----------------------------------------------------------------------

 ------------------------------------
 CID_131139662_JID_3564_Energie_anion
 ------------------------------------
 Structure from the checkpoint file:  "JID_3564.chk"
 Charge = -1 Multiplicity = 2

                         Standard orientation:
 ---------------------------------------------------------------------
 Center     Atomic      Atomic             Coordinates (Angstroms)
 Number     Number       Type             X           Y           Z
 ---------------------------------------------------------------------
      1          6           0        3.907607    0.823710   -0.884043
      2          6           0        3.254863   -0.410021   -0.264227
      3          7           0        1.975722   -0.107212    0.352641
      4          6           0        1.407154   -1.191131    1.138885
      5          6           0       -0.000042   -0.677009    1.423935
      6          6           0       -0.425817   -0.086688    0.043469
      7          6           0        0.933122    0.329598   -0.584965
      8          6           0       -1.329636    1.133401    0.268789
      9          8           0       -0.878733    2.178459    0.721778
     10          7           0       -2.663925    0.979736    0.019037
     11          6           0       -3.288375   -0.143348   -0.668066
     12          6           0       -2.442045   -1.387852   -0.447664
     13          7           0       -1.078297   -1.063952   -0.845795
     14          1           0        3.310225    1.221122   -1.711538
     15          1           0        4.899340    0.575958   -1.277878
     16          1           0        4.014352    1.613312   -0.133349
     17          1           0        3.151171   -1.203089   -1.035840
     18          1           0        3.911088   -0.814978    0.516193
     19          1           0        1.999335   -1.366946    2.043847
     20          1           0        1.367008   -2.153216    0.580810
     21          1           0        0.049744    0.124490    2.165386
     22          1           0       -0.692003   -1.447602    1.776400
     23          1           0        1.020504   -0.171600   -1.565492
     24          1           0        0.985911    1.408450   -0.742499
     25          1           0       -3.197337    1.831174    0.147765
     26          1           0       -4.297211   -0.288485   -0.265569
     27          1           0       -3.370628    0.055216   -1.745604
     28          1           0       -2.538032   -1.710528    0.604842
     29          1           0       -2.812813   -2.199819   -1.080851
     30          1           0       -0.506279   -1.905085   -0.888703
 ---------------------------------------------------------------------

 SCF Done:  E(UB3LYP) =  -592.880923763     A.U. after   32 cycles

 The electronic state is 2-A.
 Alpha  occ. eigenvalues --  -18.98450 -14.23631 -14.20430 -14.20301 -10.16961
 Alpha  occ. eigenvalues --  -10.11794 -10.10424 -10.10079 -10.09467 -10.09421
 Alpha  occ. eigenvalues --  -10.09047 -10.07221 -10.06979  -0.93836  -0.84914
 Alpha  occ. eigenvalues --   -0.83389  -0.79474  -0.69601  -0.65524  -0.62987
 Alpha  occ. eigenvalues --   -0.61476  -0.55455  -0.53165  -0.51168  -0.47664
 Alpha  occ. eigenvalues --   -0.43874  -0.41330  -0.40944  -0.39566  -0.38259
 Alpha  occ. eigenvalues --   -0.37470  -0.35226  -0.34178  -0.33389  -0.32341
 Alpha  occ. eigenvalues --   -0.31926  -0.30212  -0.29286  -0.28599  -0.27405
 Alpha  occ. eigenvalues --   -0.26575  -0.26026  -0.25130  -0.24855  -0.24171
 Alpha  occ. eigenvalues --   -0.23742  -0.16182  -0.15395  -0.13345  -0.11904
 Alpha  occ. eigenvalues --    0.04360
 Alpha virt. eigenvalues --    0.06127   0.07151   0.07873   0.08690   0.09036
 Alpha virt. eigenvalues --    0.09193   0.10449   0.10704   0.10814   0.11269
 Alpha virt. eigenvalues --    0.11790   0.12075   0.12822   0.13447   0.14659

  Beta  occ. eigenvalues --  -18.98442 -14.23620 -14.20421 -14.20278 -10.16957
  Beta  occ. eigenvalues --  -10.11794 -10.10384 -10.10064 -10.09444 -10.09383
  Beta  occ. eigenvalues --  -10.09043 -10.07213 -10.06968  -0.93821  -0.84890
  Beta  occ. eigenvalues --   -0.83361  -0.79439  -0.69574  -0.65482  -0.62961
  Beta  occ. eigenvalues --   -0.61429  -0.55412  -0.53100  -0.51122  -0.47609
  Beta  occ. eigenvalues --   -0.43820  -0.41285  -0.40900  -0.39506  -0.38207
  Beta  occ. eigenvalues --   -0.37443  -0.35197  -0.34136  -0.33357  -0.32310
  Beta  occ. eigenvalues --   -0.31895  -0.30188  -0.29249  -0.28558  -0.27365
  Beta  occ. eigenvalues --   -0.26537  -0.25990  -0.25102  -0.24826  -0.24140
  Beta  occ. eigenvalues --   -0.23718  -0.16164  -0.15369  -0.13306  -0.11843
  Beta virt. eigenvalues --    0.06375   0.07356   0.07856   0.08541   0.09125
  Beta virt. eigenvalues --    0.09467   0.09855   0.10746   0.10921   0.11281
  Beta virt. eigenvalues --    0.11575   0.12097   0.12452   0.13000   0.13825

 Mulliken charges and spin densities:
               1          2
     1  C   -0.321320  -0.186923
     2  C    0.021091  -0.177155
     3  N   -0.029398   0.157272
     4  C    0.531796  -0.776795
     5  C   -0.148928  -0.170334
     6  C    0.588157  -0.715455
     7  C   -0.020937  -0.408446
     8  C   -0.682875   0.468556
     9  O   -0.337257   0.003428
    10  N   -0.413221   0.175607
    11  C    1.377800  -1.672537
    12  C    0.289173  -0.570256
    13  N   -0.115274   0.220424
    14  H    0.090537   0.057824
    15  H   -0.090034   0.219144
    16  H    0.131715   0.004104
    17  H   -0.000906   0.107654
    18  H   -0.137104   0.265296
    19  H   -0.011170   0.208200
    20  H   -0.267944   0.370770
    21  H    0.220153  -0.009892
    22  H   -0.120073   0.245628
    23  H    0.022362   0.104508
    24  H    0.290276  -0.031165
    25  H   -0.036438   0.348785
    26  H   -0.974672   1.162835
    27  H    0.055237   0.110990
    28  H    0.093479   0.034957
    29  H   -1.010898   1.188886
    30  H    0.006673   0.264091
 Sum of Mulliken charges =  -1.00000   1.00000

 Dipole moment (field-independent basis, Debye):
    X=              5.9959    Y=              2.9545    Z=              0.5343  Tot=              6.7056
 Quadrupole moment (field-independent basis, Debye-Ang):
   XX=           -158.0064   YY=           -126.8611   ZZ=           -110.1696
   XY=             -7.1178   XZ=             -4.5232   YZ=             -7.7663

 Summary of Natural Population Analysis:

                                       Natural Population
                Natural  -----------------------------------------------
    Atom  No    Charge         Core      Valence    Rydberg      Total
 -----------------------------------------------------------------------
      C    1   -0.28885      0.99967     2.28476    0.00442     3.28885
      C    2   -0.07999      0.99964     2.06888    0.01147     3.07999
      N    3   -0.28079      0.99970     2.76955    0.01154     3.78079
      C    4   -0.08418      0.99962     2.07236    0.01219     3.08418
      C    5   -0.19739      0.99958     2.18817    0.00964     3.19739
      C    6    0.02510      0.99952     1.96024    0.01514     2.97490
      C    7   -0.08280      0.99958     2.07087    0.01234     3.08280
      C    8    0.34774      0.99959     1.62847    0.02420     2.65226
      O    9   -0.32969      0.99988     3.32441    0.00540     4.32969
      N   10   -0.31343      0.99966     2.80345    0.01031     3.81343
      C   11   -0.08427      0.99961     2.07327    0.01139     3.08427
      C   12   -0.09304      0.99962     2.08103    0.01239     3.09304
      N   13   -0.34414      0.99972     2.83175    0.01267     3.84414
      H   14    0.09734      0.00000     0.40162    0.00104     0.40266
      H   15    0.09657      0.00000     0.40265    0.00078     0.40343
      H   16    0.09998      0.00000     0.39882    0.00120     0.40002
      H   17    0.07755      0.00000     0.42071    0.00174     0.42245
      H   18    0.09259      0.00000     0.40597    0.00144     0.40741
      H   19    0.09727      0.00000     0.40148    0.00125     0.40273
      H   20    0.07783      0.00000     0.42002    0.00215     0.42217
      H   21    0.10916      0.00000     0.38946    0.00139     0.39084
      H   22    0.10428      0.00000     0.39467    0.00105     0.39572
      H   23    0.08893      0.00000     0.40963    0.00145     0.41107
      H   24    0.10694      0.00000     0.39165    0.00141     0.39306
      H   25    0.19487      0.00000     0.30251    0.00262     0.30513
      H   26    0.10191      0.00000     0.39348    0.00461     0.39809
      H   27    0.09143      0.00000     0.40676    0.00181     0.40857
      H   28    0.08211      0.00000     0.41543    0.00246     0.41789
      H   29    0.10600      0.00000     0.39050    0.00350     0.39400
      H   30    0.18100      0.00000     0.31492    0.00409     0.31900
 =======================================================================
   * Total *    0.00000     12.99539    36.81749    0.18712    50.00000

 Normal termination of Gaussian 16 at Thu Dec 10 00:06:14 2020.
