 Gaussian 16, Revision A.03,

 -----------------------------------------------------------
 # opt freq B3LYP/6-31G(d) empiricaldispersion=gd3bj scf=xqc
 -----------------------------------------------------------

 ------------------------------
 CID_33700002_JID_5541_neutraal
 ------------------------------
 Symbolic Z-matrix:
 Charge =  0 Multiplicity = 1

 SCF Done:  E(RB3LYP) =  -760.673006752     A.U. after   15 cycles
 SCF Done:  E(RB3LYP) =  -760.679276652     A.U. after   14 cycles
 SCF Done:  E(RB3LYP) =  -760.678429258     A.U. after   13 cycles
 SCF Done:  E(RB3LYP) =  -760.680117852     A.U. after   12 cycles
 SCF Done:  E(RB3LYP) =  -760.680300985     A.U. after   11 cycles
 SCF Done:  E(RB3LYP) =  -760.680386127     A.U. after   11 cycles
 SCF Done:  E(RB3LYP) =  -760.680443533     A.U. after   12 cycles
 SCF Done:  E(RB3LYP) =  -760.680461404     A.U. after   11 cycles
 SCF Done:  E(RB3LYP) =  -760.680477306     A.U. after   10 cycles
 SCF Done:  E(RB3LYP) =  -760.680509397     A.U. after   12 cycles
 SCF Done:  E(RB3LYP) =  -760.680519915     A.U. after   10 cycles
 SCF Done:  E(RB3LYP) =  -760.680520881     A.U. after    9 cycles
 SCF Done:  E(RB3LYP) =  -760.680521044     A.U. after    7 cycles
 SCF Done:  E(RB3LYP) =  -760.680521133     A.U. after    7 cycles
 SCF Done:  E(RB3LYP) =  -760.680521165     A.U. after    7 cycles
 SCF Done:  E(RB3LYP) =  -760.680521184     A.U. after    7 cycles
 Optimization completed.
    -- Stationary point found.
 Normal termination of Gaussian 16 at Thu Dec 10 16:35:58 2020.

 --------------------------------------------------------------------
 #N Geom=AllCheck Guess=TCheck SCRF=Check GenChk RB3LYP/6-31G(d) Freq
 --------------------------------------------------------------------

 Structure from the checkpoint file:  "JID_5541.chk"
 ------------------------------
 CID_33700002_JID_5541_neutraal
 ------------------------------
 Charge =  0 Multiplicity = 1

 SCF Done:  E(RB3LYP) =  -760.680521184     A.U. after    1 cycles

  Exact polarizability: 150.515  -6.981 126.570  -4.658   7.376  74.963
 Approx polarizability: 203.893 -19.126 220.471 -12.155  24.365 115.764

                      1                      2                      3
                      A                      A                      A
 Frequencies --     36.8336                46.0882                51.8038
 Red. masses --      4.5324                 4.1283                 3.9974
 Frc consts  --      0.0036                 0.0052                 0.0063
 IR Inten    --      0.9391                 0.3188                 0.3978

                      4                      5                      6
                      A                      A                      A
 Frequencies --     56.4665                75.1101               128.8059
 Red. masses --      3.3294                 4.5001                 8.3112
 Frc consts  --      0.0063                 0.0150                 0.0812
 IR Inten    --      0.6392                 1.9087                 4.2883

                      7                      8                      9
                      A                      A                      A
 Frequencies --    168.7071               178.9158               204.1707
 Red. masses --      4.5474                 4.8230                 3.5967
 Frc consts  --      0.0763                 0.0910                 0.0883
 IR Inten    --      1.2402                 2.4943                 0.2686

                     10                     11                     12
                      A                      A                      A
 Frequencies --    227.5091               241.1562               308.7074
 Red. masses --      1.0694                 1.2023                 7.3664
 Frc consts  --      0.0326                 0.0412                 0.4136
 IR Inten    --      0.2816                 0.6137                 6.4856

                     13                     14                     15
                      A                      A                      A
 Frequencies --    356.7149               370.3628               382.5268
 Red. masses --      5.0319                 3.0328                 3.4606
 Frc consts  --      0.3772                 0.2451                 0.2983
 IR Inten    --      3.9715                 6.0333                 6.8246

                     16                     17                     18
                      A                      A                      A
 Frequencies --    417.1641               438.2557               470.0466
 Red. masses --      5.6349                 3.4146                 4.2401
 Frc consts  --      0.5778                 0.3864                 0.5520
 IR Inten    --     13.2483                 2.9481                16.2673

                     19                     20                     21
                      A                      A                      A
 Frequencies --    505.0071               545.8114               565.6189
 Red. masses --      5.6188                 2.8846                 5.6734
 Frc consts  --      0.8443                 0.5063                 1.0694
 IR Inten    --      4.7063                20.2706                13.1663

                     22                     23                     24
                      A                      A                      A
 Frequencies --    653.7597               666.3781               697.2309
 Red. masses --      1.6191                 4.1695                 4.2796
 Frc consts  --      0.4077                 1.0909                 1.2258
 IR Inten    --     61.2889                44.9967                 5.9950

                     25                     26                     27
                      A                      A                      A
 Frequencies --    701.5833               723.8980               755.0120
 Red. masses --      3.9536                 3.7313                10.2235
 Frc consts  --      1.1466                 1.1520                 3.4337
 IR Inten    --     26.6294                 0.1807                31.0566

                     28                     29                     30
                      A                      A                      A
 Frequencies --    782.0443               801.1043               811.0145
 Red. masses --      2.0715                 1.2620                 2.0372
 Frc consts  --      0.7465                 0.4772                 0.7895
 IR Inten    --     20.0827                18.7887                21.6976

                     31                     32                     33
                      A                      A                      A
 Frequencies --    859.5400               866.6835               962.0359
 Red. masses --      1.5846                 2.6336                 2.9025
 Frc consts  --      0.6897                 1.1655                 1.5827
 IR Inten    --     17.6396                 0.8524                 9.6852

                     34                     35                     36
                      A                      A                      A
 Frequencies --    982.9681              1034.4138              1076.6927
 Red. masses --      2.3382                 2.9109                 3.1394
 Frc consts  --      1.3311                 1.8351                 2.1443
 IR Inten    --      4.9884                 9.5739                21.4073

                     37                     38                     39
                      A                      A                      A
 Frequencies --   1105.1428              1119.1733              1128.6288
 Red. masses --      2.5098                 2.0077                 1.9896
 Frc consts  --      1.8060                 1.4816                 1.4932
 IR Inten    --     30.6385                 6.6857                11.3946

                     40                     41                     42
                      A                      A                      A
 Frequencies --   1180.9653              1202.2888              1225.8227
 Red. masses --      2.7572                 2.2279                 2.7203
 Frc consts  --      2.2656                 1.8975                 2.4084
 IR Inten    --     77.9762               162.5160                91.7143

                     43                     44                     45
                      A                      A                      A
 Frequencies --   1243.1064              1273.2064              1355.8635
 Red. masses --      2.4233                 1.9579                 1.4109
 Frc consts  --      2.2063                 1.8700                 1.5282
 IR Inten    --      4.7021                20.4789                11.8077

                     46                     47                     48
                      A                      A                      A
 Frequencies --   1362.0095              1389.6418              1392.2157
 Red. masses --      1.8603                 2.3833                 1.4106
 Frc consts  --      2.0333                 2.7117                 1.6108
 IR Inten    --     26.8175               261.9174                10.4372

                     49                     50                     51
                      A                      A                      A
 Frequencies --   1411.2477              1424.6118              1441.2069
 Red. masses --      1.3391                 1.5324                 1.4004
 Frc consts  --      1.5713                 1.8324                 1.7138
 IR Inten    --     31.8287                74.6487                25.1463

                     52                     53                     54
                      A                      A                      A
 Frequencies --   1446.1695              1496.6360              1504.1373
 Red. masses --      1.3016                 1.8717                 1.5494
 Frc consts  --      1.6039                 2.4701                 2.0653
 IR Inten    --     12.2136               116.8564               112.7813

                     55                     56                     57
                      A                      A                      A
 Frequencies --   1523.4002              1524.5045              1528.3128
 Red. masses --      1.0535                 1.0462                 1.0609
 Frc consts  --      1.4404                 1.4326                 1.4600
 IR Inten    --      4.8041                11.6146                 4.3884

                     58                     59                     60
                      A                      A                      A
 Frequencies --   1533.2309              1533.8764              1674.1304
 Red. masses --      1.0589                 1.0950                 9.3073
 Frc consts  --      1.4666                 1.5179                15.3692
 IR Inten    --     11.3587                37.4423                12.4113

                     61                     62                     63
                      A                      A                      A
 Frequencies --   1761.5188              1798.1000              1838.3186
 Red. masses --     11.0794                10.6007                10.3330
 Frc consts  --     20.2554                20.1935                20.5739
 IR Inten    --    665.7137               173.3638               229.0755

                     64                     65                     66
                      A                      A                      A
 Frequencies --   3056.7487              3062.1844              3122.0193
 Red. masses --      1.0358                 1.0346                 1.0727
 Frc consts  --      5.7020                 5.7161                 6.1603
 IR Inten    --     15.0741                19.9715                 1.5239

                     67                     68                     69
                      A                      A                      A
 Frequencies --   3122.2681              3133.4392              3137.0924
 Red. masses --      1.1013                 1.0999                 1.0870
 Frc consts  --      6.3256                 6.3625                 6.3028
 IR Inten    --     22.2976                 8.7814                37.4501

                     70                     71                     72
                      A                      A                      A
 Frequencies --   3140.3506              3155.1392              3183.3894
 Red. masses --      1.1043                 1.0633                 1.1085
 Frc consts  --      6.4167                 6.2366                 6.6188
 IR Inten    --     10.8067                26.8618                 3.1007

                     73                     74                     75
                      A                      A                      A
 Frequencies --   3202.4611              3276.5824              3677.5445
 Red. masses --      1.1070                 1.0930                 1.0640
 Frc consts  --      6.6893                 6.9138                 8.4783
 IR Inten    --      1.2327                 3.8024                87.7147

 - Thermochemistry -
 -------------------
 Temperature   298.150 Kelvin.  Pressure   1.00000 Atm.
 Atom     1 has atomic number  6 and mass  12.00000

 Molecular mass:   212.07971 amu.
 Principal axes and moments of inertia in atomic units:
                           1         2         3
     Eigenvalues --  1854.717323948.199465194.05040
           X            0.99975  -0.01895   0.01178
           Y            0.01915   0.99967  -0.01687
           Z           -0.01146   0.01709   0.99979
 This molecule is an asymmetric top.
 Rotational symmetry number  1.
 Warning -- assumption of classical behavior for rotation
           may cause significant error
 Rotational temperatures (Kelvin)      0.04670     0.02194     0.01668
 Rotational constants (GHZ):           0.97305     0.45710     0.34746
 Zero-point vibrational energy     567250.2 (Joules/Mol)
                                  135.57605 (Kcal/Mol)
 Warning -- explicit consideration of  21 degrees of freedom as
           vibrations may cause significant error
 Vibrational temperatures:     53.00    66.31    74.53    81.24   108.07
          (Kelvin)            185.32   242.73   257.42   293.76   327.33
                              346.97   444.16   513.23   532.87   550.37
                              600.21   630.55   676.29   726.59   785.30
                              813.80   940.61   958.77  1003.16  1009.42
                             1041.53  1086.29  1125.19  1152.61  1166.87
                             1236.69  1246.96  1384.16  1414.27  1488.29
                             1549.12  1590.05  1610.24  1623.85  1699.15
                             1729.83  1763.69  1788.55  1831.86  1950.79
                             1959.63  1999.38  2003.09  2030.47  2049.70
                             2073.58  2080.72  2153.33  2164.12  2191.83
                             2193.42  2198.90  2205.98  2206.91  2408.70
                             2534.43  2587.06  2644.93  4397.98  4405.80
                             4491.89  4492.25  4508.32  4513.58  4518.26
                             4539.54  4580.19  4607.63  4714.27  5291.17

 Zero-point correction=                           0.216054 (Hartree/Particle)
 Thermal correction to Energy=                    0.230751
 Thermal correction to Enthalpy=                  0.231696
 Thermal correction to Gibbs Free Energy=         0.172872
 Sum of electronic and zero-point Energies=           -760.464467
 Sum of electronic and thermal Energies=              -760.449770
 Sum of electronic and thermal Enthalpies=            -760.448826
 Sum of electronic and thermal Free Energies=         -760.507650

                     E (Thermal)             CV                S
                      KCal/Mol        Cal/Mol-Kelvin    Cal/Mol-Kelvin
 Total                  144.799             53.521            123.805
 Electronic               0.000              0.000              0.000
 Translational            0.889              2.981             41.959
 Rotational               0.889              2.981             32.009
 Vibrational            143.021             47.560             49.838
 Vibration     1          0.594              1.982              5.422
 Vibration     2          0.595              1.979              4.979
 Vibration     3          0.596              1.977              4.747
 Vibration     4          0.596              1.975              4.577
 Vibration     5          0.599              1.966              4.015
 Vibration     6          0.611              1.924              2.964
 Vibration     7          0.625              1.881              2.450
 Vibration     8          0.629              1.868              2.340
 Vibration     9          0.640              1.834              2.095
 Vibration    10          0.651              1.799              1.899
 Vibration    11          0.658              1.777              1.794
 Vibration    12          0.698              1.657              1.369
 Vibration    13          0.732              1.561              1.136
 Vibration    14          0.742              1.533              1.078
 Vibration    15          0.752              1.507              1.029
 Vibration    16          0.780              1.433              0.902
 Vibration    17          0.798              1.387              0.832
 Vibration    18          0.827              1.317              0.737
 Vibration    19          0.860              1.239              0.646
 Vibration    20          0.901              1.149              0.553
 Vibration    21          0.921              1.106              0.513

 Optimization completed.
    -- Stationary point found.
 Normal termination of Gaussian 16 at Thu Dec 10 16:45:05 2020.

 ----------------------------------------------------------------------
 # B3LYP/6-311++G(d,p) empiricaldispersion=gd3bj scf=xqc pop=npa geom=c
 heck
 ----------------------------------------------------------------------

 --------------------------------------
 CID_33700002_JID_5541_Energie_neutraal
 --------------------------------------
 Structure from the checkpoint file:  "JID_5541.chk"
 Charge =  0 Multiplicity = 1

 SCF Done:  E(RB3LYP) =  -760.906797596     A.U. after   15 cycles
 Normal termination of Gaussian 16 at Thu Dec 10 16:52:18 2020.

 ----------------------------------------------------------------------
 # B3LYP/6-311++G(d,p) empiricaldispersion=gd3bj scf=xqc pop=npa geom=c
 heck
 ----------------------------------------------------------------------

 ------------------------------------
 CID_33700002_JID_5541_Energie_kation
 ------------------------------------
 Structure from the checkpoint file:  "JID_5541.chk"
 Charge =  1 Multiplicity = 2

 SCF Done:  E(UB3LYP) =  -760.579513733     A.U. after   26 cycles
 Normal termination of Gaussian 16 at Thu Dec 10 17:08:49 2020.
 Gaussian 16:  ES64L-G16RevA.03 25-Dec-2016

 ----------------------------------------------------------------------
 # B3LYP/6-311++G(d,p) empiricaldispersion=gd3bj scf=xqc pop=npa geom=c
 heck
 ----------------------------------------------------------------------

 -----------------------------------
 CID_33700002_JID_5541_Energie_anion
 -----------------------------------
 Structure from the checkpoint file:  "JID_5541.chk"
 Charge = -1 Multiplicity = 2

                         Standard orientation:
 ---------------------------------------------------------------------
 Center     Atomic      Atomic             Coordinates (Angstroms)
 Number     Number       Type             X           Y           Z
 ---------------------------------------------------------------------
      1          6           0       -2.188345    2.066104   -1.130278
      2          6           0       -1.481584    1.851422    0.206412
      3          7           0       -0.557077    0.697357    0.159835
      4          6           0       -0.999741   -0.606808    0.048993
      5          6           0       -0.157163   -1.634435   -0.206453
      6          6           0        1.271567   -1.415071   -0.336077
      7          8           0        2.095696   -2.301382   -0.512394
      8          7           0        1.659426   -0.063011   -0.240833
      9          6           0        0.805498    1.007899   -0.009008
     10          8           0        1.209633    2.160140    0.043358
     11          6           0        3.095393    0.245982   -0.364052
     12          6           0        3.783710    0.276660    0.997923
     13          6           0       -2.442871   -0.972439    0.256913
     14          8           0       -3.021285   -1.797568   -0.411066
     15          8           0       -3.010269   -0.352168    1.316007
     16          1           0       -1.459451    2.255777   -1.924465
     17          1           0       -2.855227    2.932098   -1.062277
     18          1           0       -2.792439    1.198791   -1.419693
     19          1           0       -0.858521    2.708284    0.453245
     20          1           0       -2.191366    1.690651    1.015279
     21          1           0       -0.525409   -2.647183   -0.285613
     22          1           0        3.519530   -0.533864   -0.996059
     23          1           0        3.173761    1.210996   -0.864451
     24          1           0        3.692984   -0.694010    1.494824
     25          1           0        4.848650    0.500383    0.873185
     26          1           0        3.343070    1.049569    1.634712
     27          1           0       -3.921000   -0.699967    1.374816
 ---------------------------------------------------------------------

 SCF Done:  E(UB3LYP) =  -760.932661015     A.U. after   27 cycles

 The electronic state is 2-A.
 Alpha  occ. eigenvalues --  -19.03320 -18.96521 -18.95456 -18.93251 -14.22668
 Alpha  occ. eigenvalues --  -14.21862 -10.17593 -10.13947 -10.11442 -10.08398
 Alpha  occ. eigenvalues --  -10.08185 -10.06300 -10.05561 -10.05120 -10.00498
 Alpha  occ. eigenvalues --   -0.96971  -0.93839  -0.88921  -0.87400  -0.82882
 Alpha  occ. eigenvalues --   -0.79562  -0.66737  -0.63784  -0.62359  -0.55755
 Alpha  occ. eigenvalues --   -0.53486  -0.50672  -0.48867  -0.46699  -0.41827
 Alpha  occ. eigenvalues --   -0.38823  -0.36643  -0.35660  -0.34103  -0.33726
 Alpha  occ. eigenvalues --   -0.32214  -0.31758  -0.31461  -0.31093  -0.29799
 Alpha  occ. eigenvalues --   -0.28211  -0.27551  -0.26875  -0.26366  -0.25838
 Alpha  occ. eigenvalues --   -0.25468  -0.24863  -0.23329  -0.22940  -0.19753
 Alpha  occ. eigenvalues --   -0.18883  -0.16301  -0.13904  -0.13741  -0.11320
 Alpha  occ. eigenvalues --   -0.09330   0.03791
 Alpha virt. eigenvalues --    0.08105   0.08555   0.09366   0.10746   0.11203
 Alpha virt. eigenvalues --    0.11885   0.12337   0.13570   0.13655   0.14139
 Alpha virt. eigenvalues --    0.14152   0.14746   0.15304   0.16062   0.16526

  Beta  occ. eigenvalues --  -19.03239 -18.96527 -18.95107 -18.92992 -14.22593
  Beta  occ. eigenvalues --  -14.21743 -10.17602 -10.13643 -10.11312 -10.08400
  Beta  occ. eigenvalues --  -10.08193 -10.05925 -10.05556 -10.05105 -10.00297
  Beta  occ. eigenvalues --   -0.96615  -0.93777  -0.88529  -0.86869  -0.82642
  Beta  occ. eigenvalues --   -0.79301  -0.66511  -0.63588  -0.61921  -0.55231
  Beta  occ. eigenvalues --   -0.53277  -0.50464  -0.48718  -0.46437  -0.41401
  Beta  occ. eigenvalues --   -0.38676  -0.36307  -0.35480  -0.33671  -0.33587
  Beta  occ. eigenvalues --   -0.31990  -0.31565  -0.30954  -0.30869  -0.29138
  Beta  occ. eigenvalues --   -0.27976  -0.27402  -0.26665  -0.26230  -0.25694
  Beta  occ. eigenvalues --   -0.25214  -0.24208  -0.23037  -0.22756  -0.18729
  Beta  occ. eigenvalues --   -0.17522  -0.16203  -0.13493  -0.13000  -0.11025
  Beta  occ. eigenvalues --   -0.07663
  Beta virt. eigenvalues --    0.07975   0.08491   0.09313   0.10658   0.10692
  Beta virt. eigenvalues --    0.11162   0.11864   0.12307   0.13566   0.13717
  Beta virt. eigenvalues --    0.14089   0.14192   0.14891   0.15396   0.16365

 Mulliken charges and spin densities:
               1          2
     1  C   -0.381942  -0.016671
     2  C   -0.316908   0.013072
     3  N    0.034939   0.019701
     4  C    0.314885   0.161075
     5  C   -0.085932   0.177690
     6  C   -0.287005   0.124511
     7  O   -0.402964   0.085064
     8  N    0.011157   0.028653
     9  C   -0.042901  -0.011230
    10  O   -0.369268  -0.001244
    11  C   -0.131317   0.035412
    12  C   -0.345768  -0.051234
    13  C   -0.449473   0.204060
    14  O   -0.337971   0.116510
    15  O   -0.152873   0.006248
    16  H    0.152175   0.000826
    17  H    0.091733   0.009966
    18  H    0.183596   0.012141
    19  H    0.187563  -0.003798
    20  H    0.169232   0.021844
    21  H    0.196032  -0.007877
    22  H    0.187085  -0.000012
    23  H    0.155912   0.007329
    24  H    0.153168   0.008936
    25  H    0.088746   0.019436
    26  H    0.150669   0.005727
    27  H    0.227430   0.033866
 Sum of Mulliken charges =  -1.00000   1.00000

 Dipole moment (field-independent basis, Debye):
    X=             -0.5062    Y=              4.8139    Z=              1.4077  Tot=              5.0410
 Quadrupole moment (field-independent basis, Debye-Ang):
   XX=           -116.7654   YY=           -121.0918   ZZ=            -96.2727
   XY=             -2.8844   XZ=             -3.5444   YZ=             -5.8143

 Summary of Natural Population Analysis:

                                       Natural Population
                Natural  -----------------------------------------------
    Atom  No    Charge         Core      Valence    Rydberg      Total
 -----------------------------------------------------------------------
      C    1   -0.29069      0.99966     2.28685    0.00417     3.29069
      C    2   -0.09106      0.99962     2.08325    0.00819     3.09106
      N    3   -0.23111      0.99961     2.72086    0.01064     3.73111
      C    4    0.12802      0.99943     1.86109    0.01146     2.87198
      C    5   -0.12216      0.99949     2.11412    0.00855     3.12216
      C    6    0.34322      0.99963     1.63629    0.02086     2.65678
      O    7   -0.31069      0.99988     3.30451    0.00631     4.31069
      N    8   -0.24867      0.99961     2.73761    0.01146     3.74867
      C    9    0.41758      0.99967     1.56194    0.02082     2.58242
      O   10   -0.35276      0.99987     3.34728    0.00561     4.35276
      C   11   -0.09020      0.99964     2.08102    0.00954     3.09020
      C   12   -0.28888      0.99966     2.28547    0.00374     3.28888
      C   13    0.42499      0.99969     1.55061    0.02471     2.57501
      O   14   -0.28540      0.99987     3.27955    0.00598     4.28540
      O   15   -0.35460      0.99988     3.34769    0.00703     4.35460
      H   16    0.09854      0.00000     0.40052    0.00094     0.40146
      H   17    0.09190      0.00000     0.40667    0.00143     0.40810
      H   18    0.10369      0.00000     0.39486    0.00145     0.39631
      H   19    0.11036      0.00000     0.38846    0.00118     0.38964
      H   20    0.10463      0.00000     0.39361    0.00177     0.39537
      H   21    0.10987      0.00000     0.38919    0.00093     0.39013
      H   22    0.10755      0.00000     0.39114    0.00130     0.39245
      H   23    0.10144      0.00000     0.39747    0.00110     0.39856
      H   24    0.10233      0.00000     0.39666    0.00100     0.39767
      H   25    0.09102      0.00000     0.40814    0.00084     0.40898
      H   26    0.10006      0.00000     0.39894    0.00100     0.39994
      H   27    0.23104      0.00000     0.26407    0.00490     0.26896
 =======================================================================
   * Total *   -0.00000     14.99521    40.82787    0.17692    56.00000

 Normal termination of Gaussian 16 at Thu Dec 10 17:21:58 2020.
