 Gaussian 16, Revision A.03,

 -----------------------------------------------------------
 # opt freq B3LYP/6-31G(d) empiricaldispersion=gd3bj scf=xqc
 -----------------------------------------------------------

 -------------------------------
 CID_127006662_JID_1164_neutraal
 -------------------------------
 Symbolic Z-matrix:
 Charge =  0 Multiplicity = 1

 SCF Done:  E(RB3LYP) =  -478.143039611     A.U. after   14 cycles
 SCF Done:  E(RB3LYP) =  -478.150474209     A.U. after   13 cycles
 SCF Done:  E(RB3LYP) =  -478.152096522     A.U. after   12 cycles
 SCF Done:  E(RB3LYP) =  -478.152831842     A.U. after   12 cycles
 SCF Done:  E(RB3LYP) =  -478.152941354     A.U. after   11 cycles
 SCF Done:  E(RB3LYP) =  -478.152968733     A.U. after   10 cycles
 SCF Done:  E(RB3LYP) =  -478.152977012     A.U. after    9 cycles
 SCF Done:  E(RB3LYP) =  -478.152980438     A.U. after    9 cycles
 SCF Done:  E(RB3LYP) =  -478.152983117     A.U. after   10 cycles
 SCF Done:  E(RB3LYP) =  -478.152983537     A.U. after    8 cycles
 SCF Done:  E(RB3LYP) =  -478.152983638     A.U. after    7 cycles
 Optimization completed.
    -- Stationary point found.

 1\1\GINC-NODE106\FOpt\RB3LYP\6-31G(d)\C8H15N3\VSC10255\08-Dec-2020\0\\
 # opt freq B3LYP/6-31G(d) empiricaldispersion=gd3bj scf=xqc\\CID_12700
 6662_JID_1164_neutraal\\0,1\C,1.2484598814,-0.0890350164,-0.0718233886
 \C,0.4586590039,1.1736237802,-0.443537332\C,0.4790834148,1.40146707,-1
 .9399233388\C,-0.5824293224,1.60913298,-2.716956299\N,-0.8857165187,1.
 0882414235,0.1179962256\C,-1.5726408131,2.264795255,0.4232820917\N,-0.
 9629736846,3.3894084696,0.4854947009\C,-1.7199640094,4.5594654772,0.90
 93883518\C,-3.2311574979,4.4373248133,0.6803188023\C,-3.7175407967,3.1

 Normal termination of Gaussian 16 at Tue Dec  8 19:15:06 2020.

 --------------------------------------------------------------------
 #N Geom=AllCheck Guess=TCheck SCRF=Check GenChk RB3LYP/6-31G(d) Freq
 --------------------------------------------------------------------

 Structure from the checkpoint file:  "JID_1164.chk"
 -------------------------------
 CID_127006662_JID_1164_neutraal
 -------------------------------
 Charge =  0 Multiplicity = 1

 SCF Done:  E(RB3LYP) =  -478.152983638     A.U. after    1 cycles

  Exact polarizability: 120.637  -2.993  90.853   3.170  -0.683  93.105
 Approx polarizability: 145.808  -7.014 130.313   6.575   2.124 151.758

                      1                      2                      3
                      A                      A                      A
 Frequencies --     46.1184                53.3305               110.2932
 Red. masses --      3.3978                 3.5675                 2.2689
 Frc consts  --      0.0043                 0.0060                 0.0163
 IR Inten    --      0.1132                 2.7728                 0.5147

                      4                      5                      6
                      A                      A                      A
 Frequencies --    131.5369               149.4978               200.0912
 Red. masses --      2.7347                 3.1624                 3.3446
 Frc consts  --      0.0279                 0.0416                 0.0789
 IR Inten    --      1.0173                 4.1882                 4.3200

                      7                      8                      9
                      A                      A                      A
 Frequencies --    243.3776               275.3491               325.5348
 Red. masses --      1.0751                 2.4861                 1.9465
 Frc consts  --      0.0375                 0.1111                 0.1215
 IR Inten    --      0.0881                 1.0922                 4.8490

                     10                     11                     12
                      A                      A                      A
 Frequencies --    360.2806               379.9344               410.7427
 Red. masses --      2.8062                 2.2881                 2.5627
 Frc consts  --      0.2146                 0.1946                 0.2547
 IR Inten    --      2.9685                 0.5606                 7.0179

                     13                     14                     15
                      A                      A                      A
 Frequencies --    474.0054               511.4554               572.7461
 Red. masses --      2.3045                 2.1184                 2.0997
 Frc consts  --      0.3051                 0.3265                 0.4058
 IR Inten    --     64.0049                13.4303                10.6661

                     16                     17                     18
                      A                      A                      A
 Frequencies --    593.3700               639.1628               683.8038
 Red. masses --      2.0598                 2.1571                 1.5643
 Frc consts  --      0.4273                 0.5192                 0.4310
 IR Inten    --     40.8256               118.3268                33.8484

                     19                     20                     21
                      A                      A                      A
 Frequencies --    707.4293               765.9676               843.9036
 Red. masses --      5.4930                 2.1816                 2.0871
 Frc consts  --      1.6197                 0.7541                 0.8757
 IR Inten    --     12.3364                31.5363                 3.6440

                     22                     23                     24
                      A                      A                      A
 Frequencies --    854.2416               900.8684               912.5964
 Red. masses --      3.5101                 1.5551                 1.8166
 Frc consts  --      1.5091                 0.7436                 0.8914
 IR Inten    --      4.9015                 1.1397                 1.0783

                     25                     26                     27
                      A                      A                      A
 Frequencies --    935.0395               957.1836               982.5618
 Red. masses --      1.3572                 2.0441                 1.9426
 Frc consts  --      0.6991                 1.1034                 1.1050
 IR Inten    --     26.7703                 1.7702                 1.2120

                     28                     29                     30
                      A                      A                      A
 Frequencies --   1007.3462              1034.9875              1049.8774
 Red. masses --      2.5229                 1.1437                 1.5014
 Frc consts  --      1.5084                 0.7218                 0.9750
 IR Inten    --     10.1241                14.4181                 8.2220

                     31                     32                     33
                      A                      A                      A
 Frequencies --   1084.1465              1114.8247              1139.0107
 Red. masses --      1.7875                 2.3249                 2.1460
 Frc consts  --      1.2379                 1.7024                 1.6404
 IR Inten    --      6.2024                 8.4043                 4.6119

                     34                     35                     36
                      A                      A                      A
 Frequencies --   1143.7544              1211.0088              1221.7504
 Red. masses --      1.9822                 2.9193                 1.4677
 Frc consts  --      1.5278                 2.5225                 1.2908
 IR Inten    --      7.9478                14.4542                11.1234

                     37                     38                     39
                      A                      A                      A
 Frequencies --   1226.4112              1244.4713              1271.5898
 Red. masses --      2.0009                 1.2611                 1.9853
 Frc consts  --      1.7731                 1.1507                 1.8914
 IR Inten    --     42.0814                 0.3282               122.2297

                     40                     41                     42
                      A                      A                      A
 Frequencies --   1315.0996              1319.6894              1342.5828
 Red. masses --      1.2259                 1.2753                 1.3809
 Frc consts  --      1.2492                 1.3086                 1.4666
 IR Inten    --      7.0202                 8.7427                 7.2411

                     43                     44                     45
                      A                      A                      A
 Frequencies --   1369.1050              1375.0265              1390.5207
 Red. masses --      1.3391                 1.3596                 1.3908
 Frc consts  --      1.4789                 1.5146                 1.5845
 IR Inten    --     19.6655                17.8714                 1.7139

                     46                     47                     48
                      A                      A                      A
 Frequencies --   1414.1051              1433.5953              1469.6010
 Red. masses --      1.4946                 1.2469                 1.1937
 Frc consts  --      1.7609                 1.5098                 1.5190
 IR Inten    --    110.2269                 2.7497                 4.5477

                     49                     50                     51
                      A                      A                      A
 Frequencies --   1506.7975              1511.2751              1522.6221
 Red. masses --      1.1578                 1.1877                 1.1214
 Frc consts  --      1.5488                 1.5983                 1.5318
 IR Inten    --      9.9429                26.9000                 9.9130

                     52                     53                     54
                      A                      A                      A
 Frequencies --   1526.4466              1533.3528              1543.2724
 Red. masses --      1.0744                 1.1529                 1.2443
 Frc consts  --      1.4750                 1.5971                 1.7461
 IR Inten    --     18.3658                 7.8311                89.7598

                     55                     56                     57
                      A                      A                      A
 Frequencies --   1561.2014              1730.9432              1754.4454
 Red. masses --      1.4566                 4.6778                 6.3365
 Frc consts  --      2.0917                 8.2577                11.4916
 IR Inten    --    148.4676                36.5104               234.9075

                     58                     59                     60
                      A                      A                      A
 Frequencies --   2988.5580              2997.8036              3047.3092
 Red. masses --      1.0723                 1.0730                 1.0375
 Frc consts  --      5.6428                 5.6813                 5.6766
 IR Inten    --     34.4845               110.1424                32.1515

                     61                     62                     63
                      A                      A                      A
 Frequencies --   3050.8863              3063.1159              3080.2447
 Red. masses --      1.0714                 1.0803                 1.0901
 Frc consts  --      5.8756                 5.9723                 6.0935
 IR Inten    --      8.3961                66.9568                58.3024

                     64                     65                     66
                      A                      A                      A
 Frequencies --   3087.2262              3101.8049              3113.9893
 Red. masses --      1.0835                 1.1058                 1.0993
 Frc consts  --      6.0844                 6.2684                 6.2806
 IR Inten    --      1.3941                47.8003                26.9332

                     67                     68                     69
                      A                      A                      A
 Frequencies --   3136.7101              3144.3216              3167.8891
 Red. masses --      1.1019                 1.0834                 1.0663
 Frc consts  --      6.3878                 6.3110                 6.3050
 IR Inten    --     23.4216                36.0362                 6.2615

                     70                     71                     72
                      A                      A                      A
 Frequencies --   3242.3058              3542.9944              3559.2229
 Red. masses --      1.1159                 1.0741                 1.0751
 Frc consts  --      6.9114                 7.9440                 8.0241
 IR Inten    --     19.6808                 5.2383                 4.8922

 - Thermochemistry -
 -------------------
 Temperature   298.150 Kelvin.  Pressure   1.00000 Atm.
 Atom     1 has atomic number  6 and mass  12.00000

 Molecular mass:   153.12660 amu.
 Principal axes and moments of inertia in atomic units:
                           1         2         3
     Eigenvalues --   855.428852831.049242953.53272
           X            0.99997  -0.00768   0.00263
           Y            0.00774   0.99963  -0.02594
           Z           -0.00243   0.02596   0.99966
 This molecule is an asymmetric top.
 Rotational symmetry number  1.
 Warning -- assumption of classical behavior for rotation
           may cause significant error
 Rotational temperatures (Kelvin)      0.10125     0.03059     0.02933
 Rotational constants (GHZ):           2.10975     0.63748     0.61104
 Zero-point vibrational energy     608382.8 (Joules/Mol)
                                  145.40698 (Kcal/Mol)
 Warning -- explicit consideration of  16 degrees of freedom as
           vibrations may cause significant error
 Vibrational temperatures:     66.35    76.73   158.69   189.25   215.09
          (Kelvin)            287.89   350.17   396.17   468.37   518.36
                              546.64   590.97   681.99   735.87   824.05
                              853.73   919.61   983.84  1017.83  1102.06
                             1214.19  1229.06  1296.15  1313.02  1345.31
                             1377.17  1413.69  1449.35  1489.12  1510.54
                             1559.85  1603.98  1638.78  1645.61  1742.37
                             1757.83  1764.53  1790.52  1829.53  1892.14
                             1898.74  1931.68  1969.84  1978.36  2000.65
                             2034.58  2062.62  2114.43  2167.95  2174.39
                             2190.71  2196.22  2206.15  2220.42  2246.22
                             2490.44  2524.26  4299.87  4313.17  4384.40
                             4389.54  4407.14  4431.79  4441.83  4462.81
                             4480.34  4513.03  4523.98  4557.89  4664.95
                             5097.58  5120.93

 Zero-point correction=                           0.231721 (Hartree/Particle)
 Thermal correction to Energy=                    0.243130
 Thermal correction to Enthalpy=                  0.244074
 Thermal correction to Gibbs Free Energy=         0.194120
 Sum of electronic and zero-point Energies=           -477.921263
 Sum of electronic and thermal Energies=              -477.909854
 Sum of electronic and thermal Enthalpies=            -477.908910
 Sum of electronic and thermal Free Energies=         -477.958864

                     E (Thermal)             CV                S
                      KCal/Mol        Cal/Mol-Kelvin    Cal/Mol-Kelvin
 Total                  152.566             43.136            105.138
 Electronic               0.000              0.000              0.000
 Translational            0.889              2.981             40.988
 Rotational               0.889              2.981             30.348
 Vibrational            150.789             37.174             33.801
 Vibration     1          0.595              1.979              4.977
 Vibration     2          0.596              1.976              4.690
 Vibration     3          0.606              1.941              3.264
 Vibration     4          0.612              1.922              2.923
 Vibration     5          0.618              1.903              2.679
 Vibration     6          0.638              1.840              2.132
 Vibration     7          0.659              1.774              1.778
 Vibration     8          0.677              1.719              1.562
 Vibration     9          0.710              1.624              1.282
 Vibration    10          0.735              1.554              1.121
 Vibration    11          0.750              1.513              1.039
 Vibration    12          0.775              1.447              0.924
 Vibration    13          0.831              1.308              0.726
 Vibration    14          0.867              1.225              0.630
 Vibration    15          0.929              1.090              0.499
 Vibration    16          0.951              1.046              0.461

                           ! Non-Optimized Parameters !

 1\1\GINC-NODE106\Freq\RB3LYP\6-31G(d)\C8H15N3\VSC10255\08-Dec-2020\0\\
 #N Geom=AllCheck Guess=TCheck SCRF=Check GenChk RB3LYP/6-31G(d) Freq\\
 CID_127006662_JID_1164_neutraal\\0,1\C,1.2484598814,-0.0890350164,-0.0
 718233886\C,0.4586590039,1.1736237802,-0.443537332\C,0.4790834148,1.40
 146707,-1.9399233388\C,-0.5824293224,1.60913298,-2.716956299\N,-0.8857
 165187,1.0882414235,0.1179962256\C,-1.5726408131,2.264795255,0.4232820
 917\N,-0.9629736846,3.3894084696,0.4854947009\C,-1.7199640094,4.559465
 4772,0.9093883518\C,-3.2311574979,4.4373248133,0.6803188023\C,-3.71754

 Normal termination of Gaussian 16 at Tue Dec  8 19:20:43 2020.

 ----------------------------------------------------------------------
 # B3LYP/6-311++G(d,p) empiricaldispersion=gd3bj scf=xqc pop=npa geom=c
 heck
 ----------------------------------------------------------------------

 ---------------------------------------
 CID_127006662_JID_1164_Energie_neutraal
 ---------------------------------------
 Structure from the checkpoint file:  "JID_1164.chk"
 Charge =  0 Multiplicity = 1

 SCF Done:  E(RB3LYP) =  -478.293753637     A.U. after   14 cycles
 Normal termination of Gaussian 16 at Tue Dec  8 19:23:11 2020.

 ----------------------------------------------------------------------
 # B3LYP/6-311++G(d,p) empiricaldispersion=gd3bj scf=xqc pop=npa geom=c
 heck
 ----------------------------------------------------------------------

 -------------------------------------
 CID_127006662_JID_1164_Energie_kation
 -------------------------------------
 Structure from the checkpoint file:  "JID_1164.chk"
 Charge =  1 Multiplicity = 2

 SCF Done:  E(UB3LYP) =  -478.006895862     A.U. after   22 cycles
 Normal termination of Gaussian 16 at Tue Dec  8 19:28:45 2020.
 Gaussian 16:  ES64L-G16RevA.03 25-Dec-2016

 ------------------------------------
 CID_127006662_JID_1164_Energie_anion
 ------------------------------------
 Structure from the checkpoint file:  "JID_1164.chk"
 Charge = -1 Multiplicity = 2

                         Standard orientation:
 ---------------------------------------------------------------------
 Center     Atomic      Atomic             Coordinates (Angstroms)
 Number     Number       Type             X           Y           Z
 ---------------------------------------------------------------------
      1          6           0        3.136262   -1.266350    0.473864
      2          6           0        1.982311   -0.254465    0.446471
      3          6           0        2.458209    1.092774   -0.053499
      4          6           0        1.904284    1.807725   -1.031112
      5          7           0        0.871211   -0.805880   -0.322524
      6          6           0       -0.429939   -0.389748   -0.034106
      7          7           0       -0.698709    0.237695    1.049590
      8          6           0       -2.092207    0.551444    1.335031
      9          6           0       -2.982257    0.613937    0.088034
     10          6           0       -2.754414   -0.638699   -0.753508
     11          7           0       -1.326782   -0.735268   -1.053857
     12          1           0        3.513882   -1.455793   -0.538565
     13          1           0        2.798443   -2.215343    0.900218
     14          1           0        3.971045   -0.888339    1.074326
     15          1           0        1.595140   -0.120416    1.461972
     16          1           0        3.343188    1.478853    0.454035
     17          1           0        2.314747    2.766686   -1.333836
     18          1           0        1.009285    1.476787   -1.551405
     19          1           0        1.062316   -0.833909   -1.319259
     20          1           0       -2.122964    1.513137    1.862069
     21          1           0       -2.496440   -0.193074    2.039635
     22          1           0       -2.719060    1.495980   -0.508227
     23          1           0       -4.040096    0.697782    0.361928
     24          1           0       -3.113290   -1.523594   -0.202744
     25          1           0       -3.306435   -0.589867   -1.698654
     26          1           0       -1.063296   -1.584434   -1.541014
 ---------------------------------------------------------------------

 SCF Done:  E(UB3LYP) =  -478.278416626     A.U. after   31 cycles

 The electronic state is 2-A.
 Alpha  occ. eigenvalues --  -14.21154 -14.21151 -14.15807 -10.15021 -10.10483
 Alpha  occ. eigenvalues --  -10.09097 -10.08160 -10.07469 -10.06399 -10.06265
 Alpha  occ. eigenvalues --  -10.06084  -0.87623  -0.79870  -0.75873  -0.69176
 Alpha  occ. eigenvalues --   -0.65624  -0.63027  -0.56600  -0.53492  -0.51235
 Alpha  occ. eigenvalues --   -0.45806  -0.44387  -0.42240  -0.38206  -0.37592
 Alpha  occ. eigenvalues --   -0.37162  -0.34413  -0.33242  -0.31879  -0.31396
 Alpha  occ. eigenvalues --   -0.29266  -0.28830  -0.28351  -0.26752  -0.26068
 Alpha  occ. eigenvalues --   -0.24763  -0.24111  -0.22609  -0.16581  -0.14342
 Alpha  occ. eigenvalues --   -0.13340  -0.11070   0.04686
 Alpha virt. eigenvalues --    0.06583   0.07614   0.07907   0.09122   0.09188
 Alpha virt. eigenvalues --    0.09642   0.10031   0.10735   0.11430   0.11815
 Alpha virt. eigenvalues --    0.12006   0.12308   0.12856   0.14126   0.15040

  Beta  occ. eigenvalues --  -14.21124 -14.21119 -14.15803 -10.15021 -10.10480
  Beta  occ. eigenvalues --  -10.09058 -10.08151 -10.07465 -10.06376 -10.06241
  Beta  occ. eigenvalues --  -10.06068  -0.87589  -0.79830  -0.75836  -0.69149
  Beta  occ. eigenvalues --   -0.65582  -0.62993  -0.56541  -0.53445  -0.51178
  Beta  occ. eigenvalues --   -0.45757  -0.44330  -0.42158  -0.38160  -0.37562
  Beta  occ. eigenvalues --   -0.37125  -0.34376  -0.33200  -0.31845  -0.31361
  Beta  occ. eigenvalues --   -0.29233  -0.28793  -0.28305  -0.26722  -0.26030
  Beta  occ. eigenvalues --   -0.24737  -0.24071  -0.22574  -0.16544  -0.14306
  Beta  occ. eigenvalues --   -0.13312  -0.11046
  Beta virt. eigenvalues --    0.06828   0.07585   0.08149   0.08689   0.09439
  Beta virt. eigenvalues --    0.09758   0.09979   0.10464   0.11033   0.11786
  Beta virt. eigenvalues --    0.12244   0.12480   0.12649   0.13053   0.14293

 Mulliken charges and spin densities:
               1          2
     1  C    0.309656  -0.845599
     2  C    0.081105  -0.533785
     3  C   -0.412837   0.804225
     4  C    0.670172  -1.299280
     5  N   -0.081105   0.176257
     6  C    0.404229  -0.615290
     7  N   -0.169811   0.045164
     8  C    0.708121  -1.042899
     9  C   -0.600175   0.369017
    10  C    1.104717  -1.406211
    11  N   -0.644260   0.520340
    12  H   -0.115074   0.243319
    13  H   -0.090936   0.255879
    14  H   -0.119775   0.254499
    15  H    0.263905  -0.098884
    16  H   -0.234932   0.403718
    17  H   -0.207028   0.333338
    18  H   -0.069668   0.222574
    19  H    0.028226   0.203788
    20  H    0.009387   0.142956
    21  H    0.014159   0.124373
    22  H    0.223683  -0.095663
    23  H   -0.381318   0.542748
    24  H   -0.166494   0.319096
    25  H   -0.977663   1.158549
    26  H   -0.546284   0.817771
 Sum of Mulliken charges =  -1.00000   1.00000

 Dipole moment (field-independent basis, Debye):
    X=              2.9684    Y=              2.5508    Z=              3.3805  Tot=              5.1716
 Quadrupole moment (field-independent basis, Debye-Ang):
   XX=           -133.6049   YY=           -104.8202   ZZ=           -106.0222
   XY=             -6.4652   XZ=             -6.4007   YZ=             -6.1148

 Summary of Natural Population Analysis:

                                       Natural Population
                Natural  -----------------------------------------------
    Atom  No    Charge         Core      Valence    Rydberg      Total
 -----------------------------------------------------------------------
      C    1   -0.27939      0.99965     2.27509    0.00466     3.27939
      C    2   -0.03839      0.99957     2.02436    0.01446     3.03839
      C    3   -0.08654      0.99955     2.07591    0.01108     3.08654
      C    4   -0.19182      0.99956     2.18555    0.00672     3.19182
      N    5   -0.32822      0.99967     2.81527    0.01328     3.82822
      C    6    0.31418      0.99958     1.66834    0.01790     2.68582
      N    7   -0.31000      0.99964     2.80065    0.00972     3.81000
      C    8   -0.08915      0.99961     2.07933    0.01020     3.08915
      C    9   -0.20366      0.99963     2.19546    0.00857     3.20366
      C   10   -0.08284      0.99962     2.07096    0.01226     3.08284
      N   11   -0.33621      0.99968     2.82398    0.01255     3.83621
      H   12    0.09743      0.00000     0.40127    0.00130     0.40257
      H   13    0.10325      0.00000     0.39552    0.00123     0.39675
      H   14    0.09614      0.00000     0.40281    0.00106     0.40386
      H   15    0.11846      0.00000     0.37926    0.00228     0.38154
      H   16    0.09212      0.00000     0.40680    0.00108     0.40788
      H   17    0.09257      0.00000     0.40637    0.00107     0.40743
      H   18    0.09561      0.00000     0.40273    0.00166     0.40439
      H   19    0.18583      0.00000     0.31026    0.00391     0.31417
      H   20    0.08938      0.00000     0.40915    0.00148     0.41062
      H   21    0.08581      0.00000     0.41264    0.00155     0.41419
      H   22    0.09674      0.00000     0.40185    0.00141     0.40326
      H   23    0.10161      0.00000     0.39705    0.00134     0.39839
      H   24    0.08418      0.00000     0.41321    0.00260     0.41582
      H   25    0.09924      0.00000     0.39723    0.00353     0.40076
      H   26    0.19368      0.00000     0.29801    0.00831     0.30632
 =======================================================================
   * Total *   -0.00000     10.99576    30.84904    0.15520    42.00000

 Normal termination of Gaussian 16 at Tue Dec  8 19:36:30 2020.
