 Gaussian 16, Revision A.03,

 -----------------------------------------------------------
 # opt freq B3LYP/6-31G(d) empiricaldispersion=gd3bj scf=xqc
 -----------------------------------------------------------

 -------------------------------
 CID_124214847_JID_9284_neutraal
 -------------------------------
 Symbolic Z-matrix:
 Charge =  0 Multiplicity = 1

 SCF Done:  E(RB3LYP) =  -803.903536933     A.U. after   14 cycles
 SCF Done:  E(RB3LYP) =  -803.898535010     A.U. after   13 cycles
 SCF Done:  E(RB3LYP) =  -803.908623798     A.U. after   12 cycles
 SCF Done:  E(RB3LYP) =  -803.909434772     A.U. after   14 cycles
 SCF Done:  E(RB3LYP) =  -803.908835541     A.U. after   13 cycles
 SCF Done:  E(RB3LYP) =  -803.910325697     A.U. after   11 cycles
 SCF Done:  E(RB3LYP) =  -803.910728455     A.U. after   12 cycles
 SCF Done:  E(RB3LYP) =  -803.911190413     A.U. after   14 cycles
 SCF Done:  E(RB3LYP) =  -803.911409041     A.U. after   12 cycles
 SCF Done:  E(RB3LYP) =  -803.911486261     A.U. after   11 cycles
 SCF Done:  E(RB3LYP) =  -803.912253382     A.U. after   11 cycles
 SCF Done:  E(RB3LYP) =  -803.912305946     A.U. after   10 cycles
 SCF Done:  E(RB3LYP) =  -803.912311827     A.U. after    9 cycles
 SCF Done:  E(RB3LYP) =  -803.912312306     A.U. after    9 cycles
 SCF Done:  E(RB3LYP) =  -803.912312351     A.U. after    7 cycles
 Optimization completed.
    -- Stationary point found.
 Normal termination of Gaussian 16 at Sun Dec 13 13:42:50 2020.

 --------------------------------------------------------------------
 #N Geom=AllCheck Guess=TCheck SCRF=Check GenChk RB3LYP/6-31G(d) Freq
 --------------------------------------------------------------------

 Structure from the checkpoint file:  "JID_9284.chk"
 -------------------------------
 CID_124214847_JID_9284_neutraal
 -------------------------------
 Charge =  0 Multiplicity = 1

 SCF Done:  E(RB3LYP) =  -803.912312351     A.U. after    1 cycles

  Exact polarizability: 198.738 -10.117 185.192 -16.522   9.567 145.297
 Approx polarizability: 275.815 -19.238 276.795 -28.889  21.823 237.418

                      1                      2                      3
                      A                      A                      A
 Frequencies --     22.0726                33.9882                43.3728
 Red. masses --      4.6129                 1.0388                 3.7001
 Frc consts  --      0.0013                 0.0007                 0.0041
 IR Inten    --      0.7013                 0.1149                 0.5646

                      4                      5                      6
                      A                      A                      A
 Frequencies --     55.0047                81.7728                83.3361
 Red. masses --      3.6958                 3.2732                 3.3393
 Frc consts  --      0.0066                 0.0129                 0.0137
 IR Inten    --      0.2323                 0.2001                 2.3336

                      7                      8                      9
                      A                      A                      A
 Frequencies --     98.7234               109.9061               115.3917
 Red. masses --      1.7629                 3.6981                 1.8095
 Frc consts  --      0.0101                 0.0263                 0.0142
 IR Inten    --      1.3418                 0.2607                 0.4684

                     10                     11                     12
                      A                      A                      A
 Frequencies --    183.0553               205.4009               211.6530
 Red. masses --      3.2394                 3.3277                 3.2487
 Frc consts  --      0.0640                 0.0827                 0.0857
 IR Inten    --      1.6140                 2.3337                 0.1274

                     13                     14                     15
                      A                      A                      A
 Frequencies --    217.3413               237.0087               245.9993
 Red. masses --      1.3016                 3.1303                 1.7492
 Frc consts  --      0.0362                 0.1036                 0.0624
 IR Inten    --      0.2051                 2.7324                 1.2161

                     16                     17                     18
                      A                      A                      A
 Frequencies --    261.9481               275.2490               317.2822
 Red. masses --      1.5606                 2.3550                 2.6838
 Frc consts  --      0.0631                 0.1051                 0.1592
 IR Inten    --      0.5099                 0.2792                 0.4263

                     19                     20                     21
                      A                      A                      A
 Frequencies --    324.9708               347.7376               373.7825
 Red. masses --      2.9254                 4.0785                 2.7243
 Frc consts  --      0.1820                 0.2906                 0.2243
 IR Inten    --      3.9964                 2.6247                 3.7909

                     22                     23                     24
                      A                      A                      A
 Frequencies --    401.2518               472.0086               513.6044
 Red. masses --      1.9303                 2.3952                 3.0129
 Frc consts  --      0.1831                 0.3144                 0.4683
 IR Inten    --      2.5250                 2.3430                14.6890

                     25                     26                     27
                      A                      A                      A
 Frequencies --    524.3155               530.8384               547.4289
 Red. masses --      4.9614                 2.8761                 3.5824
 Frc consts  --      0.8036                 0.4775                 0.6325
 IR Inten    --      2.9395                 5.7216                 4.3330

                     28                     29                     30
                      A                      A                      A
 Frequencies --    565.7465               583.9348               639.8787
 Red. masses --      3.9942                 3.7847                 3.9606
 Frc consts  --      0.7532                 0.7603                 0.9554
 IR Inten    --      1.2302                 0.5458                 7.4723

                     31                     32                     33
                      A                      A                      A
 Frequencies --    669.1878               698.8459               755.8493
 Red. masses --      6.4316                 3.9672                 3.5639
 Frc consts  --      1.6969                 1.1416                 1.1996
 IR Inten    --      2.5052                 1.2907                 1.9521

                     34                     35                     36
                      A                      A                      A
 Frequencies --    764.7148               773.6597               791.3573
 Red. masses --      3.9324                 1.1717                 3.0578
 Frc consts  --      1.3549                 0.4132                 1.1282
 IR Inten    --      4.8213                43.3025                 3.7371

                     37                     38                     39
                      A                      A                      A
 Frequencies --    861.9832               871.4016               897.2724
 Red. masses --      1.2730                 1.2829                 1.2949
 Frc consts  --      0.5573                 0.5740                 0.6143
 IR Inten    --      0.3638                15.9503                16.3334

                     40                     41                     42
                      A                      A                      A
 Frequencies --    903.7908               909.6207               930.2577
 Red. masses --      1.4810                 1.4359                 1.7983
 Frc consts  --      0.7127                 0.7000                 0.9169
 IR Inten    --      4.7395                 4.5381                 1.4545

                     43                     44                     45
                      A                      A                      A
 Frequencies --    946.2762               947.3143               972.4891
 Red. masses --      3.0576                 4.6971                 2.4196
 Frc consts  --      1.6131                 2.4835                 1.3482
 IR Inten    --      8.3778                 4.6367                 2.0921

                     46                     47                     48
                      A                      A                      A
 Frequencies --    990.5899              1016.7992              1022.9532
 Red. masses --      2.6890                 4.2619                 2.6873
 Frc consts  --      1.5546                 2.5961                 1.6568
 IR Inten    --      7.0092                 0.3858                11.7074

                     49                     50                     51
                      A                      A                      A
 Frequencies --   1030.2687              1045.7805              1062.1058
 Red. masses --      2.1654                 1.4886                 1.9363
 Frc consts  --      1.3542                 0.9592                 1.2870
 IR Inten    --     11.5324                 1.8011                 2.0758

                     52                     53                     54
                      A                      A                      A
 Frequencies --   1072.9971              1074.5893              1077.4407
 Red. masses --      1.7500                 1.6445                 1.5546
 Frc consts  --      1.1871                 1.1188                 1.0633
 IR Inten    --      0.8393                24.7152                 1.3363

                     55                     56                     57
                      A                      A                      A
 Frequencies --   1095.3011              1103.5748              1123.3213
 Red. masses --      1.9013                 2.4511                 1.7169
 Frc consts  --      1.3439                 1.7588                 1.2764
 IR Inten    --     15.3152                18.2154                34.7126

                     58                     59                     60
                      A                      A                      A
 Frequencies --   1157.0516              1166.3508              1183.6163
 Red. masses --      1.5235                 1.8690                 1.6533
 Frc consts  --      1.2017                 1.4981                 1.3647
 IR Inten    --      6.3614                21.4888                18.3226

                     61                     62                     63
                      A                      A                      A
 Frequencies --   1192.7967              1216.7542              1248.6076
 Red. masses --      1.4083                 1.9557                 1.5214
 Frc consts  --      1.1805                 1.7059                 1.3975
 IR Inten    --      0.0562                16.8072                 9.7765

                     64                     65                     66
                      A                      A                      A
 Frequencies --   1252.5129              1284.4479              1298.2371
 Red. masses --      1.6447                 2.9101                 2.6972
 Frc consts  --      1.5202                 2.8288                 2.6784
 IR Inten    --     22.6932                19.2848                 7.5830

                     67                     68                     69
                      A                      A                      A
 Frequencies --   1329.4280              1329.5182              1345.2119
 Red. masses --      1.7012                 1.9502                 1.9048
 Frc consts  --      1.7715                 2.0310                 2.0309
 IR Inten    --      2.9603                 6.3660                14.5081

                     70                     71                     72
                      A                      A                      A
 Frequencies --   1355.7745              1396.1931              1409.0634
 Red. masses --      3.1576                 2.1200                 1.4787
 Frc consts  --      3.4196                 2.4349                 1.7298
 IR Inten    --      3.5287                 7.4895                11.4690

                     73                     74                     75
                      A                      A                      A
 Frequencies --   1419.3087              1430.0011              1438.8678
 Red. masses --      1.4006                 1.2890                 1.2386
 Frc consts  --      1.6623                 1.5530                 1.5109
 IR Inten    --      5.8115                21.7255                 5.0023

                     76                     77                     78
                      A                      A                      A
 Frequencies --   1443.8198              1444.2012              1448.4422
 Red. masses --      1.4007                 1.9604                 1.9332
 Frc consts  --      1.7203                 2.4090                 2.3897
 IR Inten    --      7.2297                26.7677                27.2629

                     79                     80                     81
                      A                      A                      A
 Frequencies --   1460.6978              1485.3401              1488.2630
 Red. masses --      2.5302                 2.2112                 2.4163
 Frc consts  --      3.1808                 2.8743                 3.1533
 IR Inten    --      9.4005                 2.7363                 2.9943

                     82                     83                     84
                      A                      A                      A
 Frequencies --   1496.6873              1507.0923              1512.2724
 Red. masses --      1.3687                 1.0467                 1.1914
 Frc consts  --      1.8065                 1.4007                 1.6054
 IR Inten    --      4.7582                 3.7392                 1.2961

                     85                     86                     87
                      A                      A                      A
 Frequencies --   1516.3916              1517.1008              1519.5566
 Red. masses --      1.0708                 1.0750                 1.1607
 Frc consts  --      1.4507                 1.4577                 1.5791
 IR Inten    --     11.8155                 6.5584                25.3447

                     88                     89                     90
                      A                      A                      A
 Frequencies --   1520.3515              1528.2329              1530.1365
 Red. masses --      1.0565                 1.0609                 1.2299
 Frc consts  --      1.4388                 1.4598                 1.6966
 IR Inten    --      7.6300                 0.6633                22.1708

                     91                     92                     93
                      A                      A                      A
 Frequencies --   1538.7219              1541.0659              1569.8850
 Red. masses --      1.0572                 1.0715                 3.8320
 Frc consts  --      1.4748                 1.4992                 5.5644
 IR Inten    --      2.7537                 1.9270                11.4877

                     94                     95                     96
                      A                      A                      A
 Frequencies --   1624.9205              1663.4380              2938.6233
 Red. masses --      6.7987                 5.4789                 1.0621
 Frc consts  --     10.5765                 8.9322                 5.4041
 IR Inten    --     55.4558                93.4876                93.2517

                     97                     98                     99
                      A                      A                      A
 Frequencies --   2961.7566              3048.5937              3055.4562
 Red. masses --      1.0720                 1.0394                 1.0367
 Frc consts  --      5.5403                 5.6918                 5.7021
 IR Inten    --     88.2991                21.1029                13.0424

                    100                    101                    102
                      A                      A                      A
 Frequencies --   3056.4520              3069.6109              3072.7813
 Red. masses --      1.0353                 1.0853                 1.0866
 Frc consts  --      5.6982                 6.0253                 6.0448
 IR Inten    --     20.3685                11.1481                 5.0879

                    103                    104                    105
                      A                      A                      A
 Frequencies --   3082.6551              3107.4601              3109.8752
 Red. masses --      1.0715                 1.0967                 1.0608
 Frc consts  --      5.9995                 6.2395                 6.0444
 IR Inten    --     39.2842                13.7954                19.0339

                    106                    107                    108
                      A                      A                      A
 Frequencies --   3116.3102              3122.9957              3128.2548
 Red. masses --      1.1001                 1.1016                 1.1024
 Frc consts  --      6.2945                 6.3299                 6.3564
 IR Inten    --      9.5172                21.3531                13.3949

                    109                    110                    111
                      A                      A                      A
 Frequencies --   3130.6271              3134.1913              3140.6631
 Red. masses --      1.1019                 1.1031                 1.1032
 Frc consts  --      6.3630                 6.3842                 6.4113
 IR Inten    --     47.7919                13.2723                16.0379

                    112                    113                    114
                      A                      A                      A
 Frequencies --   3162.3809              3189.7729              3192.8823
 Red. masses --      1.1050                 1.0905                 1.0912
 Frc consts  --      6.5108                 6.5374                 6.5543
 IR Inten    --     16.9081                14.0410                12.7090

                    115                    116                    117
                      A                      A                      A
 Frequencies --   3248.6794              3271.7205              3288.8353
 Red. masses --      1.0925                 1.0953                 1.1051
 Frc consts  --      6.7937                 6.9079                 7.0427
 IR Inten    --     15.8065                 4.3499                36.9687

 - Thermochemistry -
 -------------------
 Temperature   298.150 Kelvin.  Pressure   1.00000 Atm.
 Atom     1 has atomic number  6 and mass  12.00000

 Molecular mass:   258.18445 amu.
 Principal axes and moments of inertia in atomic units:
                           1         2         3
     Eigenvalues --  3560.206266120.134107627.48912
           X            0.99964   0.01681  -0.02104
           Y           -0.01653   0.99977   0.01381
           Z            0.02127  -0.01346   0.99968
 This molecule is an asymmetric top.
 Rotational symmetry number  1.
 Warning -- assumption of classical behavior for rotation
           may cause significant error
 Rotational temperatures (Kelvin)      0.02433     0.01415     0.01136
 Rotational constants (GHZ):           0.50692     0.29489     0.23661
 Zero-point vibrational energy     935926.5 (Joules/Mol)
                                  223.69179 (Kcal/Mol)
 Warning -- explicit consideration of  29 degrees of freedom as
           vibrations may cause significant error
 Vibrational temperatures:     31.76    48.90    62.40    79.14   117.65
          (Kelvin)            119.90   142.04   158.13   166.02   263.38
                              295.53   304.52   312.71   341.00   353.94
                              376.88   396.02   456.50   467.56   500.32
                              537.79   577.31   679.12   738.96   754.37
                              763.76   787.63   813.98   840.15   920.64
                              962.81  1005.48  1087.50  1100.25  1113.12
                             1138.59  1240.20  1253.75  1290.97  1300.35
                             1308.74  1338.43  1361.48  1362.97  1399.19
                             1425.24  1462.95  1471.80  1482.33  1504.64
                             1528.13  1543.80  1546.09  1550.20  1575.89
                             1587.80  1616.21  1664.74  1678.12  1702.96
                             1716.17  1750.64  1796.47  1802.09  1848.03
                             1867.87  1912.75  1912.88  1935.46  1950.66
                             2008.81  2027.33  2042.07  2057.45  2070.21
                             2077.33  2077.88  2083.99  2101.62  2137.07
                             2141.28  2153.40  2168.37  2175.82  2181.75
                             2182.77  2186.30  2187.45  2198.79  2201.53
                             2213.88  2217.25  2258.71  2337.90  2393.32
                             4228.02  4261.31  4386.25  4396.12  4397.55
                             4416.49  4421.05  4435.25  4470.94  4474.42
                             4483.68  4493.29  4500.86  4504.27  4509.40
                             4518.71  4549.96  4589.37  4593.85  4674.13
                             4707.28  4731.90

 Zero-point correction=                           0.356476 (Hartree/Particle)
 Thermal correction to Energy=                    0.375631
 Thermal correction to Enthalpy=                  0.376575
 Thermal correction to Gibbs Free Energy=         0.307574
 Sum of electronic and zero-point Energies=           -803.555837
 Sum of electronic and thermal Energies=              -803.536681
 Sum of electronic and thermal Enthalpies=            -803.535737
 Sum of electronic and thermal Free Energies=         -803.604738

                     E (Thermal)             CV                S
                      KCal/Mol        Cal/Mol-Kelvin    Cal/Mol-Kelvin
 Total                  235.712             71.842            145.226
 Electronic               0.000              0.000              0.000
 Translational            0.889              2.981             42.545
 Rotational               0.889              2.981             33.474
 Vibrational            233.935             65.881             69.206
 Vibration     1          0.593              1.985              6.438
 Vibration     2          0.594              1.983              5.582
 Vibration     3          0.595              1.980              5.099
 Vibration     4          0.596              1.976              4.629
 Vibration     5          0.600              1.962              3.848
 Vibration     6          0.600              1.961              3.811
 Vibration     7          0.604              1.950              3.479
 Vibration     8          0.606              1.941              3.271
 Vibration     9          0.608              1.937              3.176
 Vibration    10          0.631              1.863              2.297
 Vibration    11          0.640              1.832              2.084
 Vibration    12          0.643              1.823              2.029
 Vibration    13          0.646              1.815              1.981
 Vibration    14          0.656              1.784              1.825
 Vibration    15          0.660              1.769              1.759
 Vibration    16          0.669              1.742              1.649
 Vibration    17          0.677              1.719              1.563
 Vibration    18          0.704              1.641              1.324
 Vibration    19          0.709              1.626              1.285
 Vibration    20          0.725              1.580              1.176
 Vibration    21          0.745              1.526              1.064
 Vibration    22          0.767              1.467              0.958
 Vibration    23          0.829              1.312              0.732
 Vibration    24          0.869              1.220              0.625
 Vibration    25          0.879              1.196              0.600
 Vibration    26          0.886              1.182              0.585
 Vibration    27          0.903              1.145              0.550
 Vibration    28          0.922              1.105              0.512
 Vibration    29          0.941              1.066              0.478

                           ! Non-Optimized Parameters !
 Normal termination of Gaussian 16 at Sun Dec 13 14:08:13 2020.

 ----------------------------------------------------------------------
 # B3LYP/6-311++G(d,p) empiricaldispersion=gd3bj scf=xqc pop=npa geom=c
 heck
 ----------------------------------------------------------------------

 ---------------------------------------
 CID_124214847_JID_9284_Energie_neutraal
 ---------------------------------------
 Structure from the checkpoint file:  "JID_9284.chk"
 Charge =  0 Multiplicity = 1

 SCF Done:  E(RB3LYP) =  -804.122893310     A.U. after   14 cycles
 Normal termination of Gaussian 16 at Sun Dec 13 14:18:55 2020.

 ----------------------------------------------------------------------
 # B3LYP/6-311++G(d,p) empiricaldispersion=gd3bj scf=xqc pop=npa geom=c
 heck
 ----------------------------------------------------------------------

 -------------------------------------
 CID_124214847_JID_9284_Energie_kation
 -------------------------------------
 Structure from the checkpoint file:  "JID_9284.chk"
 Charge =  1 Multiplicity = 2

 SCF Done:  E(UB3LYP) =  -803.846047277     A.U. after   23 cycles
 Normal termination of Gaussian 16 at Sun Dec 13 14:43:09 2020.
 Gaussian 16:  ES64L-G16RevA.03 25-Dec-2016

 ----------------------------------------------------------------------
 # B3LYP/6-311++G(d,p) empiricaldispersion=gd3bj scf=xqc pop=npa geom=c
 heck
 ----------------------------------------------------------------------

 ------------------------------------
 CID_124214847_JID_9284_Energie_anion
 ------------------------------------
 Structure from the checkpoint file:  "JID_9284.chk"
 Charge = -1 Multiplicity = 2

                         Standard orientation:
 ---------------------------------------------------------------------
 Center     Atomic      Atomic             Coordinates (Angstroms)
 Number     Number       Type             X           Y           Z
 ---------------------------------------------------------------------
      1          6           0       -4.477755    0.089151    1.405552
      2          6           0       -3.275605   -0.176686    0.537353
      3          6           0       -2.895300   -1.475039    0.194947
      4          6           0       -1.794402   -1.681223   -0.644545
      5          7           0       -1.071163   -0.663549   -1.133450
      6          6           0       -1.404216    0.588036   -0.784671
      7          6           0       -2.499885    0.871407    0.030829
      8          6           0       -0.521125    1.693625   -1.325768
      9          7           0        0.881240    1.587198   -0.926665
     10          6           0        1.727891    2.428200   -1.760839
     11          6           0        1.181388    1.731478    0.509396
     12          6           0        0.395353    2.832291    1.239217
     13          6           0        1.059528    0.389295    1.255954
     14          7           0        2.023310   -0.590043    0.793001
     15          6           0        2.021563   -1.284794   -0.376772
     16          6           0        3.193818   -2.020450   -0.396724
     17          6           0        3.846000   -1.686870    0.810800
     18          7           0        3.139834   -0.814905    1.531816
     19          6           0       -1.338510   -3.064599   -1.028503
     20          1           0       -4.717409   -0.775021    2.032528
     21          1           0       -4.315933    0.954439    2.056592
     22          1           0       -5.360060    0.305255    0.789538
     23          1           0       -3.451149   -2.326887    0.576865
     24          1           0       -2.739743    1.901748    0.278818
     25          1           0       -0.538013    1.618021   -2.418998
     26          1           0       -0.967282    2.671747   -1.070304
     27          1           0        1.545876    3.513734   -1.638973
     28          1           0        2.778564    2.229443   -1.530426
     29          1           0        1.562027    2.179229   -2.814333
     30          1           0        2.244056    1.991233    0.561031
     31          1           0       -0.657248    2.561421    1.371019
     32          1           0        0.820971    3.003955    2.233558
     33          1           0        0.438148    3.778111    0.688574
     34          1           0        1.278378    0.543573    2.314772
     35          1           0        0.052843   -0.022424    1.170943
     36          1           0        1.204143   -1.174903   -1.073664
     37          1           0        3.525696   -2.697382   -1.170785
     38          1           0        4.794004   -2.046573    1.189923
     39          1           0       -0.335362   -3.252690   -0.627923
     40          1           0       -2.015935   -3.835776   -0.651136
     41          1           0       -1.271573   -3.154102   -2.117886
 ---------------------------------------------------------------------

 SCF Done:  E(UB3LYP) =  -804.114434910     A.U. after   33 cycles
 SCF Done:  E(UB3LYP) =  -804.114434909     a.u. after    1 cycles

 The electronic state is 2-A.
 Alpha  occ. eigenvalues --  -14.28211 -14.22523 -14.20370 -14.17639 -10.10550
 Alpha  occ. eigenvalues --  -10.10318 -10.09692 -10.09316 -10.09121 -10.08987
 Alpha  occ. eigenvalues --  -10.08973 -10.08901 -10.06949 -10.06362 -10.06357
 Alpha  occ. eigenvalues --  -10.06288 -10.06100 -10.05772 -10.05702  -0.94403
 Alpha  occ. eigenvalues --   -0.83556  -0.81739  -0.74127  -0.70373  -0.68414
 Alpha  occ. eigenvalues --   -0.68020  -0.66153  -0.61793  -0.59709  -0.58897
 Alpha  occ. eigenvalues --   -0.58218  -0.55409  -0.50284  -0.49913  -0.47871
 Alpha  occ. eigenvalues --   -0.46614  -0.44996  -0.42523  -0.39930  -0.38559
 Alpha  occ. eigenvalues --   -0.37822  -0.36922  -0.35837  -0.34831  -0.34083
 Alpha  occ. eigenvalues --   -0.33093  -0.32805  -0.31889  -0.31453  -0.30823
 Alpha  occ. eigenvalues --   -0.30407  -0.29772  -0.29598  -0.29351  -0.29005
 Alpha  occ. eigenvalues --   -0.28543  -0.27779  -0.27323  -0.26677  -0.26035
 Alpha  occ. eigenvalues --   -0.24831  -0.23575  -0.23299  -0.19569  -0.16289
 Alpha  occ. eigenvalues --   -0.15149  -0.14913  -0.14229  -0.14055  -0.11393
 Alpha  occ. eigenvalues --    0.04442
 Alpha virt. eigenvalues --    0.06677   0.06798   0.07204   0.07940   0.08338
 Alpha virt. eigenvalues --    0.08670   0.09047   0.09564   0.09820   0.10331
 Alpha virt. eigenvalues --    0.10483   0.10764   0.11063   0.11640   0.11931

  Beta  occ. eigenvalues --  -14.28207 -14.22521 -14.20364 -14.17427 -10.10546
  Beta  occ. eigenvalues --  -10.10313 -10.09650 -10.09316 -10.09046 -10.08970
  Beta  occ. eigenvalues --  -10.08966 -10.08900 -10.06686 -10.06361 -10.06352
  Beta  occ. eigenvalues --  -10.06287 -10.06061 -10.05799 -10.05695  -0.94399
  Beta  occ. eigenvalues --   -0.83397  -0.81578  -0.74119  -0.70017  -0.68380
  Beta  occ. eigenvalues --   -0.67912  -0.66124  -0.61678  -0.59617  -0.58863
  Beta  occ. eigenvalues --   -0.58164  -0.55361  -0.50208  -0.49894  -0.47696
  Beta  occ. eigenvalues --   -0.46511  -0.44887  -0.42512  -0.39851  -0.38468
  Beta  occ. eigenvalues --   -0.37743  -0.36877  -0.35784  -0.34782  -0.34064
  Beta  occ. eigenvalues --   -0.32980  -0.32579  -0.31826  -0.31235  -0.30766
  Beta  occ. eigenvalues --   -0.30362  -0.29738  -0.29571  -0.29297  -0.28965
  Beta  occ. eigenvalues --   -0.28488  -0.27713  -0.27248  -0.26506  -0.25923
  Beta  occ. eigenvalues --   -0.24730  -0.23463  -0.23098  -0.19565  -0.15293
  Beta  occ. eigenvalues --   -0.15112  -0.14903  -0.13963  -0.13700  -0.11365
  Beta virt. eigenvalues --    0.06658   0.07231   0.07411   0.08071   0.08365
  Beta virt. eigenvalues --    0.08680   0.09002   0.09214   0.09728   0.09947
  Beta virt. eigenvalues --    0.10371   0.10692   0.10965   0.11357   0.11700

 Mulliken charges and spin densities:
               1          2
     1  C    1.483933  -1.997890
     2  C   -0.462728   0.927683
     3  C   -0.700387   0.475233
     4  C   -0.066821   0.069893
     5  N   -0.005282   0.133977
     6  C   -0.363442   0.487885
     7  C   -0.163349  -0.130984
     8  C    0.269952  -0.910813
     9  N    0.301140   0.014368
    10  C    0.359768  -0.631661
    11  C   -1.110120   1.540245
    12  C    0.809633  -1.516291
    13  C   -0.728202  -0.447199
    14  N    0.433257   0.009028
    15  C   -0.234966  -0.018467
    16  C   -0.326379   0.032763
    17  C   -0.354520  -0.012680
    18  N   -0.007264   0.019048
    19  C   -0.324515  -0.346777
    20  H   -0.321709   0.465964
    21  H   -0.384556   0.546856
    22  H    0.215953  -0.056843
    23  H   -0.147827   0.311170
    24  H   -0.266327   0.417824
    25  H   -0.077126   0.249711
    26  H    0.149507  -0.021337
    27  H   -0.142582   0.263475
    28  H    0.078399   0.045066
    29  H    0.032192   0.113226
    30  H    0.156324   0.032311
    31  H    0.018067   0.144550
    32  H   -0.145532   0.277631
    33  H   -0.280581   0.433319
    34  H    0.103964   0.081586
    35  H    0.414719  -0.234836
    36  H    0.288978  -0.001371
    37  H    0.121631   0.027898
    38  H    0.110472   0.007085
    39  H    0.187578  -0.011914
    40  H    0.044071   0.084755
    41  H    0.034674   0.126515
 Sum of Mulliken charges =  -1.00000   1.00000

 Dipole moment (field-independent basis, Debye):
    X=              3.2452    Y=             -2.5839    Z=             -2.9278  Tot=              5.0774
 Quadrupole moment (field-independent basis, Debye-Ang):
   XX=           -172.6125   YY=           -162.6558   ZZ=           -156.2856
   XY=             -1.0626   XZ=              8.4162   YZ=             -1.4899

 Summary of Natural Population Analysis:

                                       Natural Population
                Natural  -----------------------------------------------
    Atom  No    Charge         Core      Valence    Rydberg      Total
 -----------------------------------------------------------------------
      C    1   -0.29726      0.99964     2.29188    0.00574     3.29726
      C    2    0.04893      0.99952     1.94294    0.00861     2.95107
      C    3   -0.13097      0.99946     2.12316    0.00835     3.13097
      C    4    0.11971      0.99954     1.86907    0.01168     2.88029
      N    5   -0.23637      0.99964     2.72476    0.01197     3.73637
      C    6    0.11569      0.99952     1.87086    0.01394     2.88431
      C    7   -0.13789      0.99945     2.12991    0.00852     3.13789
      C    8   -0.09658      0.99956     2.08456    0.01245     3.09658
      N    9   -0.28190      0.99971     2.76960    0.01260     3.78190
      C   10   -0.17105      0.99964     2.16341    0.00800     3.17105
      C   11   -0.00422      0.99958     1.99297    0.01167     3.00422
      C   12   -0.29893      0.99964     2.29362    0.00567     3.29893
      C   13   -0.08647      0.99957     2.07514    0.01177     3.08647
      N   14   -0.10500      0.99965     2.59222    0.01313     3.60500
      C   15   -0.00390      0.99956     1.99389    0.01045     3.00390
      C   16   -0.17765      0.99957     2.16946    0.00862     3.17765
      C   17   -0.02354      0.99965     2.00992    0.01397     3.02354
      N   18   -0.16022      0.99974     2.64986    0.01061     3.66022
      C   19   -0.29778      0.99963     2.29290    0.00524     3.29778
      H   20    0.10332      0.00000     0.39529    0.00139     0.39668
      H   21    0.10705      0.00000     0.39100    0.00194     0.39295
      H   22    0.10299      0.00000     0.39621    0.00080     0.39701
      H   23    0.09815      0.00000     0.40096    0.00090     0.40185
      H   24    0.10119      0.00000     0.39759    0.00122     0.39881
      H   25    0.10470      0.00000     0.39391    0.00140     0.39530
      H   26    0.08504      0.00000     0.41356    0.00140     0.41496
      H   27    0.07957      0.00000     0.41908    0.00135     0.42043
      H   28    0.09405      0.00000     0.40510    0.00084     0.40595
      H   29    0.09478      0.00000     0.40433    0.00089     0.40522
      H   30    0.09538      0.00000     0.40252    0.00210     0.40462
      H   31    0.10434      0.00000     0.39436    0.00130     0.39566
      H   32    0.10138      0.00000     0.39773    0.00089     0.39862
      H   33    0.10299      0.00000     0.39578    0.00123     0.39701
      H   34    0.10650      0.00000     0.39196    0.00154     0.39350
      H   35    0.11017      0.00000     0.38785    0.00198     0.38983
      H   36    0.12852      0.00000     0.36930    0.00218     0.37148
      H   37    0.10427      0.00000     0.39502    0.00070     0.39573
      H   38    0.09229      0.00000     0.40685    0.00086     0.40771
      H   39    0.10714      0.00000     0.39164    0.00122     0.39286
      H   40    0.09669      0.00000     0.40261    0.00070     0.40331
      H   41    0.10489      0.00000     0.39385    0.00126     0.39511
 =======================================================================
   * Total *    0.00000     18.99227    50.78665    0.22107    70.00000

 Normal termination of Gaussian 16 at Sun Dec 13 15:18:11 2020.
