 Gaussian 16, Revision A.03,

 -----------------------------------------------------------
 # opt freq B3LYP/6-31G(d) empiricaldispersion=gd3bj scf=xqc
 -----------------------------------------------------------

 -------------------------------
 CID_116911035_JID_5838_neutraal
 -------------------------------
 Symbolic Z-matrix:
 Charge =  0 Multiplicity = 1

 SCF Done:  E(RB3LYP) =  -657.694898444     A.U. after   13 cycles
 SCF Done:  E(RB3LYP) =  -657.696831235     A.U. after   10 cycles
 SCF Done:  E(RB3LYP) =  -657.696632129     A.U. after   11 cycles
 SCF Done:  E(RB3LYP) =  -657.697972533     A.U. after   11 cycles
 SCF Done:  E(RB3LYP) =  -657.698650870     A.U. after   11 cycles
 SCF Done:  E(RB3LYP) =  -657.698789180     A.U. after    9 cycles
 SCF Done:  E(RB3LYP) =  -657.698808629     A.U. after    9 cycles
 SCF Done:  E(RB3LYP) =  -657.698814403     A.U. after    9 cycles
 SCF Done:  E(RB3LYP) =  -657.698816683     A.U. after    7 cycles
 SCF Done:  E(RB3LYP) =  -657.698817397     A.U. after    7 cycles
 SCF Done:  E(RB3LYP) =  -657.698817566     A.U. after    6 cycles
 SCF Done:  E(RB3LYP) =  -657.698817583     A.U. after    6 cycles
 Optimization completed.
    -- Stationary point found.
 Normal termination of Gaussian 16 at Thu Dec 10 17:16:59 2020.

 --------------------------------------------------------------------
 #N Geom=AllCheck Guess=TCheck SCRF=Check GenChk RB3LYP/6-31G(d) Freq
 --------------------------------------------------------------------

 Structure from the checkpoint file:  "JID_5838.chk"
 -------------------------------
 CID_116911035_JID_5838_neutraal
 -------------------------------
 Charge =  0 Multiplicity = 1

 SCF Done:  E(RB3LYP) =  -657.698817583     A.U. after    1 cycles

  Exact polarizability: 157.562  -5.416 143.630  -3.000   0.459 126.820
 Approx polarizability: 197.414  -4.480 194.146  -2.641  -1.523 193.602

                      1                      2                      3
                      A                      A                      A
 Frequencies --     27.8217                33.7576                51.0293
 Red. masses --      3.6908                 3.5374                 2.5647
 Frc consts  --      0.0017                 0.0024                 0.0039
 IR Inten    --      0.0768                 0.3964                 0.0885

                      4                      5                      6
                      A                      A                      A
 Frequencies --     76.6982                95.3892               134.8714
 Red. masses --      3.3015                 2.8882                 2.8642
 Frc consts  --      0.0114                 0.0155                 0.0307
 IR Inten    --      0.2447                 0.1993                 0.2080

                      7                      8                      9
                      A                      A                      A
 Frequencies --    148.2941               199.7426               203.3558
 Red. masses --      2.7793                 2.6062                 3.0074
 Frc consts  --      0.0360                 0.0613                 0.0733
 IR Inten    --      0.1231                 1.2259                 0.7625

                     10                     11                     12
                      A                      A                      A
 Frequencies --    234.2844               252.5475               263.3660
 Red. masses --      1.0770                 1.2734                 1.2528
 Frc consts  --      0.0348                 0.0479                 0.0512
 IR Inten    --      0.0869                 2.4141                 1.0169

                     13                     14                     15
                      A                      A                      A
 Frequencies --    265.2868               268.8426               298.2224
 Red. masses --      1.8721                 1.0950                 2.1088
 Frc consts  --      0.0776                 0.0466                 0.1105
 IR Inten    --      4.5164                 1.7269                 1.3392

                     16                     17                     18
                      A                      A                      A
 Frequencies --    322.8795               326.3609               348.8264
 Red. masses --      2.7204                 2.6979                 2.4106
 Frc consts  --      0.1671                 0.1693                 0.1728
 IR Inten    --      4.0571                 3.0594                 2.3585

                     19                     20                     21
                      A                      A                      A
 Frequencies --    386.3347               412.5770               422.7312
 Red. masses --      1.8548                 2.1469                 2.0898
 Frc consts  --      0.1631                 0.2153                 0.2200
 IR Inten    --      4.4641                 0.6028                 1.4015

                     22                     23                     24
                      A                      A                      A
 Frequencies --    450.3066               456.2520               477.2737
 Red. masses --      3.9988                 2.2714                 3.3958
 Frc consts  --      0.4778                 0.2786                 0.4558
 IR Inten    --      4.0790                 3.2367                 3.9186

                     25                     26                     27
                      A                      A                      A
 Frequencies --    492.6189               518.0244               590.0213
 Red. masses --      2.3094                 2.5185                 1.9716
 Frc consts  --      0.3302                 0.3982                 0.4044
 IR Inten    --      0.7944                 4.2843                 3.9477

                     28                     29                     30
                      A                      A                      A
 Frequencies --    654.3543               768.8949               809.5173
 Red. masses --      2.3092                 2.8159                 2.2162
 Frc consts  --      0.5826                 0.9809                 0.8557
 IR Inten    --      0.1832                21.6896                81.7882

                     31                     32                     33
                      A                      A                      A
 Frequencies --    839.3272               854.2652               868.4702
 Red. masses --      2.5394                 2.0070                 2.3039
 Frc consts  --      1.0540                 0.8629                 1.0238
 IR Inten    --      7.9182                24.6546                 2.0875

                     34                     35                     36
                      A                      A                      A
 Frequencies --    892.9356               911.1123               940.6233
 Red. masses --      2.2492                 2.1737                 1.3089
 Frc consts  --      1.0566                 1.0631                 0.6823
 IR Inten    --      7.2508                 2.1421                 1.0187

                     37                     38                     39
                      A                      A                      A
 Frequencies --    946.7528               960.1842               979.1139
 Red. masses --      1.5381                 1.9697                 1.8796
 Frc consts  --      0.8123                 1.0700                 1.0616
 IR Inten    --      4.5279                 9.0607                 1.0243

                     40                     41                     42
                      A                      A                      A
 Frequencies --    982.3412              1005.2052              1038.8025
 Red. masses --      1.5268                 2.7578                 1.9026
 Frc consts  --      0.8681                 1.6418                 1.2097
 IR Inten    --      2.2390                14.8752                 8.7857

                     43                     44                     45
                      A                      A                      A
 Frequencies --   1055.0764              1077.9702              1087.7815
 Red. masses --      1.9378                 2.4627                 1.5647
 Frc consts  --      1.2710                 1.6861                 1.0908
 IR Inten    --     17.6555                18.3338                12.0451

                     46                     47                     48
                      A                      A                      A
 Frequencies --   1102.5084              1118.2100              1135.2464
 Red. masses --      2.3705                 2.5530                 1.3182
 Frc consts  --      1.6977                 1.8808                 1.0009
 IR Inten    --      1.8630                30.7576                 5.7650

                     49                     50                     51
                      A                      A                      A
 Frequencies --   1141.6541              1151.5600              1154.8287
 Red. masses --      1.9960                 3.3806                 4.0333
 Frc consts  --      1.5328                 2.6413                 3.1692
 IR Inten    --     18.9726               114.1639                14.7875

                     52                     53                     54
                      A                      A                      A
 Frequencies --   1165.1345              1194.8914              1203.7818
 Red. masses --      2.1215                 2.2077                 1.4736
 Frc consts  --      1.6968                 1.8571                 1.2581
 IR Inten    --     10.5573                 3.8733                 3.7772

                     55                     56                     57
                      A                      A                      A
 Frequencies --   1207.1434              1237.4492              1241.9123
 Red. masses --      1.7162                 1.1900                 2.2403
 Frc consts  --      1.4734                 1.0736                 2.0358
 IR Inten    --      3.8495                11.0180                10.9832

                     58                     59                     60
                      A                      A                      A
 Frequencies --   1257.3400              1288.4950              1307.0158
 Red. masses --      1.3241                 1.3142                 1.2553
 Frc consts  --      1.2333                 1.2855                 1.2634
 IR Inten    --     10.3536                 4.9906                 2.5679

                     61                     62                     63
                      A                      A                      A
 Frequencies --   1324.2435              1332.2912              1343.5701
 Red. masses --      1.5463                 1.3069                 1.4693
 Frc consts  --      1.5976                 1.3668                 1.5627
 IR Inten    --     12.3355                 4.1560                 8.8732

                     64                     65                     66
                      A                      A                      A
 Frequencies --   1348.6439              1369.6030              1377.1701
 Red. masses --      1.4686                 1.3521                 1.3130
 Frc consts  --      1.5737                 1.4943                 1.4672
 IR Inten    --     16.8862                 5.8732                 3.1100

                     67                     68                     69
                      A                      A                      A
 Frequencies --   1394.1207              1394.7910              1403.7250
 Red. masses --      1.4337                 1.3210                 1.2945
 Frc consts  --      1.6418                 1.5142                 1.5029
 IR Inten    --     10.6929                 4.4990                 6.7650

                     70                     71                     72
                      A                      A                      A
 Frequencies --   1412.2095              1428.4051              1430.7989
 Red. masses --      1.2976                 1.4166                 1.2800
 Frc consts  --      1.5247                 1.7029                 1.5439
 IR Inten    --      4.2005                 6.0510                 5.9965

                     73                     74                     75
                      A                      A                      A
 Frequencies --   1438.1275              1443.2322              1449.9328
 Red. masses --      1.3567                 1.3460                 1.2414
 Frc consts  --      1.6532                 1.6518                 1.5376
 IR Inten    --      0.8410                13.9452                 4.1741

                     76                     77                     78
                      A                      A                      A
 Frequencies --   1466.7402              1494.5643              1498.0553
 Red. masses --      1.1559                 1.1422                 1.1427
 Frc consts  --      1.4651                 1.5032                 1.5109
 IR Inten    --      0.6981                 4.7005                 8.5990

                     79                     80                     81
                      A                      A                      A
 Frequencies --   1503.9670              1508.2859              1510.7049
 Red. masses --      1.1097                 1.0764                 1.0770
 Frc consts  --      1.4788                 1.4428                 1.4482
 IR Inten    --      6.5863                 7.8521                 0.8726

                     82                     83                     84
                      A                      A                      A
 Frequencies --   1515.7224              1520.9082              1521.9081
 Red. masses --      1.0635                 1.0710                 1.1060
 Frc consts  --      1.4395                 1.4597                 1.5093
 IR Inten    --      0.6831                 1.8099                 4.4238

                     85                     86                     87
                      A                      A                      A
 Frequencies --   1523.7616              1526.9408              1530.3020
 Red. masses --      1.0832                 1.0618                 1.0774
 Frc consts  --      1.4818                 1.4587                 1.4866
 IR Inten    --      7.2185                 7.4226                 3.8644

                     88                     89                     90
                      A                      A                      A
 Frequencies --   1535.5241              1541.9709              1550.1316
 Red. masses --      1.0562                 1.0478                 1.0565
 Frc consts  --      1.4673                 1.4678                 1.4958
 IR Inten    --      2.3945                 9.1174                 4.4810

                     91                     92                     93
                      A                      A                      A
 Frequencies --   1566.8809              2951.9614              2961.2657
 Red. masses --      1.0523                 1.0710                 1.0573
 Frc consts  --      1.5222                 5.4985                 5.4626
 IR Inten    --      5.2963                26.5916                69.6259

                     94                     95                     96
                      A                      A                      A
 Frequencies --   2964.5943              3010.8867              3018.1633
 Red. masses --      1.0718                 1.0454                 1.0812
 Frc consts  --      5.5500                 5.5835                 5.8029
 IR Inten    --     96.0090                47.9319                17.2978

                     97                     98                     99
                      A                      A                      A
 Frequencies --   3022.3007              3036.8073              3039.7367
 Red. masses --      1.0788                 1.0414                 1.0497
 Frc consts  --      5.8060                 5.6585                 5.7144
 IR Inten    --      8.9916                15.9234                22.9483

                    100                    101                    102
                      A                      A                      A
 Frequencies --   3042.8647              3044.8479              3047.5976
 Red. masses --      1.0647                 1.0453                 1.0606
 Frc consts  --      5.8082                 5.7098                 5.8041
 IR Inten    --     39.9471                21.7272                20.7717

                    103                    104                    105
                      A                      A                      A
 Frequencies --   3055.6352              3058.8713              3070.3245
 Red. masses --      1.0801                 1.0741                 1.0998
 Frc consts  --      5.9419                 5.9216                 6.1083
 IR Inten    --     52.8260                63.2119                27.3447

                    106                    107                    108
                      A                      A                      A
 Frequencies --   3073.3120              3080.7162              3094.3257
 Red. masses --      1.0958                 1.1015                 1.0976
 Frc consts  --      6.0984                 6.1595                 6.1919
 IR Inten    --     38.5855                42.7977                97.5012

                    109                    110                    111
                      A                      A                      A
 Frequencies --   3094.8304              3100.6667              3101.6443
 Red. masses --      1.0977                 1.0955                 1.1029
 Frc consts  --      6.1946                 6.2054                 6.2511
 IR Inten    --      3.8820                44.1777                33.8509

                    112                    113                    114
                      A                      A                      A
 Frequencies --   3101.7770              3107.8325              3111.1668
 Red. masses --      1.1019                 1.1014                 1.1020
 Frc consts  --      6.2462                 6.2679                 6.2848
 IR Inten    --     15.8535                58.4883                53.2025

                    115                    116                    117
                      A                      A                      A
 Frequencies --   3114.8917              3132.5509              3449.5677
 Red. masses --      1.1010                 1.0961                 1.0734
 Frc consts  --      6.2942                 6.3369                 7.5253
 IR Inten    --     48.9591                33.8674                 1.5218

 - Thermochemistry -
 -------------------
 Temperature   298.150 Kelvin.  Pressure   1.00000 Atm.
 Atom     1 has atomic number  6 and mass  12.00000

 Molecular mass:   214.20451 amu.
 Principal axes and moments of inertia in atomic units:
                           1         2         3
     Eigenvalues --  2587.060294618.404536185.53258
           X            0.99930  -0.03744   0.00019
           Y            0.03744   0.99930  -0.00117
           Z           -0.00015   0.00118   1.00000
 This molecule is an asymmetric top.
 Rotational symmetry number  1.
 Warning -- assumption of classical behavior for rotation
           may cause significant error
 Rotational temperatures (Kelvin)      0.03348     0.01875     0.01400
 Rotational constants (GHZ):           0.69760     0.39077     0.29177
 Zero-point vibrational energy    1001477.6 (Joules/Mol)
                                  239.35890 (Kcal/Mol)
 Warning -- explicit consideration of  27 degrees of freedom as
           vibrations may cause significant error
 Vibrational temperatures:     40.03    48.57    73.42   110.35   137.24
          (Kelvin)            194.05   213.36   287.38   292.58   337.08
                              363.36   378.92   381.69   386.80   429.08
                              464.55   469.56   501.88   555.85   593.61
                              608.22   647.89   656.44   686.69   708.77
                              745.32   848.91   941.47  1106.27  1164.71
                             1207.60  1229.10  1249.53  1284.74  1310.89
                             1353.35  1362.17  1381.49  1408.73  1413.37
                             1446.27  1494.61  1518.02  1550.96  1565.07
                             1586.26  1608.85  1633.37  1642.59  1656.84
                             1661.54  1676.37  1719.18  1731.97  1736.81
                             1780.41  1786.83  1809.03  1853.86  1880.50
                             1905.29  1916.87  1933.10  1940.40  1970.55
                             1981.44  2005.83  2006.79  2019.65  2031.85
                             2055.16  2058.60  2069.14  2076.49  2086.13
                             2110.31  2150.34  2155.37  2163.87  2170.09
                             2173.57  2180.79  2188.25  2189.69  2192.35
                             2196.93  2201.76  2209.28  2218.55  2230.29
                             2254.39  4247.21  4260.60  4265.39  4331.99
                             4342.46  4348.42  4369.29  4373.50  4378.00
                             4380.86  4384.81  4396.38  4401.03  4417.51
                             4421.81  4432.46  4452.04  4452.77  4461.17
                             4462.57  4462.77  4471.48  4476.28  4481.63
                             4507.04  4963.16

 Zero-point correction=                           0.381443 (Hartree/Particle)
 Thermal correction to Energy=                    0.398460
 Thermal correction to Enthalpy=                  0.399404
 Thermal correction to Gibbs Free Energy=         0.336489
 Sum of electronic and zero-point Energies=           -657.317375
 Sum of electronic and thermal Energies=              -657.300357
 Sum of electronic and thermal Enthalpies=            -657.299413
 Sum of electronic and thermal Free Energies=         -657.362329

                     E (Thermal)             CV                S
                      KCal/Mol        Cal/Mol-Kelvin    Cal/Mol-Kelvin
 Total                  250.037             65.110            132.416
 Electronic               0.000              0.000              0.000
 Translational            0.889              2.981             41.989
 Rotational               0.889              2.981             32.669
 Vibrational            248.260             59.149             57.759
 Vibration     1          0.593              1.984              5.979
 Vibration     2          0.594              1.983              5.595
 Vibration     3          0.595              1.977              4.777
 Vibration     4          0.599              1.965              3.974
 Vibration     5          0.603              1.952              3.546
 Vibration     6          0.613              1.919              2.875
 Vibration     7          0.618              1.905              2.694
 Vibration     8          0.638              1.840              2.135
 Vibration     9          0.639              1.835              2.103
 Vibration    10          0.654              1.788              1.846
 Vibration    11          0.664              1.758              1.713
 Vibration    12          0.670              1.740              1.639
 Vibration    13          0.671              1.737              1.627
 Vibration    14          0.673              1.730              1.604
 Vibration    15          0.691              1.677              1.427
 Vibration    16          0.708              1.630              1.295
 Vibration    17          0.710              1.623              1.278
 Vibration    18          0.726              1.578              1.171
 Vibration    19          0.755              1.499              1.014
 Vibration    20          0.776              1.443              0.918
 Vibration    21          0.785              1.421              0.883
 Vibration    22          0.809              1.360              0.795
 Vibration    23          0.814              1.347              0.777
 Vibration    24          0.834              1.300              0.717
 Vibration    25          0.848              1.266              0.677
 Vibration    26          0.873              1.210              0.615
 Vibration    27          0.947              1.053              0.467

 Optimization completed.
    -- Stationary point found.
 Normal termination of Gaussian 16 at Thu Dec 10 17:31:52 2020.

 ----------------------------------------------------------------------
 # B3LYP/6-311++G(d,p) empiricaldispersion=gd3bj scf=xqc pop=npa geom=c
 heck
 ----------------------------------------------------------------------

 ---------------------------------------
 CID_116911035_JID_5838_Energie_neutraal
 ---------------------------------------
 Structure from the checkpoint file:  "JID_5838.chk"
 Charge =  0 Multiplicity = 1

 SCF Done:  E(RB3LYP) =  -657.887352140     A.U. after   13 cycles
 Normal termination of Gaussian 16 at Thu Dec 10 17:38:13 2020.

 ----------------------------------------------------------------------
 # B3LYP/6-311++G(d,p) empiricaldispersion=gd3bj scf=xqc pop=npa geom=c
 heck
 ----------------------------------------------------------------------

 -------------------------------------
 CID_116911035_JID_5838_Energie_kation
 -------------------------------------
 Structure from the checkpoint file:  "JID_5838.chk"
 Charge =  1 Multiplicity = 2

 SCF Done:  E(UB3LYP) =  -657.617101734     A.U. after   21 cycles
 Normal termination of Gaussian 16 at Thu Dec 10 17:51:07 2020.
 Gaussian 16:  ES64L-G16RevA.03 25-Dec-2016

 ----------------------------------------------------------------------
 # B3LYP/6-311++G(d,p) empiricaldispersion=gd3bj scf=xqc pop=npa geom=c
 heck
 ----------------------------------------------------------------------

 ------------------------------------
 CID_116911035_JID_5838_Energie_anion
 ------------------------------------
 Structure from the checkpoint file:  "JID_5838.chk"
 Charge = -1 Multiplicity = 2

                         Standard orientation:
 ---------------------------------------------------------------------
 Center     Atomic      Atomic             Coordinates (Angstroms)
 Number     Number       Type             X           Y           Z
 ---------------------------------------------------------------------
      1          6           0        3.499253   -1.190550   -1.090327
      2          6           0        2.510708   -1.387991    0.065732
      3          6           0        3.161786   -2.197022    1.195380
      4          6           0        1.974422   -0.057911    0.626788
      5          6           0        1.277824    0.873219   -0.378937
      6          6           0        0.064998    0.201822   -1.078159
      7          6           0       -1.104056   -0.260562   -0.194617
      8          6           0       -1.645996   -1.621568   -0.650435
      9          8           0       -2.753334   -2.041579    0.135187
     10          6           0       -3.816200   -1.098748    0.090118
     11          6           0       -3.345835    0.273940    0.571121
     12          7           0       -2.172040    0.753882   -0.165579
     13          7           0        1.062879    2.200056    0.212007
     14          6           0        0.621881    3.192946   -0.751017
     15          6           0        0.280797    2.283905    1.442068
     16          1           0        4.335962   -0.552137   -0.778796
     17          1           0        3.030313   -0.722042   -1.962038
     18          1           0        3.914991   -2.151086   -1.415877
     19          1           0        1.661483   -1.976775   -0.310381
     20          1           0        4.030083   -1.664516    1.603866
     21          1           0        2.458546   -2.368821    2.018668
     22          1           0        3.507123   -3.173463    0.836603
     23          1           0        1.295774   -0.297127    1.454373
     24          1           0        2.806707    0.507554    1.066509
     25          1           0        1.997867    1.059386   -1.187351
     26          1           0       -0.323647    0.884723   -1.844185
     27          1           0        0.453660   -0.661806   -1.633828
     28          1           0       -0.773109   -0.384664    0.844085
     29          1           0       -1.935275   -1.563124   -1.716716
     30          1           0       -0.885199   -2.402485   -0.545533
     31          1           0       -4.611809   -1.500738    0.725977
     32          1           0       -4.204575   -1.018445   -0.941824
     33          1           0       -3.071419    0.207507    1.631578
     34          1           0       -4.150773    1.013067    0.481161
     35          1           0       -2.445181    0.959065   -1.128121
     36          1           0       -0.435239    3.084394   -1.055250
     37          1           0        0.738472    4.194065   -0.318378
     38          1           0        1.246267    3.139534   -1.650828
     39          1           0       -0.793559    2.098262    1.290656
     40          1           0        0.664901    1.582819    2.187343
     41          1           0        0.400938    3.293029    1.855523
 ---------------------------------------------------------------------

 SCF Done:  E(UB3LYP) =  -657.873170662     A.U. after   29 cycles

 The electronic state is 2-A.
 Alpha  occ. eigenvalues --  -19.03119 -14.20346 -14.20085 -10.11957 -10.11749
 Alpha  occ. eigenvalues --  -10.10219 -10.10082 -10.09818 -10.08358 -10.08237
 Alpha  occ. eigenvalues --  -10.07975 -10.06863 -10.06773 -10.06768 -10.06369
 Alpha  occ. eigenvalues --   -0.94701  -0.82313  -0.81086  -0.72143  -0.69292
 Alpha  occ. eigenvalues --   -0.65321  -0.60904  -0.59928  -0.59292  -0.57741
 Alpha  occ. eigenvalues --   -0.55518  -0.52752  -0.49370  -0.47827  -0.44851
 Alpha  occ. eigenvalues --   -0.40468  -0.39131  -0.38963  -0.38306  -0.37225
 Alpha  occ. eigenvalues --   -0.36148  -0.35830  -0.35276  -0.34951  -0.33239
 Alpha  occ. eigenvalues --   -0.32355  -0.31012  -0.29854  -0.29412  -0.29088
 Alpha  occ. eigenvalues --   -0.28240  -0.27796  -0.27409  -0.26835  -0.26708
 Alpha  occ. eigenvalues --   -0.25917  -0.25086  -0.24121  -0.23588  -0.22746
 Alpha  occ. eigenvalues --   -0.22622  -0.21653  -0.18548  -0.12479  -0.10825
 Alpha  occ. eigenvalues --    0.04270
 Alpha virt. eigenvalues --    0.05926   0.06819   0.07086   0.08105   0.08421
 Alpha virt. eigenvalues --    0.08719   0.09104   0.09250   0.10433   0.10611
 Alpha virt. eigenvalues --    0.10848   0.11412   0.11459   0.11726   0.12366

  Beta  occ. eigenvalues --  -19.03112 -14.20325 -14.20083 -10.11934 -10.11733
  Beta  occ. eigenvalues --  -10.10218 -10.10076 -10.09800 -10.08337 -10.08229
  Beta  occ. eigenvalues --  -10.07966 -10.06846 -10.06764 -10.06753 -10.06340
  Beta  occ. eigenvalues --   -0.94684  -0.82298  -0.81053  -0.72123  -0.69265
  Beta  occ. eigenvalues --   -0.65292  -0.60874  -0.59898  -0.59242  -0.57701
  Beta  occ. eigenvalues --   -0.55484  -0.52711  -0.49307  -0.47782  -0.44821
  Beta  occ. eigenvalues --   -0.40430  -0.39107  -0.38938  -0.38277  -0.37181
  Beta  occ. eigenvalues --   -0.36116  -0.35806  -0.35244  -0.34913  -0.33215
  Beta  occ. eigenvalues --   -0.32325  -0.30981  -0.29825  -0.29389  -0.29066
  Beta  occ. eigenvalues --   -0.28213  -0.27768  -0.27384  -0.26811  -0.26680
  Beta  occ. eigenvalues --   -0.25891  -0.25050  -0.24090  -0.23562  -0.22727
  Beta  occ. eigenvalues --   -0.22597  -0.21627  -0.18499  -0.12445  -0.10814
  Beta virt. eigenvalues --    0.06221   0.06908   0.07345   0.07449   0.08555
  Beta virt. eigenvalues --    0.08735   0.09192   0.09392   0.09551   0.10755
  Beta virt. eigenvalues --    0.10900   0.11233   0.11529   0.11752   0.12044

 Mulliken charges and spin densities:
               1          2
     1  C    0.540893  -1.238359
     2  C   -0.758152   1.143269
     3  C    0.027213  -0.720244
     4  C   -0.128021  -0.395482
     5  C   -0.147245  -0.214089
     6  C   -0.286661   0.329738
     7  C   -0.861649   0.211319
     8  C    0.800913  -1.347527
     9  O   -0.119502   0.048645
    10  C    0.579385  -0.942660
    11  C    0.036807  -0.063104
    12  N   -0.136065   0.093368
    13  N    0.186135   0.041771
    14  C    0.628075  -0.919216
    15  C   -0.337763  -0.115285
    16  H    0.016625   0.129481
    17  H   -0.296918   0.420432
    18  H   -0.349454   0.492564
    19  H    0.274067  -0.155354
    20  H   -0.017025   0.144783
    21  H   -0.012449   0.142261
    22  H   -0.164318   0.320417
    23  H    0.182057  -0.097307
    24  H    0.082152   0.110746
    25  H    0.566896  -0.323890
    26  H   -0.302746   0.471346
    27  H   -0.131008   0.321697
    28  H    0.141504   0.064171
    29  H   -0.170951   0.327842
    30  H    0.021046   0.182729
    31  H   -0.119099   0.293358
    32  H   -0.200692   0.319604
    33  H    0.179686  -0.068936
    34  H   -0.563711   0.743754
    35  H    0.133053   0.134866
    36  H   -0.160208   0.284756
    37  H    0.071665   0.045522
    38  H   -0.298330   0.419938
    39  H    0.135757   0.073027
    40  H    0.036243   0.071450
    41  H   -0.078204   0.218602
 Sum of Mulliken charges =  -1.00000   1.00000

 Dipole moment (field-independent basis, Debye):
    X=              1.3481    Y=              0.2626    Z=              3.6728  Tot=              3.9212
 Quadrupole moment (field-independent basis, Debye-Ang):
   XX=           -177.9224   YY=           -152.6532   ZZ=           -136.2335
   XY=              8.4575   XZ=             -0.7327   YZ=              1.4305

 Summary of Natural Population Analysis:

                                       Natural Population
                Natural  -----------------------------------------------
    Atom  No    Charge         Core      Valence    Rydberg      Total
 -----------------------------------------------------------------------
      C    1   -0.28623      0.99965     2.28055    0.00603     3.28623
      C    2   -0.11710      0.99961     2.10829    0.00921     3.11710
      C    3   -0.27922      0.99965     2.27490    0.00468     3.27922
      C    4   -0.19356      0.99959     2.18452    0.00945     3.19356
      C    5    0.00354      0.99956     1.98242    0.01448     2.99646
      C    6   -0.20557      0.99958     2.19415    0.01184     3.20557
      C    7   -0.03099      0.99958     2.01876    0.01265     3.03099
      C    8   -0.01281      0.99954     2.00064    0.01262     3.01281
      O    9   -0.29965      0.99989     3.29061    0.00915     4.29965
      C   10   -0.01825      0.99958     2.00604    0.01263     3.01825
      C   11   -0.10231      0.99963     2.09100    0.01169     3.10231
      N   12   -0.33926      0.99975     2.82530    0.01421     3.83926
      N   13   -0.28224      0.99972     2.76945    0.01307     3.78224
      C   14   -0.17668      0.99964     2.16842    0.00861     3.17668
      C   15   -0.18234      0.99963     2.17607    0.00663     3.18234
      H   16    0.09587      0.00000     0.40318    0.00095     0.40413
      H   17    0.10068      0.00000     0.39817    0.00115     0.39932
      H   18    0.10029      0.00000     0.39872    0.00100     0.39971
      H   19    0.09212      0.00000     0.40546    0.00242     0.40788
      H   20    0.09489      0.00000     0.40417    0.00094     0.40511
      H   21    0.09776      0.00000     0.40141    0.00083     0.40224
      H   22    0.09943      0.00000     0.39969    0.00088     0.40057
      H   23    0.09577      0.00000     0.40289    0.00135     0.40423
      H   24    0.10229      0.00000     0.39632    0.00139     0.39771
      H   25    0.09590      0.00000     0.40187    0.00223     0.40410
      H   26    0.10527      0.00000     0.39300    0.00173     0.39473
      H   27    0.10210      0.00000     0.39635    0.00154     0.39790
      H   28    0.09208      0.00000     0.40539    0.00253     0.40792
      H   29    0.07833      0.00000     0.42005    0.00162     0.42167
      H   30    0.09155      0.00000     0.40683    0.00162     0.40845
      H   31    0.08999      0.00000     0.40882    0.00118     0.41001
      H   32    0.07779      0.00000     0.42027    0.00194     0.42221
      H   33    0.08988      0.00000     0.40879    0.00133     0.41012
      H   34    0.09892      0.00000     0.39957    0.00151     0.40108
      H   35    0.17294      0.00000     0.32298    0.00409     0.32706
      H   36    0.08614      0.00000     0.41230    0.00157     0.41386
      H   37    0.09116      0.00000     0.40787    0.00097     0.40884
      H   38    0.09377      0.00000     0.40512    0.00112     0.40623
      H   39    0.09639      0.00000     0.40200    0.00161     0.40361
      H   40    0.09178      0.00000     0.40736    0.00085     0.40822
      H   41    0.08959      0.00000     0.40950    0.00091     0.41041
 =======================================================================
   * Total *   -0.00000     14.99461    44.80918    0.19621    60.00000

 Normal termination of Gaussian 16 at Thu Dec 10 18:08:12 2020.
