 Gaussian 16, Revision A.03,

 -----------------------------------------------------------
 # opt freq B3LYP/6-31G(d) empiricaldispersion=gd3bj scf=xqc
 -----------------------------------------------------------

 -------------------------------
 CID_152047009_JID_3355_neutraal
 -------------------------------
 Symbolic Z-matrix:
 Charge =  0 Multiplicity = 1

 SCF Done:  E(RB3LYP) =  -681.519324586     A.U. after   15 cycles
 SCF Done:  E(RB3LYP) =  -681.524983879     A.U. after   14 cycles
 SCF Done:  E(RB3LYP) =  -681.526581954     A.U. after   14 cycles
 SCF Done:  E(RB3LYP) =  -681.527057523     A.U. after   14 cycles
 SCF Done:  E(RB3LYP) =  -681.527686769     A.U. after   13 cycles
 SCF Done:  E(RB3LYP) =  -681.528228825     A.U. after   14 cycles
 SCF Done:  E(RB3LYP) =  -681.528560362     A.U. after   13 cycles
 SCF Done:  E(RB3LYP) =  -681.528751979     A.U. after   12 cycles
 SCF Done:  E(RB3LYP) =  -681.528871440     A.U. after   13 cycles
 SCF Done:  E(RB3LYP) =  -681.528941947     A.U. after   12 cycles
 SCF Done:  E(RB3LYP) =  -681.529205227     A.U. after   11 cycles
 SCF Done:  E(RB3LYP) =  -681.529217832     A.U. after   10 cycles
 SCF Done:  E(RB3LYP) =  -681.529218678     A.U. after    8 cycles
 SCF Done:  E(RB3LYP) =  -681.529218962     A.U. after    8 cycles
 SCF Done:  E(RB3LYP) =  -681.529219040     A.U. after    7 cycles
 Optimization completed.
    -- Stationary point found.
 Normal termination of Gaussian 16 at Wed Dec  9 23:07:50 2020.

 --------------------------------------------------------------------
 #N Geom=AllCheck Guess=TCheck SCRF=Check GenChk RB3LYP/6-31G(d) Freq
 --------------------------------------------------------------------

 Structure from the checkpoint file:  "JID_3355.chk"
 -------------------------------
 CID_152047009_JID_3355_neutraal
 -------------------------------
 Charge =  0 Multiplicity = 1

 SCF Done:  E(RB3LYP) =  -681.529219040     A.U. after    1 cycles

  Exact polarizability: 116.439  14.340 115.005   2.127   1.085  82.375
 Approx polarizability: 149.453  36.443 194.542   1.645  -2.594 122.953

                      1                      2                      3
                      A                      A                      A
 Frequencies --     29.9736                31.4553                49.3406
 Red. masses --      5.0691                 6.6907                 5.5456
 Frc consts  --      0.0027                 0.0039                 0.0080
 IR Inten    --      0.1763                 0.1361                 1.0527

                      4                      5                      6
                      A                      A                      A
 Frequencies --     65.6205                78.7839                97.6669
 Red. masses --      3.8421                 2.8694                 3.0610
 Frc consts  --      0.0097                 0.0105                 0.0172
 IR Inten    --      0.3559                 1.5120                 3.1916

                      7                      8                      9
                      A                      A                      A
 Frequencies --    121.3220               155.6974               176.8863
 Red. masses --      3.5607                 1.9393                 1.7875
 Frc consts  --      0.0309                 0.0277                 0.0330
 IR Inten    --      0.8022                 1.0379                 3.4864

                     10                     11                     12
                      A                      A                      A
 Frequencies --    196.0420               212.1681               228.6999
 Red. masses --      3.3359                 1.2110                 7.5547
 Frc consts  --      0.0755                 0.0321                 0.2328
 IR Inten    --      2.4468                 3.4998                 1.0280

                     13                     14                     15
                      A                      A                      A
 Frequencies --    265.6719               339.9618               382.1502
 Red. masses --      2.7256                 2.5805                 2.7200
 Frc consts  --      0.1133                 0.1757                 0.2340
 IR Inten    --      4.6727                 1.5679                 3.0307

                     16                     17                     18
                      A                      A                      A
 Frequencies --    390.8887               409.3838               428.9200
 Red. masses --      3.3244                 2.6834                 2.4904
 Frc consts  --      0.2993                 0.2650                 0.2699
 IR Inten    --      5.1191                 3.1476                 1.5484

                     19                     20                     21
                      A                      A                      A
 Frequencies --    514.2420               521.0620               537.8327
 Red. masses --     10.1606                 5.6250                 2.4150
 Frc consts  --      1.5831                 0.8998                 0.4116
 IR Inten    --      6.5008                11.2158                 4.1824

                     22                     23                     24
                      A                      A                      A
 Frequencies --    643.0847               650.0205               770.9700
 Red. masses --      9.5378                 2.2637                 1.7752
 Frc consts  --      2.3240                 0.5635                 0.6217
 IR Inten    --      3.0294                 5.1756                 9.0779

                     25                     26                     27
                      A                      A                      A
 Frequencies --    791.4011               793.0314               859.5729
 Red. masses --      3.0600                 5.5565                 4.3329
 Frc consts  --      1.1292                 2.0589                 1.8862
 IR Inten    --      4.5251                82.1552                 1.2725

                     28                     29                     30
                      A                      A                      A
 Frequencies --    881.2659               944.6831               949.6876
 Red. masses --      5.3824                 2.2540                 2.6197
 Frc consts  --      2.4629                 1.1852                 1.3921
 IR Inten    --     31.4868                19.0230                10.0725

                     31                     32                     33
                      A                      A                      A
 Frequencies --   1012.6075              1057.6484              1061.4864
 Red. masses --      2.1168                 3.0366                 4.8182
 Frc consts  --      1.2788                 2.0014                 3.1986
 IR Inten    --     37.2684                96.0897                74.3567

                     34                     35                     36
                      A                      A                      A
 Frequencies --   1093.1495              1107.9402              1138.9967
 Red. masses --      3.2594                 4.4901                 2.4838
 Frc consts  --      2.2948                 3.2474                 1.8985
 IR Inten    --     31.0200                48.6401                 6.7698

                     37                     38                     39
                      A                      A                      A
 Frequencies --   1144.9974              1186.6349              1189.9507
 Red. masses --      2.7599                 1.2805                 1.2797
 Frc consts  --      2.1318                 1.0623                 1.0676
 IR Inten    --      7.2621                 0.6208                 2.1080

                     40                     41                     42
                      A                      A                      A
 Frequencies --   1210.2519              1218.4503              1230.5240
 Red. masses --      6.4150                 1.4644                 1.5670
 Frc consts  --      5.5360                 1.2810                 1.3979
 IR Inten    --     31.2342                 4.7626                 3.6122

                     43                     44                     45
                      A                      A                      A
 Frequencies --   1239.9958              1275.7895              1319.4569
 Red. masses --      1.3225                 1.3372                 1.1565
 Frc consts  --      1.1981                 1.2823                 1.1863
 IR Inten    --      7.7226                 5.0637                 4.2141

                     46                     47                     48
                      A                      A                      A
 Frequencies --   1354.6020              1394.6533              1399.5666
 Red. masses --      1.0976                 1.3193                 1.4102
 Frc consts  --      1.1867                 1.5119                 1.6275
 IR Inten    --      3.9382                18.8367                 7.4756

                     49                     50                     51
                      A                      A                      A
 Frequencies --   1426.8422              1434.5541              1474.6727
 Red. masses --      1.3480                 1.4037                 1.1448
 Frc consts  --      1.6169                 1.7020                 1.4668
 IR Inten    --      5.2428                 5.3799                 1.6987

                     52                     53                     54
                      A                      A                      A
 Frequencies --   1484.0908              1499.9637              1504.5699
 Red. masses --      1.1367                 1.0795                 1.0664
 Frc consts  --      1.4750                 1.4310                 1.4223
 IR Inten    --      3.8871                 3.7498                 7.8638

                     55                     56                     57
                      A                      A                      A
 Frequencies --   1505.4218              1508.2655              1519.7081
 Red. masses --      1.0689                 1.0688                 1.0768
 Frc consts  --      1.4272                 1.4325                 1.4653
 IR Inten    --      2.3927                 4.3381                10.0553

                     58                     59                     60
                      A                      A                      A
 Frequencies --   1524.3573              1538.4037              1544.6522
 Red. masses --      1.0961                 1.0557                 1.0490
 Frc consts  --      1.5006                 1.4721                 1.4747
 IR Inten    --      1.3072                 8.1347                12.9676

                     61                     62                     63
                      A                      A                      A
 Frequencies --   2192.2705              3032.2143              3039.9270
 Red. masses --     13.9794                 1.0319                 1.0310
 Frc consts  --     39.5848                 5.5899                 5.6133
 IR Inten    --    322.4640                49.3155                61.3691

                     64                     65                     66
                      A                      A                      A
 Frequencies --   3048.8584              3058.7549              3076.5090
 Red. masses --      1.0673                 1.0669                 1.0634
 Frc consts  --      5.8451                 5.8810                 5.9301
 IR Inten    --     22.0168                25.3259                49.6250

                     67                     68                     69
                      A                      A                      A
 Frequencies --   3079.3184              3095.6530              3104.3142
 Red. masses --      1.0643                 1.1053                 1.0943
 Frc consts  --      5.9461                 6.2406                 6.2130
 IR Inten    --      1.6720                46.7315                10.0142

                     70                     71                     72
                      A                      A                      A
 Frequencies --   3106.1796              3114.9502              3136.4131
 Red. masses --      1.1071                 1.0971                 1.1035
 Frc consts  --      6.2933                 6.2717                 6.3956
 IR Inten    --     39.2089                25.3960                18.4974

                     73                     74                     75
                      A                      A                      A
 Frequencies --   3140.4809              3140.9607              3148.6816
 Red. masses --      1.1030                 1.1006                 1.1033
 Frc consts  --      6.4092                 6.3974                 6.4445
 IR Inten    --     19.9418                21.3045                20.1006

 - Thermochemistry -
 -------------------
 Temperature   298.150 Kelvin.  Pressure   1.00000 Atm.
 Atom     1 has atomic number  6 and mass  12.00000

 Molecular mass:   190.10659 amu.
 Principal axes and moments of inertia in atomic units:
                           1         2         3
     Eigenvalues --  1296.171704458.047264986.53123
           X            0.99990  -0.00864  -0.01098
           Y            0.00848   0.99986  -0.01439
           Z            0.01110   0.01429   0.99984
 This molecule is an asymmetric top.
 Rotational symmetry number  1.
 Warning -- assumption of classical behavior for rotation
           may cause significant error
 Rotational temperatures (Kelvin)      0.06682     0.01943     0.01737
 Rotational constants (GHZ):           1.39236     0.40483     0.36192
 Zero-point vibrational energy     583988.0 (Joules/Mol)
                                  139.57649 (Kcal/Mol)
 Warning -- explicit consideration of  21 degrees of freedom as
           vibrations may cause significant error
 Vibrational temperatures:     43.13    45.26    70.99    94.41   113.35
          (Kelvin)            140.52   174.56   224.01   254.50   282.06
                              305.26   329.05   382.24   489.13   549.83
                              562.40   589.01   617.12   739.88   749.69
                              773.82   925.26   935.23  1109.25  1138.65
                             1141.00  1236.73  1267.95  1359.19  1366.39
                             1456.92  1521.72  1527.24  1572.80  1594.08
                             1638.76  1647.40  1707.30  1712.07  1741.28
                             1753.08  1770.45  1784.08  1835.58  1898.40
                             1948.97  2006.60  2013.66  2052.91  2064.00
                             2121.73  2135.28  2158.11  2164.74  2165.97
                             2170.06  2186.52  2193.21  2213.42  2222.41
                             3154.19  4362.68  4373.78  4386.63  4400.87
                             4426.41  4430.45  4453.95  4466.42  4469.10
                             4481.72  4512.60  4518.45  4519.14  4530.25

 Zero-point correction=                           0.222429 (Hartree/Particle)
 Thermal correction to Energy=                    0.237526
 Thermal correction to Enthalpy=                  0.238470
 Thermal correction to Gibbs Free Energy=         0.178139
 Sum of electronic and zero-point Energies=           -681.306790
 Sum of electronic and thermal Energies=              -681.291693
 Sum of electronic and thermal Enthalpies=            -681.290749
 Sum of electronic and thermal Free Energies=         -681.351080

                     E (Thermal)             CV                S
                      KCal/Mol        Cal/Mol-Kelvin    Cal/Mol-Kelvin
 Total                  149.050             52.377            126.978
 Electronic               0.000              0.000              0.000
 Translational            0.889              2.981             41.633
 Rotational               0.889              2.981             31.733
 Vibrational            147.272             46.415             53.612
 Vibration     1          0.594              1.984              5.831
 Vibration     2          0.594              1.983              5.735
 Vibration     3          0.595              1.978              4.844
 Vibration     4          0.597              1.971              4.281
 Vibration     5          0.600              1.963              3.921
 Vibration     6          0.603              1.951              3.500
 Vibration     7          0.609              1.931              3.079
 Vibration     8          0.620              1.896              2.601
 Vibration     9          0.628              1.871              2.361
 Vibration    10          0.636              1.845              2.170
 Vibration    11          0.643              1.822              2.025
 Vibration    12          0.651              1.797              1.889
 Vibration    13          0.671              1.736              1.624
 Vibration    14          0.720              1.596              1.212
 Vibration    15          0.752              1.508              1.031
 Vibration    16          0.759              1.490              0.997
 Vibration    17          0.774              1.450              0.929
 Vibration    18          0.790              1.407              0.862
 Vibration    19          0.869              1.218              0.623
 Vibration    20          0.876              1.203              0.608
 Vibration    21          0.893              1.166              0.570

                           ! Non-Optimized Parameters !
 Normal termination of Gaussian 16 at Wed Dec  9 23:13:59 2020.

 ----------------------------------------------------------------------
 # B3LYP/6-311++G(d,p) empiricaldispersion=gd3bj scf=xqc pop=npa geom=c
 heck
 ----------------------------------------------------------------------

 ---------------------------------------
 CID_152047009_JID_3355_Energie_neutraal
 ---------------------------------------
 Structure from the checkpoint file:  "JID_3355.chk"
 Charge =  0 Multiplicity = 1

 SCF Done:  E(RB3LYP) =  -681.729140755     A.U. after   14 cycles
 Normal termination of Gaussian 16 at Wed Dec  9 23:16:09 2020.

 ----------------------------------------------------------------------
 # B3LYP/6-311++G(d,p) empiricaldispersion=gd3bj scf=xqc pop=npa geom=c
 heck
 ----------------------------------------------------------------------

 -------------------------------------
 CID_152047009_JID_3355_Energie_kation
 -------------------------------------
 Structure from the checkpoint file:  "JID_3355.chk"
 Charge =  1 Multiplicity = 2

 SCF Done:  E(UB3LYP) =  -681.416190761     A.U. after   25 cycles
 Normal termination of Gaussian 16 at Wed Dec  9 23:21:14 2020.
 Gaussian 16:  ES64L-G16RevA.03 25-Dec-2016

 ----------------------------------------------------------------------
 # B3LYP/6-311++G(d,p) empiricaldispersion=gd3bj scf=xqc pop=npa geom=c
 heck
 ----------------------------------------------------------------------

 ------------------------------------
 CID_152047009_JID_3355_Energie_anion
 ------------------------------------
 Structure from the checkpoint file:  "JID_3355.chk"
 Charge = -1 Multiplicity = 2

                         Standard orientation:
 ---------------------------------------------------------------------
 Center     Atomic      Atomic             Coordinates (Angstroms)
 Number     Number       Type             X           Y           Z
 ---------------------------------------------------------------------
      1          6           0        3.636401   -1.528335    0.155232
      2          8           0        2.515672   -0.769855    0.591922
      3          7           0        1.779668   -0.329229   -0.570466
      4          6           0        0.418862   -0.885185   -0.447350
      5          6           0       -0.276979   -0.798605    0.917535
      6          6           0       -0.556862    0.602287    1.482641
      7          6           0       -1.336951    1.561581    0.590843
      8          8           0       -2.694009    1.143542    0.330740
      9          7           0       -2.711871    0.324261   -0.855920
     10          7           0       -3.340080   -0.722912   -0.587047
     11          7           0       -3.914924   -1.706028   -0.489792
     12          8           0        1.631643    1.079819   -0.415322
     13          6           0        2.804782    1.726670   -0.887303
     14          1           0        4.176020   -1.798090    1.067511
     15          1           0        4.289441   -0.944620   -0.503840
     16          1           0        3.329053   -2.443318   -0.367509
     17          1           0       -0.166675   -0.402602   -1.233577
     18          1           0        0.526999   -1.940858   -0.719918
     19          1           0       -1.216214   -1.358674    0.827761
     20          1           0        0.332120   -1.342940    1.645368
     21          1           0       -1.102752    0.490549    2.428447
     22          1           0        0.396655    1.087742    1.713728
     23          1           0       -1.468352    2.521345    1.101758
     24          1           0       -0.826604    1.743110   -0.358455
     25          1           0        3.657146    1.528018   -0.226669
     26          1           0        3.043360    1.403370   -1.907264
     27          1           0        2.578279    2.795799   -0.873063
 ---------------------------------------------------------------------

 SCF Done:  E(UB3LYP) =  -681.735741164     A.U. after   33 cycles
 SCF Done:  E(UB3LYP) =  -681.735741164     a.u. after    1 cycles

 The electronic state is 2-A.
 Alpha  occ. eigenvalues --  -19.05902 -19.05496 -19.00699 -14.30818 -14.27774
 Alpha  occ. eigenvalues --  -14.22774 -14.19718 -10.11931 -10.11804 -10.08833
 Alpha  occ. eigenvalues --  -10.08764 -10.05429 -10.04888  -1.01752  -0.97897
 Alpha  occ. eigenvalues --   -0.92488  -0.90475  -0.76431  -0.74113  -0.66448
 Alpha  occ. eigenvalues --   -0.60340  -0.58987  -0.55683  -0.51116  -0.46320
 Alpha  occ. eigenvalues --   -0.42987  -0.41878  -0.39961  -0.38567  -0.36354
 Alpha  occ. eigenvalues --   -0.35387  -0.34755  -0.34035  -0.33712  -0.32360
 Alpha  occ. eigenvalues --   -0.32258  -0.29800  -0.29528  -0.29201  -0.27902
 Alpha  occ. eigenvalues --   -0.26926  -0.25993  -0.23427  -0.22796  -0.22078
 Alpha  occ. eigenvalues --   -0.20323  -0.18724  -0.18305  -0.14456  -0.14062
 Alpha  occ. eigenvalues --   -0.07891   0.04430
 Alpha virt. eigenvalues --    0.05695   0.07448   0.08724   0.09127   0.10303
 Alpha virt. eigenvalues --    0.10558   0.11073   0.11967   0.12740   0.13145
 Alpha virt. eigenvalues --    0.13431   0.14242   0.15361   0.15616   0.16188

  Beta  occ. eigenvalues --  -19.05897 -19.05490 -19.00397 -14.30814 -14.27343
  Beta  occ. eigenvalues --  -14.22799 -14.18969 -10.11912 -10.11771 -10.08828
  Beta  occ. eigenvalues --  -10.08753 -10.05428 -10.04890  -1.01744  -0.97053
  Beta  occ. eigenvalues --   -0.92478  -0.89700  -0.75820  -0.74096  -0.66387
  Beta  occ. eigenvalues --   -0.60258  -0.58935  -0.55563  -0.51010  -0.46145
  Beta  occ. eigenvalues --   -0.42963  -0.41454  -0.39921  -0.38527  -0.36220
  Beta  occ. eigenvalues --   -0.34651  -0.34212  -0.33687  -0.33569  -0.32198
  Beta  occ. eigenvalues --   -0.32034  -0.29678  -0.29064  -0.28728  -0.26901
  Beta  occ. eigenvalues --   -0.26666  -0.25547  -0.23351  -0.22521  -0.22003
  Beta  occ. eigenvalues --   -0.20239  -0.18309  -0.17729  -0.14080  -0.13996
  Beta  occ. eigenvalues --   -0.07598
  Beta virt. eigenvalues --    0.06492   0.07744   0.08875   0.09349   0.10459
  Beta virt. eigenvalues --    0.10569   0.11263   0.11548   0.12164   0.12763
  Beta virt. eigenvalues --    0.13158   0.13423   0.14330   0.15344   0.15544

 Mulliken charges and spin densities:
               1          2
     1  C    0.630782  -0.878771
     2  O    0.011216   0.017365
     3  N   -0.376889   0.111648
     4  C   -0.796321   0.055158
     5  C    0.148563  -0.102593
     6  C   -0.314988   0.033880
     7  C   -0.403607  -0.069372
     8  O   -0.051313   0.020839
     9  N   -0.658313   0.090488
    10  N    0.280261   0.072660
    11  N   -0.112384   0.410189
    12  O    0.053697   0.001074
    13  C    0.221793  -0.518264
    14  H   -0.204080   0.341290
    15  H   -0.292223   0.437964
    16  H   -0.084448   0.224609
    17  H    0.192224   0.036604
    18  H    0.071482   0.074417
    19  H    0.132400  -0.004347
    20  H    0.162332   0.019452
    21  H    0.150110   0.013778
    22  H    0.114369   0.000300
    23  H    0.117229   0.013434
    24  H    0.134710   0.032631
    25  H   -0.150239   0.307798
    26  H   -0.039549   0.187305
    27  H    0.063183   0.070463
 Sum of Mulliken charges =  -1.00000   1.00000

 Dipole moment (field-independent basis, Debye):
    X=              3.7833    Y=              2.1905    Z=              1.4461  Tot=              4.6047
 Quadrupole moment (field-independent basis, Debye-Ang):
   XX=           -160.5924   YY=           -100.5803   ZZ=            -95.2048
   XY=             -3.5251   XZ=             -4.0351   YZ=             -0.2402

 Summary of Natural Population Analysis:

                                       Natural Population
                Natural  -----------------------------------------------
    Atom  No    Charge         Core      Valence    Rydberg      Total
 -----------------------------------------------------------------------
      C    1   -0.09821      0.99962     2.08805    0.01054     3.09821
      O    2   -0.23416      0.99990     3.22363    0.01063     4.23416
      N    3    0.02561      0.99974     2.45802    0.01662     3.47439
      C    4   -0.09961      0.99959     2.08634    0.01368     3.09961
      C    5   -0.20431      0.99961     2.19633    0.00837     3.20431
      C    6   -0.20552      0.99962     2.19773    0.00817     3.20552
      C    7   -0.01279      0.99958     2.00006    0.01314     3.01279
      O    8   -0.21231      0.99990     3.20242    0.01000     4.21231
      N    9   -0.10539      0.99973     2.58801    0.01765     3.60539
      N   10    0.12380      0.99972     2.35977    0.01672     3.37620
      N   11    0.04726      0.99982     2.43967    0.01325     3.45274
      O   12   -0.22397      0.99990     3.21226    0.01181     4.22397
      C   13   -0.10216      0.99962     2.09209    0.01045     3.10216
      H   14    0.08942      0.00000     0.40933    0.00125     0.41058
      H   15    0.08309      0.00000     0.41440    0.00250     0.41691
      H   16    0.08093      0.00000     0.41761    0.00146     0.41907
      H   17    0.11348      0.00000     0.38465    0.00187     0.38652
      H   18    0.09806      0.00000     0.40092    0.00103     0.40194
      H   19    0.10717      0.00000     0.39117    0.00166     0.39283
      H   20    0.10128      0.00000     0.39730    0.00142     0.39872
      H   21    0.09453      0.00000     0.40424    0.00123     0.40547
      H   22    0.10274      0.00000     0.39554    0.00173     0.39726
      H   23    0.08319      0.00000     0.41561    0.00120     0.41681
      H   24    0.09069      0.00000     0.40747    0.00184     0.40931
      H   25    0.08355      0.00000     0.41466    0.00179     0.41645
      H   26    0.08463      0.00000     0.41340    0.00196     0.41537
      H   27    0.08900      0.00000     0.41014    0.00086     0.41100
 =======================================================================
   * Total *    0.00000     12.99636    37.82081    0.18284    51.00000

 Normal termination of Gaussian 16 at Wed Dec  9 23:27:52 2020.
