 Gaussian 16, Revision A.03,

 -----------------------------------------------------------
 # opt freq B3LYP/6-31G(d) empiricaldispersion=gd3bj scf=xqc
 -----------------------------------------------------------

 -------------------------------
 CID_139049736_JID_2639_neutraal
 -------------------------------
 Symbolic Z-matrix:
 Charge =  0 Multiplicity = 1

 SCF Done:  E(RB3LYP) =  -512.552958055     A.U. after   18 cycles
 SCF Done:  E(RB3LYP) =  -512.559467730     A.U. after   12 cycles
 SCF Done:  E(RB3LYP) =  -512.560477678     A.U. after   12 cycles
 SCF Done:  E(RB3LYP) =  -512.560538973     A.U. after   10 cycles
 SCF Done:  E(RB3LYP) =  -512.560547188     A.U. after   10 cycles
 SCF Done:  E(RB3LYP) =  -512.560554044     A.U. after    9 cycles
 SCF Done:  E(RB3LYP) =  -512.560539717     A.U. after   10 cycles
 SCF Done:  E(RB3LYP) =  -512.560632605     A.U. after   14 cycles
 SCF Done:  E(RB3LYP) =  -512.560648260     A.U. after   13 cycles
 SCF Done:  E(RB3LYP) =  -512.560950165     A.U. after   12 cycles
 SCF Done:  E(RB3LYP) =  -512.561444771     A.U. after    7 cycles
 SCF Done:  E(RB3LYP) =  -512.561445066     A.U. after    8 cycles
 SCF Done:  E(RB3LYP) =  -512.561445352     A.U. after    9 cycles
 SCF Done:  E(RB3LYP) =  -512.561445532     A.U. after    7 cycles
 SCF Done:  E(RB3LYP) =  -512.561445570     A.U. after    7 cycles
 SCF Done:  E(RB3LYP) =  -512.561445572     A.U. after    6 cycles
 Optimization completed.
    -- Stationary point found.
 Normal termination of Gaussian 16 at Wed Dec  9 17:51:23 2020.

 --------------------------------------------------------------------
 #N Geom=AllCheck Guess=TCheck SCRF=Check GenChk RB3LYP/6-31G(d) Freq
 --------------------------------------------------------------------

 Structure from the checkpoint file:  "JID_2639.chk"
 -------------------------------
 CID_139049736_JID_2639_neutraal
 -------------------------------
 Charge =  0 Multiplicity = 1

 SCF Done:  E(RB3LYP) =  -512.561445572     A.U. after    1 cycles

  Exact polarizability: 169.559  -0.459 112.227   1.967   2.565  51.497
 Approx polarizability: 241.566  -1.802 209.805   4.713   1.329  82.424

                      1                      2                      3
                      A                      A                      A
 Frequencies --     35.9973                52.7015                96.7633
 Red. masses --      1.0948                 3.3209                 5.4975
 Frc consts  --      0.0008                 0.0054                 0.0303
 IR Inten    --      0.2290                 0.6789                 0.0692

                      4                      5                      6
                      A                      A                      A
 Frequencies --    131.3167               230.0977               295.7287
 Red. masses --      4.3338                 3.6863                 3.9996
 Frc consts  --      0.0440                 0.1150                 0.2061
 IR Inten    --      0.1738                 4.6890                 4.3525

                      7                      8                      9
                      A                      A                      A
 Frequencies --    342.0342               378.1642               419.1532
 Red. masses --      5.4551                 4.5658                 3.0488
 Frc consts  --      0.3760                 0.3847                 0.3156
 IR Inten    --      1.0393                 5.4123                 0.0247

                     10                     11                     12
                      A                      A                      A
 Frequencies --    474.4352               539.0428               630.9457
 Red. masses --      3.9943                 3.5221                 6.3846
 Frc consts  --      0.5297                 0.6030                 1.4975
 IR Inten    --      3.0003                 8.1899                 0.2468

                     13                     14                     15
                      A                      A                      A
 Frequencies --    646.4679               684.1773               692.0718
 Red. masses --      6.9877                 5.7002                 5.4337
 Frc consts  --      1.7206                 1.5721                 1.5334
 IR Inten    --      4.6889                 2.6371                 8.0353

                     16                     17                     18
                      A                      A                      A
 Frequencies --    705.0978               739.1039               777.7172
 Red. masses --      2.3529                 5.3481                 1.5497
 Frc consts  --      0.6892                 1.7213                 0.5522
 IR Inten    --     15.1753                26.0380                53.2478

                     19                     20                     21
                      A                      A                      A
 Frequencies --    784.6921               851.9529               930.7597
 Red. masses --      1.3350                 1.2472                 1.4033
 Frc consts  --      0.4843                 0.5334                 0.7163
 IR Inten    --      4.3505                 0.2941                 3.9667

                     22                     23                     24
                      A                      A                      A
 Frequencies --    971.6770               998.4471               999.0710
 Red. masses --      1.3413                 7.2019                 1.2603
 Frc consts  --      0.7461                 4.2301                 0.7411
 IR Inten    --      0.2112                 6.9259                 0.2445

                     25                     26                     27
                      A                      A                      A
 Frequencies --   1004.0212              1024.2401              1058.5056
 Red. masses --      4.0556                 6.0153                 2.2322
 Frc consts  --      2.4088                 3.7180                 1.4736
 IR Inten    --      3.0384                 0.3510                 2.8728

                     28                     29                     30
                      A                      A                      A
 Frequencies --   1072.8995              1107.6026              1125.6126
 Red. masses --      2.8073                 1.7468                 1.9937
 Frc consts  --      1.9039                 1.2626                 1.4883
 IR Inten    --     23.3710                12.1137                16.9966

                     31                     32                     33
                      A                      A                      A
 Frequencies --   1161.7318              1195.5298              1209.6110
 Red. masses --      1.3343                 1.1104                 1.5925
 Frc consts  --      1.0610                 0.9351                 1.3728
 IR Inten    --      0.0542                 0.3476                10.1107

                     34                     35                     36
                      A                      A                      A
 Frequencies --   1211.4797              1276.9517              1297.5135
 Red. masses --      1.4984                 2.6242                 5.1389
 Frc consts  --      1.2957                 2.5212                 5.0974
 IR Inten    --      6.8798                56.8159                 7.7993

                     37                     38                     39
                      A                      A                      A
 Frequencies --   1345.6160              1363.9898              1369.6332
 Red. masses --      4.5351                 3.6828                 2.2820
 Frc consts  --      4.8382                 4.0370                 2.5222
 IR Inten    --     31.0809                15.5928                 2.4826

                     40                     41                     42
                      A                      A                      A
 Frequencies --   1403.0060              1459.0925              1470.4247
 Red. masses --      4.5203                 1.1868                 3.6521
 Frc consts  --      5.2425                 1.4886                 4.6525
 IR Inten    --      1.4787                 0.3351                18.3427

                     43                     44                     45
                      A                      A                      A
 Frequencies --   1514.0049              1515.9637              1526.0813
 Red. masses --      2.3386                 1.0433                 1.0886
 Frc consts  --      3.1584                 1.4127                 1.4938
 IR Inten    --      9.3163                 8.0639                12.8380

                     46                     47                     48
                      A                      A                      A
 Frequencies --   1551.4418              1656.3571              1663.6086
 Red. masses --      2.5065                 6.2659                 5.6285
 Frc consts  --      3.5545                10.1285                 9.1779
 IR Inten    --     56.8704                 2.5955                19.7725

                     49                     50                     51
                      A                      A                      A
 Frequencies --   3078.0196              3144.6338              3194.5850
 Red. masses --      1.0347                 1.1059                 1.0858
 Frc consts  --      5.7755                 6.4433                 6.5290
 IR Inten    --     37.5696                15.9723                 0.1414

                     52                     53                     54
                      A                      A                      A
 Frequencies --   3204.5764              3206.1081              3215.4093
 Red. masses --      1.0898                 1.1023                 1.0940
 Frc consts  --      6.5940                 6.6757                 6.6643
 IR Inten    --     12.0617                 1.4784                24.8183

                     55                     56                     57
                      A                      A                      A
 Frequencies --   3225.4611              3240.5640              3289.0687
 Red. masses --      1.0953                 1.0934                 1.0956
 Frc consts  --      6.7139                 6.7651                 6.9833
 IR Inten    --      4.6461                 0.7058                 1.2768

 - Thermochemistry -
 -------------------
 Temperature   298.150 Kelvin.  Pressure   1.00000 Atm.
 Atom     1 has atomic number  6 and mass  12.00000

 Molecular mass:   159.07965 amu.
 Principal axes and moments of inertia in atomic units:
                           1         2         3
     Eigenvalues --   607.095993323.936773832.71423
           X            0.99991   0.01304  -0.00264
           Y           -0.01301   0.99987   0.00974
           Z            0.00277  -0.00970   0.99995
 This molecule is an asymmetric top.
 Rotational symmetry number  1.
 Warning -- assumption of classical behavior for rotation
           may cause significant error
 Rotational temperatures (Kelvin)      0.14267     0.02606     0.02260
 Rotational constants (GHZ):           2.97274     0.54295     0.47088
 Zero-point vibrational energy     441368.0 (Joules/Mol)
                                  105.48947 (Kcal/Mol)
 Warning -- explicit consideration of  11 degrees of freedom as
           vibrations may cause significant error
 Vibrational temperatures:     51.79    75.83   139.22   188.94   331.06
          (Kelvin)            425.49   492.11   544.09   603.07   682.61
                              775.56   907.79   930.12   984.38   995.74
                             1014.48  1063.41  1118.96  1129.00  1225.77
                             1339.16  1398.03  1436.54  1437.44  1444.56
                             1473.65  1522.95  1543.66  1593.59  1619.51
                             1671.47  1720.10  1740.36  1743.05  1837.25
                             1866.83  1936.04  1962.48  1970.60  2018.61
                             2099.31  2115.61  2178.32  2181.13  2195.69
                             2232.18  2383.13  2393.56  4428.58  4524.43
                             4596.30  4610.67  4612.87  4626.26  4640.72
                             4662.45  4732.24

 Zero-point correction=                           0.168108 (Hartree/Particle)
 Thermal correction to Energy=                    0.177878
 Thermal correction to Enthalpy=                  0.178823
 Thermal correction to Gibbs Free Energy=         0.131429
 Sum of electronic and zero-point Energies=           -512.393337
 Sum of electronic and thermal Energies=              -512.383567
 Sum of electronic and thermal Enthalpies=            -512.382623
 Sum of electronic and thermal Free Energies=         -512.430017

                     E (Thermal)             CV                S
                      KCal/Mol        Cal/Mol-Kelvin    Cal/Mol-Kelvin
 Total                  111.620             37.038             99.749
 Electronic               0.000              0.000              0.000
 Translational            0.889              2.981             41.102
 Rotational               0.889              2.981             30.426
 Vibrational            109.843             31.076             28.221
 Vibration     1          0.594              1.982              5.468
 Vibration     2          0.596              1.977              4.713
 Vibration     3          0.603              1.951              3.518
 Vibration     4          0.612              1.922              2.927
 Vibration     5          0.652              1.795              1.878
 Vibration     6          0.690              1.682              1.441
 Vibration     7          0.721              1.591              1.203
 Vibration     8          0.748              1.517              1.046
 Vibration     9          0.782              1.429              0.895
 Vibration    10          0.831              1.307              0.725
 Vibration    11          0.894              1.164              0.567

 Optimization completed.
    -- Stationary point found.
 Normal termination of Gaussian 16 at Wed Dec  9 17:55:47 2020.

 ----------------------------------------------------------------------
 # B3LYP/6-311++G(d,p) empiricaldispersion=gd3bj scf=xqc pop=npa geom=c
 heck
 ----------------------------------------------------------------------

 ---------------------------------------
 CID_139049736_JID_2639_Energie_neutraal
 ---------------------------------------
 Structure from the checkpoint file:  "JID_2639.chk"
 Charge =  0 Multiplicity = 1

 SCF Done:  E(RB3LYP) =  -512.697416895     A.U. after   15 cycles
 Normal termination of Gaussian 16 at Wed Dec  9 17:57:50 2020.

 ----------------------------------------------------------------------
 # B3LYP/6-311++G(d,p) empiricaldispersion=gd3bj scf=xqc pop=npa geom=c
 heck
 ----------------------------------------------------------------------

 -------------------------------------
 CID_139049736_JID_2639_Energie_kation
 -------------------------------------
 Structure from the checkpoint file:  "JID_2639.chk"
 Charge =  1 Multiplicity = 2

 SCF Done:  E(UB3LYP) =  -512.408220653     A.U. after   22 cycles
 Normal termination of Gaussian 16 at Wed Dec  9 18:01:38 2020.
 Gaussian 16:  ES64L-G16RevA.03 25-Dec-2016

 ----------------------------------------------------------------------
 # B3LYP/6-311++G(d,p) empiricaldispersion=gd3bj scf=xqc pop=npa geom=c
 heck
 ----------------------------------------------------------------------

 ------------------------------------
 CID_139049736_JID_2639_Energie_anion
 ------------------------------------
 Structure from the checkpoint file:  "JID_2639.chk"
 Charge = -1 Multiplicity = 2

                         Standard orientation:
 ---------------------------------------------------------------------
 Center     Atomic      Atomic             Coordinates (Angstroms)
 Number     Number       Type             X           Y           Z
 ---------------------------------------------------------------------
      1          6           0       -3.786102   -0.957589    0.317598
      2          7           0       -2.621705   -0.124902    0.050661
      3          7           0       -1.422022   -0.695520    0.234940
      4          7           0       -0.597459    0.294418   -0.070720
      5          6           0       -1.285339    1.430463   -0.429200
      6          6           0       -2.661753    1.192847   -0.361917
      7          6           0        0.809642    0.079749   -0.016407
      8          6           0        1.329964   -1.186085   -0.294151
      9          6           0        2.708750   -1.377330   -0.251176
     10          6           0        3.561576   -0.314464    0.054193
     11          6           0        3.028746    0.945517    0.328595
     12          6           0        1.649983    1.148058    0.301466
     13          1           0       -3.767726   -1.846884   -0.318250
     14          1           0       -4.659176   -0.348183    0.092343
     15          1           0       -3.798237   -1.264816    1.367017
     16          1           0       -0.739996    2.308972   -0.739218
     17          1           0        0.653676   -1.996533   -0.538095
     18          1           0        3.117604   -2.360198   -0.465330
     19          1           0        4.636008   -0.468618    0.080892
     20          1           0        3.684782    1.774205    0.577059
     21          1           0        1.228572    2.117087    0.545411
 ---------------------------------------------------------------------

 SCF Done:  E(UB3LYP) =  -512.703190332     A.U. after   29 cycles

 The electronic state is 2-A.
 Alpha  occ. eigenvalues --  -14.24573 -14.22557 -14.19662 -10.07321 -10.06518
 Alpha  occ. eigenvalues --  -10.04413 -10.04335 -10.03838 -10.03415 -10.02960
 Alpha  occ. eigenvalues --  -10.02831  -9.99697  -0.95018  -0.79257  -0.71890
 Alpha  occ. eigenvalues --   -0.64824  -0.63371  -0.61519  -0.57889  -0.49794
 Alpha  occ. eigenvalues --   -0.48670  -0.45471  -0.43167  -0.39060  -0.35791
 Alpha  occ. eigenvalues --   -0.34821  -0.33939  -0.31829  -0.30448  -0.29611
 Alpha  occ. eigenvalues --   -0.29123  -0.27983  -0.24540  -0.23836  -0.23106
 Alpha  occ. eigenvalues --   -0.22009  -0.18368  -0.17026  -0.12879  -0.10906
 Alpha  occ. eigenvalues --   -0.09770  -0.05815   0.05151
 Alpha virt. eigenvalues --    0.08534   0.09096   0.09919   0.10938   0.11356
 Alpha virt. eigenvalues --    0.11895   0.12461   0.13177   0.13805   0.14015
 Alpha virt. eigenvalues --    0.14873   0.16660   0.16841   0.17301   0.18295

  Beta  occ. eigenvalues --  -14.24456 -14.22236 -14.19075 -10.07338 -10.06258
  Beta  occ. eigenvalues --  -10.04439 -10.04370 -10.03757 -10.03316 -10.02677
  Beta  occ. eigenvalues --  -10.02674  -9.99786  -0.94404  -0.78693  -0.71589
  Beta  occ. eigenvalues --   -0.64192  -0.63038  -0.61280  -0.57648  -0.49356
  Beta  occ. eigenvalues --   -0.48474  -0.45265  -0.42893  -0.38821  -0.35544
  Beta  occ. eigenvalues --   -0.33836  -0.33625  -0.31571  -0.30314  -0.29521
  Beta  occ. eigenvalues --   -0.28699  -0.27590  -0.24374  -0.23084  -0.22856
  Beta  occ. eigenvalues --   -0.21842  -0.17616  -0.15588  -0.12256  -0.09500
  Beta  occ. eigenvalues --   -0.07924  -0.05848
  Beta virt. eigenvalues --    0.08464   0.09036   0.09788   0.10619   0.10903
  Beta virt. eigenvalues --    0.11528   0.12164   0.12632   0.13112   0.13885
  Beta virt. eigenvalues --    0.14814   0.16005   0.16591   0.16737   0.17244

 Mulliken charges and spin densities:
               1          2
     1  C   -0.187495  -0.050061
     2  N    0.115019   0.069692
     3  N   -0.288989   0.353392
     4  N    0.370009  -0.004337
     5  C   -0.225874   0.179759
     6  C   -0.583872  -0.078463
     7  C   -0.470322  -0.069373
     8  C    0.046263   0.162810
     9  C   -0.148498  -0.007485
    10  C   -0.481810   0.209968
    11  C   -0.170977   0.007691
    12  C    0.054139   0.112691
    13  H    0.079769   0.057678
    14  H    0.118138   0.002023
    15  H    0.112645   0.031050
    16  H    0.060511  -0.000306
    17  H    0.153590   0.011967
    18  H    0.129975   0.003187
    19  H    0.089684  -0.018500
    20  H    0.133503   0.001027
    21  H    0.094592   0.025589
 Sum of Mulliken charges =  -1.00000   1.00000

 Dipole moment (field-independent basis, Debye):
    X=              3.1436    Y=             -2.1921    Z=              0.7332  Tot=              3.9019
 Quadrupole moment (field-independent basis, Debye-Ang):
   XX=           -109.8172   YY=            -84.4416   ZZ=            -83.0462
   XY=             12.3386   XZ=             -3.7201   YZ=              2.7920

 Summary of Natural Population Analysis:

                                       Natural Population
                Natural  -----------------------------------------------
    Atom  No    Charge         Core      Valence    Rydberg      Total
 -----------------------------------------------------------------------
      C    1   -0.17091      0.99965     2.16469    0.00658     3.17091
      N    2   -0.08802      0.99971     2.57329    0.01502     3.58802
      N    3    0.02416      0.99974     2.46194    0.01416     3.47584
      N    4   -0.08109      0.99963     2.56790    0.01357     3.58109
      C    5   -0.04688      0.99963     2.03376    0.01349     3.04688
      C    6   -0.13836      0.99965     2.12124    0.01747     3.13836
      C    7    0.11421      0.99947     1.87498    0.01134     2.88579
      C    8   -0.08613      0.99953     2.07653    0.01007     3.08613
      C    9   -0.11262      0.99958     2.10450    0.00854     3.11262
      C   10   -0.06667      0.99957     2.05774    0.00936     3.06667
      C   11   -0.11191      0.99958     2.10361    0.00872     3.11191
      C   12   -0.09642      0.99954     2.08700    0.00989     3.09642
      H   13    0.09270      0.00000     0.40600    0.00130     0.40730
      H   14    0.10355      0.00000     0.39560    0.00085     0.39645
      H   15    0.09274      0.00000     0.40619    0.00106     0.40726
      H   16    0.09320      0.00000     0.40559    0.00122     0.40680
      H   17    0.10730      0.00000     0.39185    0.00085     0.39270
      H   18    0.09172      0.00000     0.40740    0.00089     0.40828
      H   19    0.08734      0.00000     0.41164    0.00103     0.41266
      H   20    0.09168      0.00000     0.40744    0.00088     0.40832
      H   21    0.10043      0.00000     0.39870    0.00087     0.39957
 =======================================================================
   * Total *    0.00000     11.99528    29.85758    0.14714    42.00000

 Normal termination of Gaussian 16 at Wed Dec  9 18:06:53 2020.
