 Gaussian 16, Revision A.03,

 -----------------------------------------------------------
 # opt freq B3LYP/6-31G(d) empiricaldispersion=gd3bj scf=xqc
 -----------------------------------------------------------

 ------------------------------
 CID_64689413_JID_8569_neutraal
 ------------------------------
 Symbolic Z-matrix:
 Charge =  0 Multiplicity = 1

 SCF Done:  E(RB3LYP) =  -779.409900859     A.U. after   15 cycles
 SCF Done:  E(RB3LYP) =  -779.415401349     A.U. after   13 cycles
 SCF Done:  E(RB3LYP) =  -779.415766569     A.U. after   13 cycles
 SCF Done:  E(RB3LYP) =  -779.416458210     A.U. after   12 cycles
 SCF Done:  E(RB3LYP) =  -779.416569177     A.U. after   11 cycles
 SCF Done:  E(RB3LYP) =  -779.416652830     A.U. after   11 cycles
 SCF Done:  E(RB3LYP) =  -779.416718632     A.U. after   12 cycles
 SCF Done:  E(RB3LYP) =  -779.416754106     A.U. after   11 cycles
 SCF Done:  E(RB3LYP) =  -779.416793548     A.U. after   11 cycles
 SCF Done:  E(RB3LYP) =  -779.416844844     A.U. after   11 cycles
 SCF Done:  E(RB3LYP) =  -779.417426756     A.U. after   10 cycles
 SCF Done:  E(RB3LYP) =  -779.417431426     A.U. after   10 cycles
 SCF Done:  E(RB3LYP) =  -779.417432256     A.U. after   10 cycles
 SCF Done:  E(RB3LYP) =  -779.417432626     A.U. after    8 cycles
 SCF Done:  E(RB3LYP) =  -779.417432694     A.U. after    8 cycles
 Optimization completed.
    -- Stationary point found.
 Normal termination of Gaussian 16 at Fri Dec 11 21:27:45 2020.

 --------------------------------------------------------------------
 #N Geom=AllCheck Guess=TCheck SCRF=Check GenChk RB3LYP/6-31G(d) Freq
 --------------------------------------------------------------------

 Structure from the checkpoint file:  "JID_8569.chk"
 ------------------------------
 CID_64689413_JID_8569_neutraal
 ------------------------------
 Charge =  0 Multiplicity = 1

 SCF Done:  E(RB3LYP) =  -779.417432694     A.U. after    1 cycles

  Exact polarizability: 182.500  15.258 169.551 -14.838  12.826 122.053
 Approx polarizability: 258.147  28.960 281.046 -29.631  26.058 204.470

                      1                      2                      3
                      A                      A                      A
 Frequencies --     24.0437                39.7610                70.7133
 Red. masses --      3.4731                 3.7475                 4.9268
 Frc consts  --      0.0012                 0.0035                 0.0145
 IR Inten    --      0.4130                 1.4253                 0.9366

                      4                      5                      6
                      A                      A                      A
 Frequencies --     84.4022               101.2412               126.3399
 Red. masses --      1.9125                 4.5074                 4.5920
 Frc consts  --      0.0080                 0.0272                 0.0432
 IR Inten    --      0.1452                 0.3928                 2.0537

                      7                      8                      9
                      A                      A                      A
 Frequencies --    174.9282               193.2814               214.1963
 Red. masses --      4.0707                 2.7094                 2.4197
 Frc consts  --      0.0734                 0.0596                 0.0654
 IR Inten    --      0.4793                 0.3567                 0.7384

                     10                     11                     12
                      A                      A                      A
 Frequencies --    254.9347               266.5515               309.0530
 Red. masses --      1.2998                 3.4826                 4.1959
 Frc consts  --      0.0498                 0.1458                 0.2361
 IR Inten    --      0.4532                 1.5908                 5.9324

                     13                     14                     15
                      A                      A                      A
 Frequencies --    316.8460               348.1908               367.9053
 Red. masses --      5.1922                 3.0051                 2.5436
 Frc consts  --      0.3071                 0.2147                 0.2029
 IR Inten    --      2.2215                 0.6650                 1.2615

                     16                     17                     18
                      A                      A                      A
 Frequencies --    406.6128               418.4512               451.2949
 Red. masses --      1.6052                 2.0352                 2.9188
 Frc consts  --      0.1564                 0.2100                 0.3502
 IR Inten    --     17.0493                14.3669                 4.0051

                     19                     20                     21
                      A                      A                      A
 Frequencies --    453.6193               501.8890               532.6526
 Red. masses --      3.6110                 3.4882                 3.6542
 Frc consts  --      0.4378                 0.5177                 0.6108
 IR Inten    --      0.8847                 6.3416                14.8398

                     22                     23                     24
                      A                      A                      A
 Frequencies --    569.0092               579.8118               642.5185
 Red. masses --      6.7415                 5.0723                 2.6674
 Frc consts  --      1.2860                 1.0047                 0.6488
 IR Inten    --      9.0610                 1.6100                 0.2271

                     25                     26                     27
                      A                      A                      A
 Frequencies --    672.6280               691.8676               710.0562
 Red. masses --      1.4219                 5.3009                 2.6285
 Frc consts  --      0.3790                 1.4950                 0.7808
 IR Inten    --    221.9867                19.9382                 2.7449

                     28                     29                     30
                      A                      A                      A
 Frequencies --    728.7229               748.9414               766.7818
 Red. masses --      5.9607                 3.5105                 1.4172
 Frc consts  --      1.8650                 1.1602                 0.4909
 IR Inten    --      0.8239                 5.9093                88.6090

                     31                     32                     33
                      A                      A                      A
 Frequencies --    780.7475               810.4571               835.1812
 Red. masses --      6.5284                 1.5151                 1.6361
 Frc consts  --      2.3446                 0.5863                 0.6724
 IR Inten    --      5.4234                 1.7645                 1.0360

                     34                     35                     36
                      A                      A                      A
 Frequencies --    854.0982               859.8204               866.1856
 Red. masses --      3.2485                 1.8429                 2.3397
 Frc consts  --      1.3962                 0.8027                 1.0343
 IR Inten    --      4.2282                 7.7279                 1.8670

                     37                     38                     39
                      A                      A                      A
 Frequencies --    904.8597               945.7891               951.6275
 Red. masses --      2.7772                 1.8247                 1.4106
 Frc consts  --      1.3397                 0.9617                 0.7526
 IR Inten    --      0.9687                 0.5266                 3.9322

                     40                     41                     42
                      A                      A                      A
 Frequencies --    963.4676               974.0599              1002.9700
 Red. masses --      1.8555                 1.2561                 1.6444
 Frc consts  --      1.0148                 0.7022                 0.9746
 IR Inten    --      2.6760                 1.3418                 2.1506

                     43                     44                     45
                      A                      A                      A
 Frequencies --   1030.9480              1033.7070              1047.1145
 Red. masses --      8.5367                 3.4599                 2.1456
 Frc consts  --      5.3458                 2.1783                 1.3861
 IR Inten    --      5.3876                 8.2341                 0.3495

                     46                     47                     48
                      A                      A                      A
 Frequencies --   1065.7952              1067.2859              1075.6105
 Red. masses --      2.2985                 1.9446                 2.0614
 Frc consts  --      1.5383                 1.3051                 1.4052
 IR Inten    --      1.7622                 2.6867                 3.3196

                     49                     50                     51
                      A                      A                      A
 Frequencies --   1102.4613              1128.6880              1146.4750
 Red. masses --      1.8317                 5.7248                 4.1846
 Frc consts  --      1.3117                 4.2969                 3.2407
 IR Inten    --      4.1970                35.6436                18.3750

                     52                     53                     54
                      A                      A                      A
 Frequencies --   1159.4721              1183.2700              1197.8606
 Red. masses --      1.8765                 1.2587                 1.1043
 Frc consts  --      1.4863                 1.0384                 0.9336
 IR Inten    --      6.1712                 5.1935                 9.4523

                     55                     56                     57
                      A                      A                      A
 Frequencies --   1206.7495              1232.6544              1265.2426
 Red. masses --      2.0212                 1.6053                 1.4120
 Frc consts  --      1.7341                 1.4371                 1.3317
 IR Inten    --      4.4367                 7.7720                 2.5122

                     58                     59                     60
                      A                      A                      A
 Frequencies --   1277.7657              1282.0594              1301.7135
 Red. masses --      2.0294                 2.2922                 1.7960
 Frc consts  --      1.9522                 2.2199                 1.7930
 IR Inten    --      3.9547                 2.4290                 8.4258

                     61                     62                     63
                      A                      A                      A
 Frequencies --   1305.8193              1328.8289              1347.2935
 Red. masses --      2.1954                 1.3358                 4.2555
 Frc consts  --      2.2056                 1.3897                 4.5512
 IR Inten    --      9.2721                 0.3159                 7.4102

                     64                     65                     66
                      A                      A                      A
 Frequencies --   1352.0737              1354.9507              1364.8827
 Red. masses --      2.1088                 1.4593                 1.6430
 Frc consts  --      2.2714                 1.5785                 1.8033
 IR Inten    --     21.2859                 4.7922                 1.8824

                     67                     68                     69
                      A                      A                      A
 Frequencies --   1372.8739              1379.5396              1414.3733
 Red. masses --      3.0632                 1.5827                 8.4816
 Frc consts  --      3.4016                 1.7747                 9.9966
 IR Inten    --     10.5799                 6.3004                69.1035

                     70                     71                     72
                      A                      A                      A
 Frequencies --   1442.5427              1495.4335              1513.5703
 Red. masses --      1.2424                 2.7297                 1.0811
 Frc consts  --      1.5232                 3.5966                 1.4592
 IR Inten    --      6.9276                20.7355                 5.6563

                     73                     74                     75
                      A                      A                      A
 Frequencies --   1517.0683              1523.1877              1528.9414
 Red. masses --      1.0884                 1.0702                 1.3516
 Frc consts  --      1.4759                 1.4629                 1.8616
 IR Inten    --      5.9676                 3.8812                16.8509

                     76                     77                     78
                      A                      A                      A
 Frequencies --   1535.1758              1541.4138              1553.8874
 Red. masses --      1.8986                 1.0731                 1.1035
 Frc consts  --      2.6363                 1.5022                 1.5698
 IR Inten    --     41.3956                 4.7843                 0.4670

                     79                     80                     81
                      A                      A                      A
 Frequencies --   1572.6586              1634.4191              1671.9082
 Red. masses --      4.8495                 5.5628                 3.8762
 Frc consts  --      7.0667                 8.7553                 6.3838
 IR Inten    --     23.2069                11.3024                28.0143

                     82                     83                     84
                      A                      A                      A
 Frequencies --   1702.6825              3066.2085              3068.0950
 Red. masses --      1.2956                 1.0675                 1.0590
 Frc consts  --      2.2130                 5.9130                 5.8735
 IR Inten    --    135.5033                23.3968                14.4572

                     85                     86                     87
                      A                      A                      A
 Frequencies --   3070.1896              3079.8339              3091.2449
 Red. masses --      1.0413                 1.0625                 1.0657
 Frc consts  --      5.7829                 5.9381                 6.0000
 IR Inten    --     13.4969                46.2207                 5.3071

                     88                     89                     90
                      A                      A                      A
 Frequencies --   3103.5059              3121.3699              3139.3933
 Red. masses --      1.0986                 1.1019                 1.1047
 Frc consts  --      6.2345                 6.3254                 6.4148
 IR Inten    --     10.8728                29.5998                13.8541

                     91                     92                     93
                      A                      A                      A
 Frequencies --   3141.9974              3145.8146              3151.3979
 Red. masses --      1.1028                 1.1005                 1.1026
 Frc consts  --      6.4146                 6.4163                 6.4517
 IR Inten    --     19.6662                27.9435                14.1617

                     94                     95                     96
                      A                      A                      A
 Frequencies --   3178.9940              3196.6984              3208.3070
 Red. masses --      1.0872                 1.0899                 1.0909
 Frc consts  --      6.4736                 6.5622                 6.6157
 IR Inten    --      9.9823                11.7291                19.3455

                     97                     98                     99
                      A                      A                      A
 Frequencies --   3222.5271              3536.0485              3643.1801
 Red. masses --      1.0963                 1.0499                 1.0967
 Frc consts  --      6.7079                 7.7344                 8.5766
 IR Inten    --     12.9926                33.9605                27.6169

 - Thermochemistry -
 -------------------
 Temperature   298.150 Kelvin.  Pressure   1.00000 Atm.
 Atom     1 has atomic number  6 and mass  12.00000

 Molecular mass:   243.14840 amu.
 Principal axes and moments of inertia in atomic units:
                           1         2         3
     Eigenvalues --  2738.367425182.734216667.90684
           X            0.99977  -0.02135  -0.00050
           Y            0.02136   0.99945   0.02548
           Z           -0.00005  -0.02548   0.99968
 This molecule is an asymmetric top.
 Rotational symmetry number  1.
 Warning -- assumption of classical behavior for rotation
           may cause significant error
 Rotational temperatures (Kelvin)      0.03163     0.01671     0.01299
 Rotational constants (GHZ):           0.65906     0.34822     0.27066
 Zero-point vibrational energy     777212.1 (Joules/Mol)
                                  185.75815 (Kcal/Mol)
 Warning -- explicit consideration of  23 degrees of freedom as
           vibrations may cause significant error
 Vibrational temperatures:     34.59    57.21   101.74   121.44   145.66
          (Kelvin)            181.78   251.68   278.09   308.18   366.79
                              383.51   444.66   455.87   500.97   529.33
                              585.03   602.06   649.31   652.66   722.11
                              766.37   818.68   834.22   924.44   967.76
                              995.44  1021.61  1048.47  1077.56  1103.23
                             1123.32  1166.07  1201.64  1228.86  1237.09
                             1246.25  1301.89  1360.78  1369.18  1386.21
                             1401.45  1443.05  1483.30  1487.27  1506.56
                             1533.44  1535.59  1547.56  1586.20  1623.93
                             1649.52  1668.22  1702.46  1723.45  1736.24
                             1773.51  1820.40  1838.42  1844.60  1872.88
                             1878.78  1911.89  1938.45  1945.33  1949.47
                             1963.76  1975.26  1984.85  2034.97  2075.50
                             2151.60  2177.69  2182.72  2191.53  2199.81
                             2208.78  2217.75  2235.70  2262.71  2351.56
                             2405.50  2449.78  4411.59  4414.30  4417.32
                             4431.19  4447.61  4465.25  4490.96  4516.89
                             4520.63  4526.13  4534.16  4573.86  4599.34
                             4616.04  4636.50  5087.59  5241.72

 Zero-point correction=                           0.296024 (Hartree/Particle)
 Thermal correction to Energy=                    0.311603
 Thermal correction to Enthalpy=                  0.312547
 Thermal correction to Gibbs Free Energy=         0.252301
 Sum of electronic and zero-point Energies=           -779.121408
 Sum of electronic and thermal Energies=              -779.105830
 Sum of electronic and thermal Enthalpies=            -779.104886
 Sum of electronic and thermal Free Energies=         -779.165132

                     E (Thermal)             CV                S
                      KCal/Mol        Cal/Mol-Kelvin    Cal/Mol-Kelvin
 Total                  195.534             61.528            126.799
 Electronic               0.000              0.000              0.000
 Translational            0.889              2.981             42.366
 Rotational               0.889              2.981             32.914
 Vibrational            193.756             55.567             51.518
 Vibration     1          0.593              1.985              6.269
 Vibration     2          0.594              1.981              5.271
 Vibration     3          0.598              1.968              4.133
 Vibration     4          0.601              1.960              3.786
 Vibration     5          0.604              1.948              3.430
 Vibration     6          0.611              1.927              3.001
 Vibration     7          0.627              1.873              2.382
 Vibration     8          0.635              1.849              2.196
 Vibration     9          0.644              1.819              2.008
 Vibration    10          0.665              1.754              1.696
 Vibration    11          0.672              1.734              1.618
 Vibration    12          0.698              1.656              1.367
 Vibration    13          0.704              1.641              1.326
 Vibration    14          0.726              1.579              1.174
 Vibration    15          0.741              1.538              1.089
 Vibration    16          0.771              1.456              0.939
 Vibration    17          0.781              1.430              0.897
 Vibration    18          0.810              1.358              0.792
 Vibration    19          0.812              1.353              0.785
 Vibration    20          0.857              1.246              0.653
 Vibration    21          0.888              1.178              0.581
 Vibration    22          0.925              1.098              0.506
 Vibration    23          0.936              1.075              0.486

                           ! Non-Optimized Parameters !
 Normal termination of Gaussian 16 at Fri Dec 11 21:45:15 2020.

 ----------------------------------------------------------------------
 # B3LYP/6-311++G(d,p) empiricaldispersion=gd3bj scf=xqc pop=npa geom=c
 heck
 ----------------------------------------------------------------------

 --------------------------------------
 CID_64689413_JID_8569_Energie_neutraal
 --------------------------------------
 Structure from the checkpoint file:  "JID_8569.chk"
 Charge =  0 Multiplicity = 1

 SCF Done:  E(RB3LYP) =  -779.624031998     A.U. after   16 cycles
 Normal termination of Gaussian 16 at Fri Dec 11 21:53:12 2020.

 ----------------------------------------------------------------------
 # B3LYP/6-311++G(d,p) empiricaldispersion=gd3bj scf=xqc pop=npa geom=c
 heck
 ----------------------------------------------------------------------

 ------------------------------------
 CID_64689413_JID_8569_Energie_kation
 ------------------------------------
 Structure from the checkpoint file:  "JID_8569.chk"
 Charge =  1 Multiplicity = 2

 SCF Done:  E(UB3LYP) =  -779.331888280     A.U. after   25 cycles
 Normal termination of Gaussian 16 at Fri Dec 11 22:11:26 2020.
 Gaussian 16:  ES64L-G16RevA.03 25-Dec-2016

 ----------------------------------------------------------------------
 # B3LYP/6-311++G(d,p) empiricaldispersion=gd3bj scf=xqc pop=npa geom=c
 heck
 ----------------------------------------------------------------------

 -----------------------------------
 CID_64689413_JID_8569_Energie_anion
 -----------------------------------
 Structure from the checkpoint file:  "JID_8569.chk"
 Charge = -1 Multiplicity = 2

                         Standard orientation:
 ---------------------------------------------------------------------
 Center     Atomic      Atomic             Coordinates (Angstroms)
 Number     Number       Type             X           Y           Z
 ---------------------------------------------------------------------
      1          6           0        1.115041   -0.392875    1.689916
      2          6           0        1.660429   -0.115954    0.281595
      3          6           0        1.672602   -1.389453   -0.593336
      4          6           0        2.966416   -2.136032   -0.189386
      5          6           0        3.879873   -1.077199    0.491745
      6          6           0        3.154431    0.267824    0.313502
      7          7           0        0.857903    0.984022   -0.307273
      8          6           0       -0.479785    1.103876   -0.520696
      9          7           0       -0.733232    2.372769   -0.821940
     10          7           0        0.458934    3.020982   -0.795890
     11          7           0        1.415454    2.210072   -0.486969
     12          6           0       -1.510591    0.063800   -0.379847
     13          6           0       -1.527629   -1.068461   -1.201253
     14          6           0       -2.493829   -2.058332   -1.047212
     15          6           0       -3.465944   -1.904206   -0.055684
     16          6           0       -3.488375   -0.768704    0.745722
     17          6           0       -2.528093    0.245628    0.589557
     18          7           0       -2.531157    1.367468    1.407766
     19          1           0        0.072380   -0.718581    1.650866
     20          1           0        1.700075   -1.181122    2.172510
     21          1           0        1.175635    0.509698    2.305692
     22          1           0        0.776388   -1.996515   -0.455023
     23          1           0        1.714565   -1.088030   -1.646108
     24          1           0        3.443196   -2.584255   -1.065841
     25          1           0        2.742487   -2.956976    0.498891
     26          1           0        4.881727   -1.047595    0.054158
     27          1           0        4.008576   -1.308411    1.554237
     28          1           0        3.422495    0.725089   -0.642929
     29          1           0        3.380997    0.998170    1.094283
     30          1           0       -0.776757   -1.158400   -1.978823
     31          1           0       -2.493303   -2.929993   -1.693288
     32          1           0       -4.226348   -2.667536    0.084130
     33          1           0       -4.261236   -0.648837    1.500938
     34          1           0       -2.152610    2.202717    0.973068
     35          1           0       -3.410857    1.543910    1.875634
 ---------------------------------------------------------------------

 SCF Done:  E(UB3LYP) =  -779.616376772     A.U. after   33 cycles
 SCF Done:  E(UB3LYP) =  -779.616376772     a.u. after    1 cycles

 The electronic state is 2-A.
 Alpha  occ. eigenvalues --  -14.29612 -14.26702 -14.25919 -14.22444 -14.21813
 Alpha  occ. eigenvalues --  -10.13915 -10.13666 -10.11677 -10.07841 -10.07426
 Alpha  occ. eigenvalues --  -10.07375 -10.07246 -10.07231 -10.07204 -10.06801
 Alpha  occ. eigenvalues --  -10.06716 -10.06497 -10.06488  -1.02366  -0.84464
 Alpha  occ. eigenvalues --   -0.82754  -0.78107  -0.74867  -0.73742  -0.65979
 Alpha  occ. eigenvalues --   -0.65074  -0.62973  -0.62421  -0.58624  -0.54848
 Alpha  occ. eigenvalues --   -0.54707  -0.51623  -0.50001  -0.47350  -0.46557
 Alpha  occ. eigenvalues --   -0.43280  -0.41788  -0.41508  -0.39359  -0.38546
 Alpha  occ. eigenvalues --   -0.37682  -0.34999  -0.34543  -0.33336  -0.33077
 Alpha  occ. eigenvalues --   -0.32460  -0.30933  -0.29886  -0.29594  -0.28439
 Alpha  occ. eigenvalues --   -0.27165  -0.26515  -0.25281  -0.25096  -0.24887
 Alpha  occ. eigenvalues --   -0.24393  -0.23959  -0.22600  -0.21689  -0.19888
 Alpha  occ. eigenvalues --   -0.19769  -0.18940  -0.18087  -0.15095  -0.11246
 Alpha  occ. eigenvalues --    0.04261
 Alpha virt. eigenvalues --    0.06031   0.06377   0.07281   0.07634   0.08363
 Alpha virt. eigenvalues --    0.08856   0.08885   0.09585   0.10006   0.10532
 Alpha virt. eigenvalues --    0.11063   0.11214   0.11614   0.12325   0.12720

  Beta  occ. eigenvalues --  -14.29506 -14.26622 -14.25940 -14.22414 -14.21793
  Beta  occ. eigenvalues --  -10.13830 -10.13671 -10.11655 -10.07750 -10.07413
  Beta  occ. eigenvalues --  -10.07370 -10.07207 -10.07178 -10.07159 -10.06776
  Beta  occ. eigenvalues --  -10.06572 -10.06515 -10.06454  -1.02266  -0.84349
  Beta  occ. eigenvalues --   -0.82681  -0.77961  -0.74819  -0.73599  -0.65834
  Beta  occ. eigenvalues --   -0.64921  -0.62856  -0.62381  -0.58560  -0.54752
  Beta  occ. eigenvalues --   -0.54512  -0.51483  -0.49916  -0.47280  -0.46467
  Beta  occ. eigenvalues --   -0.43216  -0.41682  -0.41436  -0.39228  -0.38426
  Beta  occ. eigenvalues --   -0.37507  -0.34968  -0.34467  -0.33239  -0.33018
  Beta  occ. eigenvalues --   -0.32384  -0.30876  -0.29785  -0.29540  -0.28193
  Beta  occ. eigenvalues --   -0.27084  -0.26442  -0.25202  -0.25037  -0.24832
  Beta  occ. eigenvalues --   -0.24333  -0.23905  -0.22563  -0.21429  -0.19576
  Beta  occ. eigenvalues --   -0.19465  -0.18739  -0.18002  -0.14473  -0.10977
  Beta virt. eigenvalues --    0.06415   0.06880   0.07439   0.07777   0.08195
  Beta virt. eigenvalues --    0.08685   0.09123   0.09313   0.09798   0.10181
  Beta virt. eigenvalues --    0.10703   0.11300   0.11411   0.11822   0.12543

 Mulliken charges and spin densities:
               1          2
     1  C    0.281099  -0.851297
     2  C   -1.088566   0.941508
     3  C   -0.305922   0.199345
     4  C    0.568205  -1.213652
     5  C    0.322909  -0.775488
     6  C   -0.685668   0.246501
     7  N    0.195049   0.056420
     8  C    0.353274  -0.825358
     9  N   -0.181672  -0.007950
    10  N    0.159542   0.029196
    11  N    0.183396  -0.027584
    12  C    1.507594   0.076857
    13  C   -0.006389   0.188019
    14  C   -0.445760  -0.028826
    15  C    0.105636  -0.309574
    16  C   -0.147736  -0.159208
    17  C   -1.532632   0.413739
    18  N   -0.332490   0.060312
    19  H    0.195348  -0.027389
    20  H   -0.109814   0.289232
    21  H    0.080075   0.090984
    22  H    0.262419  -0.075360
    23  H    0.060873   0.111310
    24  H   -0.200422   0.345241
    25  H   -0.260218   0.438337
    26  H   -0.147669   0.308337
    27  H   -0.113981   0.264054
    28  H    0.101762   0.090414
    29  H    0.127961   0.063799
    30  H    0.109385   0.049751
    31  H   -0.004266   0.153937
    32  H   -0.050816   0.184932
    33  H   -0.362492   0.495695
    34  H    0.268459   0.031397
    35  H    0.093529   0.172368
 Sum of Mulliken charges =  -1.00000   1.00000

 Dipole moment (field-independent basis, Debye):
    X=             -0.9668    Y=              0.1755    Z=             -0.4406  Tot=              1.0769
 Quadrupole moment (field-independent basis, Debye-Ang):
   XX=           -174.2592   YY=           -158.5183   ZZ=           -136.1933
   XY=              5.2981   XZ=              0.1772   YZ=              9.4299

 Summary of Natural Population Analysis:

                                       Natural Population
                Natural  -----------------------------------------------
    Atom  No    Charge         Core      Valence    Rydberg      Total
 -----------------------------------------------------------------------
      C    1   -0.29034      0.99960     2.28384    0.00690     3.29034
      C    2    0.07016      0.99954     1.91645    0.01385     2.92984
      C    3   -0.19467      0.99958     2.18577    0.00932     3.19467
      C    4   -0.19345      0.99965     2.18580    0.00801     3.19345
      C    5   -0.19458      0.99964     2.18661    0.00833     3.19458
      C    6   -0.19233      0.99959     2.18321    0.00953     3.19233
      N    7   -0.10450      0.99957     2.59010    0.01482     3.60450
      C    8    0.20361      0.99957     1.78008    0.01674     2.79639
      N    9   -0.17667      0.99969     2.66405    0.01292     3.67667
      N   10   -0.05257      0.99981     2.53465    0.01811     3.55257
      N   11   -0.03676      0.99978     2.52162    0.01536     3.53676
      C   12   -0.06918      0.99944     2.05942    0.01031     3.06918
      C   13   -0.06833      0.99954     2.05894    0.00985     3.06833
      C   14   -0.13380      0.99956     2.12478    0.00946     3.13380
      C   15   -0.06129      0.99957     2.05247    0.00925     3.06129
      C   16   -0.12658      0.99953     2.11708    0.00998     3.12658
      C   17    0.10570      0.99947     1.88331    0.01152     2.89430
      N   18   -0.39906      0.99971     2.89037    0.00899     3.89906
      H   19    0.11152      0.00000     0.38729    0.00119     0.38848
      H   20    0.10473      0.00000     0.39430    0.00097     0.39527
      H   21    0.10297      0.00000     0.39604    0.00099     0.39703
      H   22    0.11123      0.00000     0.38752    0.00126     0.38877
      H   23    0.09978      0.00000     0.39892    0.00130     0.40022
      H   24    0.10115      0.00000     0.39766    0.00119     0.39885
      H   25    0.10037      0.00000     0.39809    0.00154     0.39963
      H   26    0.10134      0.00000     0.39767    0.00098     0.39866
      H   27    0.09756      0.00000     0.40111    0.00133     0.40244
      H   28    0.10757      0.00000     0.39064    0.00179     0.39243
      H   29    0.10583      0.00000     0.39303    0.00114     0.39417
      H   30    0.09950      0.00000     0.39899    0.00151     0.40050
      H   31    0.09851      0.00000     0.40070    0.00079     0.40149
      H   32    0.09545      0.00000     0.40374    0.00082     0.40455
      H   33    0.09706      0.00000     0.40167    0.00127     0.40294
      H   34    0.19719      0.00000     0.30044    0.00237     0.30281
      H   35    0.18289      0.00000     0.31564    0.00147     0.31711
 =======================================================================
   * Total *    0.00000     17.99283    46.78201    0.22515    65.00000

 Normal termination of Gaussian 16 at Fri Dec 11 22:36:23 2020.
