 Gaussian 16, Revision A.03,

 -----------------------------------------------------------
 # opt freq B3LYP/6-31G(d) empiricaldispersion=gd3bj scf=xqc
 -----------------------------------------------------------

 ------------------------------
 CID_60966484_JID_9853_neutraal
 ------------------------------
 Symbolic Z-matrix:
 Charge =  0 Multiplicity = 1

 SCF Done:  E(RB3LYP) =  -1198.69208434     A.U. after   14 cycles
 SCF Done:  E(RB3LYP) =  -1198.70026888     A.U. after   13 cycles
 SCF Done:  E(RB3LYP) =  -1198.70114639     A.U. after   12 cycles
 SCF Done:  E(RB3LYP) =  -1198.70214749     A.U. after   12 cycles
 SCF Done:  E(RB3LYP) =  -1198.70271639     A.U. after   12 cycles
 SCF Done:  E(RB3LYP) =  -1198.70314276     A.U. after   11 cycles
 SCF Done:  E(RB3LYP) =  -1198.70363844     A.U. after   12 cycles
 SCF Done:  E(RB3LYP) =  -1198.70397217     A.U. after   12 cycles
 SCF Done:  E(RB3LYP) =  -1198.70446047     A.U. after   11 cycles
 SCF Done:  E(RB3LYP) =  -1198.70486191     A.U. after   12 cycles
 SCF Done:  E(RB3LYP) =  -1198.70492388     A.U. after   10 cycles
 SCF Done:  E(RB3LYP) =  -1198.70492968     A.U. after    9 cycles
 SCF Done:  E(RB3LYP) =  -1198.70493122     A.U. after    8 cycles
 SCF Done:  E(RB3LYP) =  -1198.70493148     A.U. after    8 cycles
 SCF Done:  E(RB3LYP) =  -1198.70493158     A.U. after    7 cycles
 Optimization completed.
    -- Stationary point found.
 Normal termination of Gaussian 16 at Sun Dec 13 12:43:45 2020.

 --------------------------------------------------------------------
 #N Geom=AllCheck Guess=TCheck SCRF=Check GenChk RB3LYP/6-31G(d) Freq
 --------------------------------------------------------------------

 Structure from the checkpoint file:  "JID_9853.chk"
 ------------------------------
 CID_60966484_JID_9853_neutraal
 ------------------------------
 Charge =  0 Multiplicity = 1

 SCF Done:  E(RB3LYP) =  -1198.70493158     A.U. after    1 cycles

  Exact polarizability: 236.090 -13.115 192.438   3.355  10.396 114.749
 Approx polarizability: 336.565 -17.453 318.763   4.034  30.111 177.683

                      1                      2                      3
                      A                      A                      A
 Frequencies --     24.6324                34.1055                39.5666
 Red. masses --      4.5397                 5.8646                 3.7765
 Frc consts  --      0.0016                 0.0040                 0.0035
 IR Inten    --      0.7075                 1.0445                 1.2345

                      4                      5                      6
                      A                      A                      A
 Frequencies --     54.3081               110.0350               116.8323
 Red. masses --      4.8152                 3.8037                 3.9281
 Frc consts  --      0.0084                 0.0271                 0.0316
 IR Inten    --      1.2844                 0.4275                 0.6089

                      7                      8                      9
                      A                      A                      A
 Frequencies --    133.9559               160.7765               203.4240
 Red. masses --      5.1377                 5.7249                 7.7768
 Frc consts  --      0.0543                 0.0872                 0.1896
 IR Inten    --      1.2093                 0.0344                 0.1287

                     10                     11                     12
                      A                      A                      A
 Frequencies --    215.3873               255.0600               274.2597
 Red. masses --      2.5465                 2.9228                 4.8653
 Frc consts  --      0.0696                 0.1120                 0.2156
 IR Inten    --      0.8081                 0.7094                 0.2458

                     13                     14                     15
                      A                      A                      A
 Frequencies --    284.3351               317.8964               340.9425
 Red. masses --      1.0836                 2.6477                 2.9890
 Frc consts  --      0.0516                 0.1576                 0.2047
 IR Inten    --      0.5186                 6.1092                 4.7451

                     16                     17                     18
                      A                      A                      A
 Frequencies --    403.4751               419.9312               438.8133
 Red. masses --      5.7058                 3.5203                 2.5378
 Frc consts  --      0.5473                 0.3657                 0.2879
 IR Inten    --      1.1634                 1.3546                 9.0831

                     19                     20                     21
                      A                      A                      A
 Frequencies --    454.4327               468.9567               479.1430
 Red. masses --      2.0030                 3.6283                 3.1153
 Frc consts  --      0.2437                 0.4701                 0.4214
 IR Inten    --      0.0074                 1.5545                 8.2906

                     22                     23                     24
                      A                      A                      A
 Frequencies --    495.8464               519.4323               559.0202
 Red. masses --      2.7100                 4.2967                 4.8748
 Frc consts  --      0.3926                 0.6830                 0.8976
 IR Inten    --      0.1832                 1.9417                54.2534

                     25                     26                     27
                      A                      A                      A
 Frequencies --    573.5469               590.7471               616.2211
 Red. masses --      3.1323                 3.3789                 1.6514
 Frc consts  --      0.6071                 0.6948                 0.3695
 IR Inten    --      2.8415                 9.8456                60.7630

                     28                     29                     30
                      A                      A                      A
 Frequencies --    641.1797               649.8860               701.4133
 Red. masses --      2.6996                 2.1349                 1.5015
 Frc consts  --      0.6539                 0.5313                 0.4352
 IR Inten    --      5.9401                41.1100                60.3680

                     31                     32                     33
                      A                      A                      A
 Frequencies --    711.4461               765.7727               787.5387
 Red. masses --      7.3774                 5.5990                 4.0695
 Frc consts  --      2.2001                 1.9345                 1.4871
 IR Inten    --      1.9500                 9.1772                21.7749

                     34                     35                     36
                      A                      A                      A
 Frequencies --    803.8003               809.0031               855.6664
 Red. masses --      6.5908                 6.2261                 1.6848
 Frc consts  --      2.5089                 2.4009                 0.7268
 IR Inten    --      0.8017                20.4786                 0.3441

                     37                     38                     39
                      A                      A                      A
 Frequencies --    857.5447               876.1633               878.7243
 Red. masses --      2.9822                 2.0872                 1.4109
 Frc consts  --      1.2921                 0.9440                 0.6419
 IR Inten    --      7.4073                10.3812                 1.2067

                     40                     41                     42
                      A                      A                      A
 Frequencies --    891.8675               893.3199               926.6121
 Red. masses --      2.3915                 4.9379                 2.2998
 Frc consts  --      1.1208                 2.3217                 1.1634
 IR Inten    --     15.4868                20.0813                 1.5242

                     43                     44                     45
                      A                      A                      A
 Frequencies --    960.1129               971.2278               993.2548
 Red. masses --      1.9917                 1.4378                 2.5576
 Frc consts  --      1.0817                 0.7991                 1.4866
 IR Inten    --     10.6223                 1.0141                72.5943

                     46                     47                     48
                      A                      A                      A
 Frequencies --   1025.7424              1047.9421              1076.6534
 Red. masses --      2.4987                 2.3728                 2.0083
 Frc consts  --      1.5489                 1.5353                 1.3716
 IR Inten    --      9.0289                29.9824                16.4137

                     49                     50                     51
                      A                      A                      A
 Frequencies --   1096.0843              1103.1491              1106.4164
 Red. masses --      1.7857                 2.2517                 2.0247
 Frc consts  --      1.2640                 1.6145                 1.4603
 IR Inten    --      3.9369                33.1113                19.5611

                     52                     53                     54
                      A                      A                      A
 Frequencies --   1131.6352              1149.6587              1156.7150
 Red. masses --      1.2839                 6.1890                 2.1727
 Frc consts  --      0.9687                 4.8195                 1.7128
 IR Inten    --      5.1382                73.1277                57.1555

                     55                     56                     57
                      A                      A                      A
 Frequencies --   1184.0151              1192.7086              1207.1770
 Red. masses --      2.2555                 2.6773                 2.4726
 Frc consts  --      1.8630                 2.2440                 2.1230
 IR Inten    --      8.0085                 3.0533                19.6309

                     58                     59                     60
                      A                      A                      A
 Frequencies --   1252.9269              1256.5794              1287.8506
 Red. masses --      2.4613                 1.3666                 1.3389
 Frc consts  --      2.2765                 1.2713                 1.3084
 IR Inten    --     26.6644                 4.0257                 6.9528

                     61                     62                     63
                      A                      A                      A
 Frequencies --   1292.7834              1329.8750              1332.9964
 Red. masses --      1.6879                 2.2144                 1.2320
 Frc consts  --      1.6620                 2.3074                 1.2898
 IR Inten    --      6.4134                14.6906                 2.9086

                     64                     65                     66
                      A                      A                      A
 Frequencies --   1350.8607              1356.1536              1375.3623
 Red. masses --      1.6356                 2.1434                 1.2988
 Frc consts  --      1.7586                 2.3226                 1.4475
 IR Inten    --      2.5452                56.0136                 3.4758

                     67                     68                     69
                      A                      A                      A
 Frequencies --   1380.8094              1387.3165              1398.9669
 Red. masses --      1.3553                 1.4977                 2.6235
 Frc consts  --      1.5225                 1.6983                 3.0251
 IR Inten    --      1.4299                 9.8784                40.5183

                     70                     71                     72
                      A                      A                      A
 Frequencies --   1401.2522              1407.7583              1414.0420
 Red. masses --      1.4009                 1.3758                 1.6577
 Frc consts  --      1.6207                 1.6064                 1.9529
 IR Inten    --     44.3093                38.4626                27.2433

                     73                     74                     75
                      A                      A                      A
 Frequencies --   1422.3089              1434.9724              1442.0341
 Red. masses --      1.3420                 1.2964                 1.3303
 Frc consts  --      1.5996                 1.5729                 1.6298
 IR Inten    --      2.5902                22.3908                 2.2303

                     76                     77                     78
                      A                      A                      A
 Frequencies --   1469.1282              1499.1388              1503.3469
 Red. masses --      1.8471                 1.0854                 1.0850
 Frc consts  --      2.3488                 1.4372                 1.4448
 IR Inten    --      3.5536                12.2153                 4.9012

                     79                     80                     81
                      A                      A                      A
 Frequencies --   1516.6576              1518.4234              1526.7756
 Red. masses --      1.0841                 1.1336                 1.1107
 Frc consts  --      1.4693                 1.5399                 1.5254
 IR Inten    --      0.7690                34.7024                 7.1849

                     82                     83                     84
                      A                      A                      A
 Frequencies --   1529.7445              1537.9913              1539.4673
 Red. masses --      1.1006                 2.4165                 1.2158
 Frc consts  --      1.5175                 3.3678                 1.6977
 IR Inten    --      0.4332                 2.2091                 6.3418

                     85                     86                     87
                      A                      A                      A
 Frequencies --   1553.9616              1592.1290              1625.6295
 Red. masses --      4.4194                 7.2656                 5.5880
 Frc consts  --      6.2878                10.8512                 8.7005
 IR Inten    --    229.6770               106.8219               885.1035

                     88                     89                     90
                      A                      A                      A
 Frequencies --   2979.9261              2986.1372              3030.8533
 Red. masses --      1.0710                 1.0712                 1.0646
 Frc consts  --      5.6035                 5.6279                 5.7621
 IR Inten    --     20.2480                58.2919                58.6789

                     91                     92                     93
                      A                      A                      A
 Frequencies --   3044.1656              3051.0827              3055.1514
 Red. masses --      1.0632                 1.0389                 1.0654
 Frc consts  --      5.8051                 5.6982                 5.8591
 IR Inten    --     17.3083                27.8625                31.8118

                     94                     95                     96
                      A                      A                      A
 Frequencies --   3091.6054              3100.4733              3105.4284
 Red. masses --      1.0987                 1.0918                 1.0960
 Frc consts  --      6.1875                 6.1839                 6.2272
 IR Inten    --      5.5016                 3.8350                61.4593

                     97                     98                     99
                      A                      A                      A
 Frequencies --   3106.9192              3108.7063              3120.3074
 Red. masses --      1.0942                 1.0941                 1.0994
 Frc consts  --      6.2233                 6.2295                 6.3068
 IR Inten    --     34.3949                46.7655                51.8958

                    100                    101                    102
                      A                      A                      A
 Frequencies --   3125.0821              3144.3385              3186.7301
 Red. masses --      1.0985                 1.1013                 1.0904
 Frc consts  --      6.3209                 6.4151                 6.5245
 IR Inten    --     16.0222                15.7807                38.3598

                    103                    104                    105
                      A                      A                      A
 Frequencies --   3215.2445              3268.7497              3574.6888
 Red. masses --      1.0908                 1.0966                 1.0755
 Frc consts  --      6.6439                 6.9034                 8.0970
 IR Inten    --      5.2675                 2.0592               127.5316

 - Thermochemistry -
 -------------------
 Temperature   298.150 Kelvin.  Pressure   1.00000 Atm.
 Atom     1 has atomic number  6 and mass  12.00000

 Molecular mass:   278.12013 amu.
 Principal axes and moments of inertia in atomic units:
                           1         2         3
     Eigenvalues --  2376.25288********************
           X            1.00000  -0.00094  -0.00005
           Y            0.00094   0.99987  -0.01636
           Z            0.00007   0.01636   0.99987
 This molecule is an asymmetric top.
 Rotational symmetry number  1.
 Warning -- assumption of classical behavior for rotation
           may cause significant error
 Rotational temperatures (Kelvin)      0.03645     0.00745     0.00656
 Rotational constants (GHZ):           0.75949     0.15528     0.13659
 Zero-point vibrational energy     815077.7 (Joules/Mol)
                                  194.80824 (Kcal/Mol)
 Warning -- explicit consideration of  27 degrees of freedom as
           vibrations may cause significant error
 Vibrational temperatures:     35.44    49.07    56.93    78.14   158.32
          (Kelvin)            168.10   192.73   231.32   292.68   309.89
                              366.97   394.60   409.09   457.38   490.54
                              580.51   604.19   631.35   653.83   674.72
                              689.38   713.41   747.35   804.31   825.21
                              849.95   886.60   922.51   935.04  1009.18
                             1023.61  1101.78  1133.09  1156.49  1163.98
                             1231.11  1233.82  1260.60  1264.29  1283.20
                             1285.29  1333.19  1381.39  1397.38  1429.07
                             1475.81  1507.75  1549.06  1577.02  1587.19
                             1591.89  1628.17  1654.10  1664.25  1703.53
                             1716.04  1736.86  1802.68  1807.94  1852.93
                             1860.03  1913.39  1917.88  1943.59  1951.20
                             1978.84  1986.68  1996.04  2012.80  2016.09
                             2025.45  2034.49  2046.39  2064.61  2074.77
                             2113.75  2156.93  2162.98  2182.13  2184.67
                             2196.69  2200.96  2212.83  2214.95  2235.80
                             2290.72  2338.92  4287.45  4296.39  4360.72
                             4379.88  4389.83  4395.68  4448.13  4460.89
                             4468.02  4470.16  4472.74  4489.43  4496.30
                             4524.00  4584.99  4626.02  4703.00  5143.18

 Zero-point correction=                           0.310447 (Hartree/Particle)
 Thermal correction to Energy=                    0.327236
 Thermal correction to Enthalpy=                  0.328180
 Thermal correction to Gibbs Free Energy=         0.264092
 Sum of electronic and zero-point Energies=          -1198.394485
 Sum of electronic and thermal Energies=             -1198.377695
 Sum of electronic and thermal Enthalpies=           -1198.376751
 Sum of electronic and thermal Free Energies=        -1198.440840

                     E (Thermal)             CV                S
                      KCal/Mol        Cal/Mol-Kelvin    Cal/Mol-Kelvin
 Total                  205.344             65.835            134.886
 Electronic               0.000              0.000              0.000
 Translational            0.889              2.981             42.767
 Rotational               0.889              2.981             34.255
 Vibrational            203.566             59.873             57.864
 Vibration     1          0.593              1.985              6.221
 Vibration     2          0.594              1.983              5.575
 Vibration     3          0.594              1.981              5.281
 Vibration     4          0.596              1.976              4.654
 Vibration     5          0.606              1.941              3.268
 Vibration     6          0.608              1.935              3.152
 Vibration     7          0.613              1.919              2.888
 Vibration     8          0.622              1.890              2.541
 Vibration     9          0.639              1.835              2.102
 Vibration    10          0.645              1.818              1.998
 Vibration    11          0.665              1.754              1.695
 Vibration    12          0.677              1.721              1.569
 Vibration    13          0.683              1.703              1.507
 Vibration    14          0.704              1.639              1.321
 Vibration    15          0.720              1.594              1.208
 Vibration    16          0.769              1.463              0.950
 Vibration    17          0.783              1.427              0.892
 Vibration    18          0.799              1.386              0.830
 Vibration    19          0.813              1.351              0.782
 Vibration    20          0.826              1.319              0.740
 Vibration    21          0.836              1.296              0.712
 Vibration    22          0.851              1.259              0.669
 Vibration    23          0.874              1.207              0.611
 Vibration    24          0.915              1.120              0.526
 Vibration    25          0.930              1.088              0.497
 Vibration    26          0.948              1.051              0.466
 Vibration    27          0.976              0.998              0.423

                           ! Non-Optimized Parameters !
 Normal termination of Gaussian 16 at Sun Dec 13 13:03:45 2020.

 ----------------------------------------------------------------------
 # B3LYP/6-311++G(d,p) empiricaldispersion=gd3bj scf=xqc pop=npa geom=c
 heck
 ----------------------------------------------------------------------

 --------------------------------------
 CID_60966484_JID_9853_Energie_neutraal
 --------------------------------------
 Structure from the checkpoint file:  "JID_9853.chk"
 Charge =  0 Multiplicity = 1

 SCF Done:  E(RB3LYP) =  -1198.94640108     A.U. after   16 cycles
 Normal termination of Gaussian 16 at Sun Dec 13 13:13:34 2020.

 ----------------------------------------------------------------------
 # B3LYP/6-311++G(d,p) empiricaldispersion=gd3bj scf=xqc pop=npa geom=c
 heck
 ----------------------------------------------------------------------

 ------------------------------------
 CID_60966484_JID_9853_Energie_kation
 ------------------------------------
 Structure from the checkpoint file:  "JID_9853.chk"
 Charge =  1 Multiplicity = 2

 SCF Done:  E(UB3LYP) =  -1198.67453120     A.U. after   26 cycles
 Normal termination of Gaussian 16 at Sun Dec 13 13:36:39 2020.
 Gaussian 16:  ES64L-G16RevA.03 25-Dec-2016

 ----------------------------------------------------------------------
 # B3LYP/6-311++G(d,p) empiricaldispersion=gd3bj scf=xqc pop=npa geom=c
 heck
 ----------------------------------------------------------------------

 -----------------------------------
 CID_60966484_JID_9853_Energie_anion
 -----------------------------------
 Structure from the checkpoint file:  "JID_9853.chk"
 Charge = -1 Multiplicity = 2

                         Standard orientation:
 ---------------------------------------------------------------------
 Center     Atomic      Atomic             Coordinates (Angstroms)
 Number     Number       Type             X           Y           Z
 ---------------------------------------------------------------------
      1          6           0       -0.984745    2.338133   -1.148066
      2          6           0       -0.914360    1.606815    0.197675
      3          6           0       -2.248035    0.980202    0.643176
      4          7           0       -2.575324   -0.214771   -0.153285
      5          6           0       -3.588074    0.008732   -1.197102
      6          6           0       -5.009571    0.039621   -0.630716
      7          8           0       -5.294148   -1.149254    0.097377
      8          6           0       -4.375220   -1.327707    1.169029
      9          6           0       -2.942675   -1.397474    0.639114
     10          7           0        0.065492    0.528645    0.169594
     11          6           0        1.407391    0.722616    0.209354
     12          6           0        2.314632   -0.352357   -0.011996
     13          6           0        2.110103   -1.739281   -0.321656
     14          6           0        3.282801   -2.416376   -0.457776
     15         16           0        4.696439   -1.409860   -0.216031
     16          6           0        3.674050   -0.011276    0.083877
     17          7           0        4.155209    1.207396    0.365943
     18          6           0        3.200700    2.116077    0.556111
     19          7           0        1.870952    1.951878    0.491136
     20          1           0       -1.222412    1.642636   -1.959936
     21          1           0       -0.017562    2.800224   -1.363315
     22          1           0       -1.747096    3.126188   -1.126973
     23          1           0       -0.595193    2.319166    0.963656
     24          1           0       -2.150558    0.688844    1.693862
     25          1           0       -3.038140    1.742386    0.597206
     26          1           0       -3.515056   -0.812569   -1.921233
     27          1           0       -3.364960    0.939380   -1.726041
     28          1           0       -5.144352    0.919124    0.022168
     29          1           0       -5.750523    0.095898   -1.434022
     30          1           0       -4.659323   -2.258983    1.668735
     31          1           0       -4.475371   -0.501551    1.894311
     32          1           0       -2.856602   -2.277198   -0.012143
     33          1           0       -2.225344   -1.516050    1.458255
     34          1           0       -0.294554   -0.321539   -0.248624
     35          1           0        1.139507   -2.211017   -0.430715
     36          1           0        3.413143   -3.465336   -0.687031
     37          1           0        3.538283    3.123805    0.789458
 ---------------------------------------------------------------------

 SCF Done:  E(UB3LYP) =  -1198.94083859     A.U. after   33 cycles
 SCF Done:  E(UB3LYP) =  -1198.94083859     a.u. after    1 cycles

 The electronic state is 2-A.
 Alpha  occ. eigenvalues --  -88.76798 -19.04026 -14.22850 -14.22522 -14.19625
 Alpha  occ. eigenvalues --  -14.19360 -10.14589 -10.13110 -10.12851 -10.12757
 Alpha  occ. eigenvalues --  -10.11500 -10.11349 -10.11249 -10.10947 -10.10828
 Alpha  occ. eigenvalues --  -10.09107 -10.07739 -10.07697 -10.06431  -7.85449
 Alpha  occ. eigenvalues --   -5.81742  -5.81402  -5.81013  -0.95640  -0.88539
 Alpha  occ. eigenvalues --   -0.84974  -0.83104  -0.77769  -0.75207  -0.68977
 Alpha  occ. eigenvalues --   -0.68626  -0.64465  -0.62610  -0.62172  -0.57396
 Alpha  occ. eigenvalues --   -0.56980  -0.54706  -0.53077  -0.49877  -0.47543
 Alpha  occ. eigenvalues --   -0.47187  -0.43587  -0.42875  -0.40855  -0.40004
 Alpha  occ. eigenvalues --   -0.39091  -0.38172  -0.37578  -0.35984  -0.35182
 Alpha  occ. eigenvalues --   -0.34549  -0.34436  -0.33063  -0.32703  -0.31856
 Alpha  occ. eigenvalues --   -0.31228  -0.30464  -0.29140  -0.28257  -0.27898
 Alpha  occ. eigenvalues --   -0.27651  -0.26327  -0.25539  -0.24994  -0.24767
 Alpha  occ. eigenvalues --   -0.23739  -0.23198  -0.19574  -0.19076  -0.16601
 Alpha  occ. eigenvalues --   -0.15472  -0.15017  -0.12805  -0.11110   0.03947
 Alpha virt. eigenvalues --    0.05305   0.06378   0.06681   0.07523   0.07987
 Alpha virt. eigenvalues --    0.08689   0.09096   0.09227   0.09378   0.09801
 Alpha virt. eigenvalues --    0.10116   0.11156   0.11305   0.11803   0.11950

  Beta  occ. eigenvalues --  -88.76780 -19.04019 -14.22834 -14.22524 -14.19612
  Beta  occ. eigenvalues --  -14.19401 -10.14482 -10.13091 -10.12818 -10.12731
  Beta  occ. eigenvalues --  -10.11345 -10.11308 -10.11240 -10.10933 -10.10811
  Beta  occ. eigenvalues --  -10.08871 -10.07719 -10.07670 -10.06411  -7.85433
  Beta  occ. eigenvalues --   -5.81737  -5.81397  -5.80948  -0.95624  -0.88419
  Beta  occ. eigenvalues --   -0.84919  -0.83050  -0.77658  -0.75080  -0.68938
  Beta  occ. eigenvalues --   -0.68571  -0.64331  -0.62408  -0.62134  -0.57355
  Beta  occ. eigenvalues --   -0.56941  -0.54468  -0.52966  -0.49803  -0.47333
  Beta  occ. eigenvalues --   -0.47129  -0.43501  -0.42794  -0.40778  -0.39974
  Beta  occ. eigenvalues --   -0.39068  -0.38142  -0.37535  -0.35886  -0.35130
  Beta  occ. eigenvalues --   -0.34398  -0.34327  -0.32971  -0.32603  -0.31661
  Beta  occ. eigenvalues --   -0.31188  -0.30420  -0.29095  -0.28175  -0.27863
  Beta  occ. eigenvalues --   -0.27605  -0.26124  -0.25263  -0.24902  -0.24653
  Beta  occ. eigenvalues --   -0.23542  -0.22952  -0.19537  -0.19049  -0.16158
  Beta  occ. eigenvalues --   -0.15173  -0.14960  -0.12738  -0.10597
  Beta virt. eigenvalues --    0.05984   0.06863   0.07079   0.07421   0.07691
  Beta virt. eigenvalues --    0.08168   0.08897   0.09292   0.09503   0.09649
  Beta virt. eigenvalues --    0.10065   0.10213   0.11221   0.11413   0.11912

 Mulliken charges and spin densities:
               1          2
     1  C    0.537149  -1.090921
     2  C   -0.590244   0.544178
     3  C   -0.119819  -0.461215
     4  N   -0.030903   0.053619
     5  C   -0.428418   0.346221
     6  C    0.776453  -1.235613
     7  O   -0.175242   0.057879
     8  C    0.109006  -0.654312
     9  C   -0.094671   0.115090
    10  N    0.181952  -0.024139
    11  C   -0.129459  -0.073549
    12  C    0.851255  -0.028922
    13  C   -0.726219  -0.059350
    14  C   -0.279792   0.247145
    15  S   -0.503026   0.020130
    16  C   -0.228574   0.026095
    17  N   -0.038528  -0.008639
    18  C    0.058197   0.145965
    19  N   -0.160727  -0.045952
    20  H   -0.039572   0.190553
    21  H    0.183819  -0.022398
    22  H   -0.213320   0.349487
    23  H    0.105644   0.110811
    24  H    0.098882   0.095321
    25  H   -0.030391   0.200193
    26  H   -0.065606   0.251814
    27  H   -0.112154   0.256359
    28  H   -0.175385   0.316961
    29  H   -0.355935   0.556444
    30  H   -0.214989   0.415419
    31  H   -0.056914   0.191775
    32  H    0.074630   0.090925
    33  H    0.125028   0.018158
    34  H    0.342929  -0.042030
    35  H   -0.061289   0.129698
    36  H    0.207668   0.016407
    37  H    0.178563   0.000394
 Sum of Mulliken charges =  -1.00000   1.00000

 Dipole moment (field-independent basis, Debye):
    X=              1.7287    Y=             -2.1737    Z=              0.8993  Tot=              2.9193
 Quadrupole moment (field-independent basis, Debye-Ang):
   XX=           -238.2820   YY=           -155.2987   ZZ=           -147.7402
   XY=             -4.2014   XZ=             -6.6618   YZ=              3.0420

 Summary of Natural Population Analysis:

                                       Natural Population
                Natural  -----------------------------------------------
    Atom  No    Charge         Core      Valence    Rydberg      Total
 -----------------------------------------------------------------------
      C    1   -0.29332      0.99964     2.28823    0.00544     3.29332
      C    2   -0.01456      0.99960     2.00244    0.01252     3.01456
      C    3   -0.08678      0.99957     2.07469    0.01252     3.08678
      N    4   -0.29472      0.99974     2.78089    0.01410     3.79472
      C    5   -0.09839      0.99960     2.08679    0.01200     3.09839
      C    6   -0.02097      0.99958     2.00847    0.01292     3.02097
      O    7   -0.30069      0.99989     3.29071    0.01009     4.30069
      C    8   -0.01922      0.99958     2.00877    0.01087     3.01922
      C    9   -0.09590      0.99961     2.08658    0.00972     3.09590
      N   10   -0.30601      0.99965     2.79629    0.01007     3.80601
      C   11    0.24369      0.99951     1.74258    0.01421     2.75631
      C   12   -0.09078      0.99936     2.08274    0.00868     3.09078
      C   13   -0.12992      0.99952     2.11841    0.01199     3.12992
      C   14   -0.14088      0.99954     2.13078    0.01055     3.14088
      S   15    0.18450      4.99945     2.79492    0.02112     7.81550
      C   16    0.03667      0.99944     1.94341    0.02047     2.96333
      N   17   -0.27390      0.99966     2.76289    0.01136     3.77390
      C   18    0.17673      0.99967     1.80521    0.01839     2.82327
      N   19   -0.29574      0.99968     2.78617    0.00988     3.79574
      H   20    0.09740      0.00000     0.40147    0.00113     0.40260
      H   21    0.10934      0.00000     0.38962    0.00104     0.39066
      H   22    0.09817      0.00000     0.40087    0.00096     0.40183
      H   23    0.10604      0.00000     0.39186    0.00211     0.39396
      H   24    0.09782      0.00000     0.40090    0.00127     0.40218
      H   25    0.09348      0.00000     0.40508    0.00144     0.40652
      H   26    0.09625      0.00000     0.40245    0.00130     0.40375
      H   27    0.10314      0.00000     0.39545    0.00141     0.39686
      H   28    0.07846      0.00000     0.41986    0.00168     0.42154
      H   29    0.09449      0.00000     0.40391    0.00160     0.40551
      H   30    0.09212      0.00000     0.40638    0.00150     0.40788
      H   31    0.07798      0.00000     0.42051    0.00151     0.42202
      H   32    0.09574      0.00000     0.40295    0.00131     0.40426
      H   33    0.09924      0.00000     0.39964    0.00112     0.40076
      H   34    0.19830      0.00000     0.29878    0.00292     0.30170
      H   35    0.10434      0.00000     0.39465    0.00101     0.39566
      H   36    0.10210      0.00000     0.39690    0.00100     0.39790
      H   37    0.07580      0.00000     0.42311    0.00109     0.42420
 =======================================================================
   * Total *    0.00000     22.99230    50.74538    0.26231    74.00000

 Normal termination of Gaussian 16 at Sun Dec 13 14:04:51 2020.
