 Gaussian 16, Revision A.03,

 -----------------------------------------------------------
 # opt freq B3LYP/6-31G(d) empiricaldispersion=gd3bj scf=xqc
 -----------------------------------------------------------

 -------------------------------
 CID_150622435_JID_6796_neutraal
 -------------------------------
 Symbolic Z-matrix:
 Charge =  0 Multiplicity = 1

 SCF Done:  E(RB3LYP) =  -721.527273027     A.U. after   16 cycles
 SCF Done:  E(RB3LYP) =  -721.537032118     A.U. after   14 cycles
 SCF Done:  E(RB3LYP) =  -721.540903464     A.U. after   14 cycles
 SCF Done:  E(RB3LYP) =  -721.543020805     A.U. after   14 cycles
 SCF Done:  E(RB3LYP) =  -721.543898181     A.U. after   14 cycles
 SCF Done:  E(RB3LYP) =  -721.544985326     A.U. after   14 cycles
 SCF Done:  E(RB3LYP) =  -721.545551690     A.U. after   15 cycles
 SCF Done:  E(RB3LYP) =  -721.545885163     A.U. after   16 cycles
 SCF Done:  E(RB3LYP) =  -721.546271576     A.U. after   12 cycles
 SCF Done:  E(RB3LYP) =  -721.546377653     A.U. after   13 cycles
 SCF Done:  E(RB3LYP) =  -721.546482034     A.U. after   10 cycles
 SCF Done:  E(RB3LYP) =  -721.546482383     A.U. after    9 cycles
 SCF Done:  E(RB3LYP) =  -721.546482542     A.U. after    7 cycles
 SCF Done:  E(RB3LYP) =  -721.546482562     A.U. after    8 cycles
 SCF Done:  E(RB3LYP) =  -721.546482551     A.U. after    7 cycles
 Optimization completed.
    -- Stationary point found.
 Normal termination of Gaussian 16 at Fri Dec 11 00:40:42 2020.

 --------------------------------------------------------------------
 #N Geom=AllCheck Guess=TCheck SCRF=Check GenChk RB3LYP/6-31G(d) Freq
 --------------------------------------------------------------------

 Structure from the checkpoint file:  "JID_6796.chk"
 -------------------------------
 CID_150622435_JID_6796_neutraal
 -------------------------------
 Charge =  0 Multiplicity = 1

 SCF Done:  E(RB3LYP) =  -721.546482551     A.U. after    1 cycles

  Exact polarizability: 194.064   0.613 127.536  -3.916   0.603 114.604
 Approx polarizability: 265.494  10.391 186.521 -14.875  -3.917 180.890

                      1                      2                      3
                      A                      A                      A
 Frequencies --     20.0559                41.9572                47.9101
 Red. masses --      8.3365                 5.7982                 3.8625
 Frc consts  --      0.0020                 0.0060                 0.0052
 IR Inten    --      0.0694                 0.5951                 0.8898

                      4                      5                      6
                      A                      A                      A
 Frequencies --     61.9433               103.4463               125.9853
 Red. masses --      3.0951                 2.8395                 4.3219
 Frc consts  --      0.0070                 0.0179                 0.0404
 IR Inten    --      0.0051                 0.0455                 1.1328

                      7                      8                      9
                      A                      A                      A
 Frequencies --    163.3272               222.7879               254.5063
 Red. masses --      2.3742                 3.3828                 2.6193
 Frc consts  --      0.0373                 0.0989                 0.1000
 IR Inten    --      0.0862                 0.6457                 0.2040

                     10                     11                     12
                      A                      A                      A
 Frequencies --    267.1471               281.8183               324.0149
 Red. masses --      2.5366                 3.0267                 2.2926
 Frc consts  --      0.1067                 0.1416                 0.1418
 IR Inten    --      0.8796                 0.2353                 3.1579

                     13                     14                     15
                      A                      A                      A
 Frequencies --    352.2670               365.2060               370.3273
 Red. masses --      2.9119                 3.4341                 4.4419
 Frc consts  --      0.2129                 0.2699                 0.3589
 IR Inten    --      5.5224                 6.2635                 4.4631

                     16                     17                     18
                      A                      A                      A
 Frequencies --    414.3466               436.5448               461.9771
 Red. masses --      2.2923                 2.3975                 2.7263
 Frc consts  --      0.2319                 0.2692                 0.3428
 IR Inten    --      2.1843                11.0587                 0.9464

                     19                     20                     21
                      A                      A                      A
 Frequencies --    476.4336               511.0343               547.9776
 Red. masses --      3.3611                 2.5607                 2.0044
 Frc consts  --      0.4495                 0.3940                 0.3546
 IR Inten    --      1.5098                 4.9050                 2.9286

                     22                     23                     24
                      A                      A                      A
 Frequencies --    566.9606               568.5216               652.7839
 Red. masses --     12.9613                 1.8654                 5.6438
 Frc consts  --      2.4547                 0.3552                 1.4170
 IR Inten    --      6.7914                 9.2299                15.8415

                     25                     26                     27
                      A                      A                      A
 Frequencies --    700.4279               721.2000               758.8460
 Red. masses --      2.1210                 2.0435                 1.8086
 Frc consts  --      0.6131                 0.6262                 0.6136
 IR Inten    --      6.3988               137.0703                 1.8018

                     28                     29                     30
                      A                      A                      A
 Frequencies --    777.8100               797.3378               828.2766
 Red. masses --      1.9248                 1.6933                 3.3177
 Frc consts  --      0.6861                 0.6343                 1.3410
 IR Inten    --     12.4739                 1.3981                 2.2869

                     31                     32                     33
                      A                      A                      A
 Frequencies --    847.9745               884.2959               903.1117
 Red. masses --      3.1426                 2.6157                 2.4338
 Frc consts  --      1.3314                 1.2051                 1.1695
 IR Inten    --     26.8754                 9.3842                 3.2996

                     34                     35                     36
                      A                      A                      A
 Frequencies --    933.3297               949.4839               952.3000
 Red. masses --      2.5285                 3.4076                 2.3045
 Frc consts  --      1.2977                 1.8100                 1.2313
 IR Inten    --      2.9860                 3.5705                 6.9215

                     37                     38                     39
                      A                      A                      A
 Frequencies --    966.3304              1018.7572              1041.6466
 Red. masses --      1.8712                 2.2031                 1.5097
 Frc consts  --      1.0295                 1.3472                 0.9651
 IR Inten    --      6.5405                 9.8647                 1.9049

                     40                     41                     42
                      A                      A                      A
 Frequencies --   1045.0358              1058.8346              1064.4563
 Red. masses --      2.4593                 2.1614                 2.1146
 Frc consts  --      1.5825                 1.4277                 1.4117
 IR Inten    --      6.1504                 2.9734                21.1287

                     43                     44                     45
                      A                      A                      A
 Frequencies --   1086.3341              1107.7648              1121.1075
 Red. masses --      2.3345                 1.8859                 1.9183
 Frc consts  --      1.6232                 1.3636                 1.4206
 IR Inten    --     17.7300                20.6294                 7.6213

                     46                     47                     48
                      A                      A                      A
 Frequencies --   1134.7660              1149.6831              1158.7378
 Red. masses --      3.0553                 2.0124                 2.2107
 Frc consts  --      2.3180                 1.5672                 1.7488
 IR Inten    --     12.9732                 1.3064                50.7383

                     49                     50                     51
                      A                      A                      A
 Frequencies --   1197.5374              1209.9736              1220.7504
 Red. masses --      3.3391                 2.6590                 1.1862
 Frc consts  --      2.8214                 2.2936                 1.0415
 IR Inten    --     51.7029                50.3024                13.8945

                     52                     53                     54
                      A                      A                      A
 Frequencies --   1240.1449              1254.6514              1268.5399
 Red. masses --      4.0194                 1.4287                 1.9933
 Frc consts  --      3.6421                 1.3251                 1.8899
 IR Inten    --     42.1758                 7.6044                16.7989

                     55                     56                     57
                      A                      A                      A
 Frequencies --   1276.0425              1309.9736              1320.2692
 Red. masses --      1.2486                 1.3048                 1.2088
 Frc consts  --      1.1979                 1.3192                 1.2414
 IR Inten    --     14.1229                 7.4477                 7.5701

                     58                     59                     60
                      A                      A                      A
 Frequencies --   1327.6744              1348.5253              1355.5768
 Red. masses --      1.2811                 1.3557                 1.3029
 Frc consts  --      1.3305                 1.4525                 1.4106
 IR Inten    --     18.9075                12.9058                 0.6592

                     61                     62                     63
                      A                      A                      A
 Frequencies --   1375.0489              1378.7601              1394.6665
 Red. masses --      1.4026                 1.3619                 1.2751
 Frc consts  --      1.5625                 1.5254                 1.4613
 IR Inten    --     12.8982                 3.5335                 2.7217

                     64                     65                     66
                      A                      A                      A
 Frequencies --   1403.4535              1405.6634              1409.1038
 Red. masses --      1.3237                 1.3465                 1.4029
 Frc consts  --      1.5361                 1.5676                 1.6413
 IR Inten    --      5.4221                 5.2136                 8.0210

                     67                     68                     69
                      A                      A                      A
 Frequencies --   1412.8504              1420.6110              1429.2139
 Red. masses --      1.2541                 1.3476                 1.3456
 Frc consts  --      1.4749                 1.6024                 1.6194
 IR Inten    --     14.5842                23.8426                12.6014

                     70                     71                     72
                      A                      A                      A
 Frequencies --   1441.3750              1457.2361              1495.1642
 Red. masses --      1.2966                 1.2640                 1.0884
 Frc consts  --      1.5872                 1.5815                 1.4336
 IR Inten    --      9.6350                 7.9967                 7.0695

                     73                     74                     75
                      A                      A                      A
 Frequencies --   1499.2036              1507.0217              1509.6319
 Red. masses --      1.0771                 1.0988                 1.0873
 Frc consts  --      1.4264                 1.4703                 1.4599
 IR Inten    --      1.1185                 8.8495                 2.9590

                     76                     77                     78
                      A                      A                      A
 Frequencies --   1511.1663              1518.7947              1526.6710
 Red. masses --      1.1849                 1.1270                 1.1106
 Frc consts  --      1.5943                 1.5317                 1.5251
 IR Inten    --      8.9766                 5.9412                 4.5959

                     79                     80                     81
                      A                      A                      A
 Frequencies --   1530.7166              1545.8809              1557.9424
 Red. masses --      1.1133                 1.0863                 1.0933
 Frc consts  --      1.5369                 1.5295                 1.5635
 IR Inten    --      1.3178                 1.2676                18.7252

                     82                     83                     84
                      A                      A                      A
 Frequencies --   2229.7912              2915.5819              2956.2780
 Red. masses --     13.9779                 1.0727                 1.0754
 Frc consts  --     40.9470                 5.3725                 5.5375
 IR Inten    --    589.1126                56.7044                50.3858

                     85                     86                     87
                      A                      A                      A
 Frequencies --   3008.3799              3012.6392              3022.2263
 Red. masses --      1.0707                 1.0702                 1.0618
 Frc consts  --      5.7094                 5.7228                 5.7140
 IR Inten    --     19.9960                80.9040                23.4429

                     88                     89                     90
                      A                      A                      A
 Frequencies --   3032.2419              3040.9326              3042.3564
 Red. masses --      1.0619                 1.0686                 1.0757
 Frc consts  --      5.7525                 5.8222                 5.8665
 IR Inten    --     65.5776                91.9205                 0.6355

                     91                     92                     93
                      A                      A                      A
 Frequencies --   3052.2923              3060.1202              3062.2222
 Red. masses --      1.0648                 1.1024                 1.0739
 Frc consts  --      5.8448                 6.0825                 5.9331
 IR Inten    --     10.1391                29.9331                 6.1950

                     94                     95                     96
                      A                      A                      A
 Frequencies --   3070.4293              3081.9538              3096.1193
 Red. masses --      1.0826                 1.1027                 1.0955
 Frc consts  --      6.0133                 6.1713                 6.1870
 IR Inten    --     85.1154                27.9327                55.7835

                     97                     98                     99
                      A                      A                      A
 Frequencies --   3096.8496              3100.0475              3100.7918
 Red. masses --      1.0938                 1.0977                 1.0968
 Frc consts  --      6.1807                 6.2152                 6.2132
 IR Inten    --      7.3148                47.0982                47.1683

                    100                    101                    102
                      A                      A                      A
 Frequencies --   3108.5053              3174.2249              3494.8068
 Red. masses --      1.1030                 1.0844                 1.0736
 Frc consts  --      6.2798                 6.4372                 7.7256
 IR Inten    --     31.4465                17.2676                 1.4412

 - Thermochemistry -
 -------------------
 Temperature   298.150 Kelvin.  Pressure   1.00000 Atm.
 Atom     1 has atomic number  6 and mass  12.00000

 Molecular mass:   224.17494 amu.
 Principal axes and moments of inertia in atomic units:
                           1         2         3
     Eigenvalues --  1269.422917638.815488095.61577
           X            0.99998   0.00464  -0.00309
           Y           -0.00458   0.99977   0.02081
           Z            0.00318  -0.02080   0.99978
 This molecule is an asymmetric top.
 Rotational symmetry number  1.
 Warning -- assumption of classical behavior for rotation
           may cause significant error
 Rotational temperatures (Kelvin)      0.06823     0.01134     0.01070
 Rotational constants (GHZ):           1.42170     0.23626     0.22293
 Zero-point vibrational energy     840171.8 (Joules/Mol)
                                  200.80588 (Kcal/Mol)
 Warning -- explicit consideration of  23 degrees of freedom as
           vibrations may cause significant error
 Vibrational temperatures:     28.86    60.37    68.93    89.12   148.84
          (Kelvin)            181.26   234.99   320.54   366.18   384.37
                              405.47   466.19   506.83   525.45   532.82
                              596.15   628.09   664.68   685.48   735.26
                              788.42   815.73   817.98   939.21  1007.76
                             1037.65  1091.81  1119.10  1147.19  1191.71
                             1220.05  1272.30  1299.38  1342.85  1366.10
                             1370.15  1390.33  1465.76  1498.70  1503.57
                             1523.43  1531.52  1562.99  1593.83  1613.02
                             1632.68  1654.14  1667.17  1722.99  1740.88
                             1756.39  1784.29  1805.16  1825.15  1835.94
                             1884.76  1899.57  1910.23  1940.23  1950.37
                             1978.39  1983.73  2006.61  2019.26  2022.44
                             2027.39  2032.78  2043.94  2056.32  2073.82
                             2096.64  2151.21  2157.02  2168.27  2172.02
                             2174.23  2185.21  2196.54  2202.36  2224.18
                             2241.53  3208.17  4194.87  4253.42  4328.39
                             4334.52  4348.31  4362.72  4375.22  4377.27
                             4391.57  4402.83  4405.85  4417.66  4434.24
                             4454.63  4455.68  4460.28  4461.35  4472.45
                             4567.00  5028.25

 Zero-point correction=                           0.320005 (Hartree/Particle)
 Thermal correction to Energy=                    0.335045
 Thermal correction to Enthalpy=                  0.335989
 Thermal correction to Gibbs Free Energy=         0.276218
 Sum of electronic and zero-point Energies=           -721.226478
 Sum of electronic and thermal Energies=              -721.211438
 Sum of electronic and thermal Enthalpies=            -721.210494
 Sum of electronic and thermal Free Energies=         -721.270265

                     E (Thermal)             CV                S
                      KCal/Mol        Cal/Mol-Kelvin    Cal/Mol-Kelvin
 Total                  210.244             58.468            125.799
 Electronic               0.000              0.000              0.000
 Translational            0.889              2.981             42.124
 Rotational               0.889              2.981             32.729
 Vibrational            208.466             52.506             50.946
 Vibration     1          0.593              1.986              6.629
 Vibration     2          0.595              1.980              5.164
 Vibration     3          0.595              1.978              4.902
 Vibration     4          0.597              1.972              4.394
 Vibration     5          0.605              1.946              3.388
 Vibration     6          0.611              1.927              3.006
 Vibration     7          0.623              1.887              2.511
 Vibration     8          0.648              1.806              1.936
 Vibration     9          0.665              1.755              1.699
 Vibration    10          0.672              1.733              1.615
 Vibration    11          0.681              1.707              1.523
 Vibration    12          0.709              1.627              1.290
 Vibration    13          0.729              1.571              1.156
 Vibration    14          0.738              1.544              1.100
 Vibration    15          0.742              1.533              1.078
 Vibration    16          0.778              1.439              0.911
 Vibration    17          0.797              1.391              0.838
 Vibration    18          0.820              1.334              0.760
 Vibration    19          0.833              1.302              0.720
 Vibration    20          0.866              1.226              0.631
 Vibration    21          0.903              1.144              0.548
 Vibration    22          0.923              1.103              0.510
 Vibration    23          0.925              1.099              0.507

 Optimization completed.
    -- Stationary point found.
 Normal termination of Gaussian 16 at Fri Dec 11 00:53:20 2020.

 ----------------------------------------------------------------------
 # B3LYP/6-311++G(d,p) empiricaldispersion=gd3bj scf=xqc pop=npa geom=c
 heck
 ----------------------------------------------------------------------

 ---------------------------------------
 CID_150622435_JID_6796_Energie_neutraal
 ---------------------------------------
 Structure from the checkpoint file:  "JID_6796.chk"
 Charge =  0 Multiplicity = 1

 SCF Done:  E(RB3LYP) =  -721.745651005     A.U. after   15 cycles
 Normal termination of Gaussian 16 at Fri Dec 11 00:58:57 2020.

 ----------------------------------------------------------------------
 # B3LYP/6-311++G(d,p) empiricaldispersion=gd3bj scf=xqc pop=npa geom=c
 heck
 ----------------------------------------------------------------------

 -------------------------------------
 CID_150622435_JID_6796_Energie_kation
 -------------------------------------
 Structure from the checkpoint file:  "JID_6796.chk"
 Charge =  1 Multiplicity = 2

 SCF Done:  E(UB3LYP) =  -721.468078250     A.U. after   30 cycles
 Normal termination of Gaussian 16 at Fri Dec 11 01:14:12 2020.
 Gaussian 16:  ES64L-G16RevA.03 25-Dec-2016

 ----------------------------------------------------------------------
 # B3LYP/6-311++G(d,p) empiricaldispersion=gd3bj scf=xqc pop=npa geom=c
 heck
 ----------------------------------------------------------------------

 ------------------------------------
 CID_150622435_JID_6796_Energie_anion
 ------------------------------------
 Structure from the checkpoint file:  "JID_6796.chk"
 Charge = -1 Multiplicity = 2

                         Standard orientation:
 ---------------------------------------------------------------------
 Center     Atomic      Atomic             Coordinates (Angstroms)
 Number     Number       Type             X           Y           Z
 ---------------------------------------------------------------------
      1          6           0        2.280208    1.880237   -0.262514
      2          6           0        3.694004    1.452609    0.182863
      3          7           0        4.288116    0.299050   -0.488970
      4          6           0        3.855658   -0.997281    0.018239
      5          6           0        2.391662   -1.413313   -0.203835
      6          7           0        1.430591   -0.423204    0.277918
      7          6           0        1.346149    0.720053   -0.635736
      8          6           0        0.182454   -1.020503    0.775605
      9          6           0       -0.735774   -1.706246   -0.269839
     10          6           0       -1.739698   -0.768932   -0.944052
     11          7           0       -2.540974   -0.099762    0.093125
     12          6           0       -1.709003    0.773070    0.934462
     13          6           0       -0.648721   -0.064774    1.658779
     14          7           0       -3.503491    0.764985   -0.594215
     15          7           0       -4.670164    0.424017   -0.313602
     16          7           0       -5.782629    0.232068   -0.153919
     17          1           0        2.344585    2.548559   -1.132961
     18          1           0        1.829263    2.469415    0.547526
     19          1           0        4.370851    2.310210    0.071222
     20          1           0        3.672649    1.208994    1.249956
     21          1           0        4.171018    0.357275   -1.498652
     22          1           0        4.052115   -0.997073    1.097404
     23          1           0        4.498149   -1.770793   -0.424556
     24          1           0        2.229430   -2.356834    0.331791
     25          1           0        2.238265   -1.631627   -1.279786
     26          1           0        0.328734    1.104684   -0.663843
     27          1           0        1.568378    0.391997   -1.666669
     28          1           0        0.529194   -1.814445    1.446396
     29          1           0       -0.130426   -2.203874   -1.035942
     30          1           0       -1.308852   -2.488468    0.243338
     31          1           0       -1.241660   -0.036830   -1.598705
     32          1           0       -2.427260   -1.346663   -1.569050
     33          1           0       -2.365384    1.244974    1.672052
     34          1           0       -1.264785    1.585349    0.338695
     35          1           0       -1.176319   -0.680015    2.396969
     36          1           0        0.030266    0.595565    2.208620
 ---------------------------------------------------------------------

 SCF Done:  E(UB3LYP) =  -721.742837667     A.U. after   33 cycles
 SCF Done:  E(UB3LYP) =  -721.742837667     a.u. after    1 cycles

 The electronic state is 2-A.
 Alpha  occ. eigenvalues --  -14.31501 -14.23403 -14.22800 -14.22358 -14.20381
 Alpha  occ. eigenvalues --  -14.20274 -10.10168 -10.09769 -10.09591 -10.09362
 Alpha  occ. eigenvalues --  -10.09231 -10.08780 -10.08512 -10.07099 -10.06821
 Alpha  occ. eigenvalues --  -10.06422  -0.99441  -0.87130  -0.83493  -0.80217
 Alpha  occ. eigenvalues --   -0.77063  -0.68546  -0.67631  -0.65427  -0.60419
 Alpha  occ. eigenvalues --   -0.58776  -0.54239  -0.52820  -0.50101  -0.47825
 Alpha  occ. eigenvalues --   -0.44692  -0.43891  -0.40483  -0.38490  -0.37767
 Alpha  occ. eigenvalues --   -0.37124  -0.36865  -0.36615  -0.36010  -0.34322
 Alpha  occ. eigenvalues --   -0.33660  -0.32843  -0.31799  -0.31448  -0.30174
 Alpha  occ. eigenvalues --   -0.29520  -0.28358  -0.28104  -0.27764  -0.26556
 Alpha  occ. eigenvalues --   -0.25550  -0.25216  -0.24054  -0.23692  -0.22188
 Alpha  occ. eigenvalues --   -0.21964  -0.20481  -0.13267  -0.12203  -0.11788
 Alpha  occ. eigenvalues --   -0.11202   0.04316
 Alpha virt. eigenvalues --    0.05958   0.06679   0.07147   0.08029   0.09053
 Alpha virt. eigenvalues --    0.09230   0.09580   0.09824   0.10443   0.11390
 Alpha virt. eigenvalues --    0.11785   0.12447   0.12490   0.13124   0.13270

  Beta  occ. eigenvalues --  -14.31150 -14.23456 -14.22285 -14.22216 -14.20368
  Beta  occ. eigenvalues --  -14.20261 -10.10162 -10.09765 -10.09578 -10.09351
  Beta  occ. eigenvalues --  -10.09210 -10.08770 -10.08501 -10.07090 -10.06814
  Beta  occ. eigenvalues --  -10.06407  -0.98744  -0.86815  -0.83465  -0.80183
  Beta  occ. eigenvalues --   -0.76795  -0.68512  -0.67542  -0.65388  -0.60355
  Beta  occ. eigenvalues --   -0.58741  -0.54114  -0.52774  -0.50048  -0.47732
  Beta  occ. eigenvalues --   -0.44604  -0.43654  -0.40449  -0.38221  -0.37718
  Beta  occ. eigenvalues --   -0.36926  -0.36582  -0.36354  -0.35319  -0.34189
  Beta  occ. eigenvalues --   -0.33475  -0.32615  -0.31555  -0.31015  -0.29843
  Beta  occ. eigenvalues --   -0.29272  -0.28325  -0.28050  -0.27718  -0.26506
  Beta  occ. eigenvalues --   -0.25512  -0.25158  -0.24012  -0.23540  -0.22049
  Beta  occ. eigenvalues --   -0.21916  -0.19716  -0.13231  -0.12054  -0.11639
  Beta  occ. eigenvalues --   -0.11123
  Beta virt. eigenvalues --    0.06365   0.07097   0.07356   0.08023   0.09177
  Beta virt. eigenvalues --    0.09343   0.09742   0.09904   0.10182   0.10846
  Beta virt. eigenvalues --    0.11521   0.11911   0.12516   0.12626   0.13269

 Mulliken charges and spin densities:
               1          2
     1  C   -0.177623  -0.010407
     2  C    0.021836  -0.455039
     3  N   -0.245037   0.152062
     4  C    0.575564  -1.206080
     5  C   -0.067584   0.122185
     6  N    0.307305   0.053718
     7  C   -0.223522  -0.272203
     8  C   -0.637667   0.487548
     9  C    0.138026  -0.591220
    10  C   -0.151907  -0.206705
    11  N    0.131143  -0.026894
    12  C   -0.170825  -0.092290
    13  C   -0.074003  -0.542945
    14  N   -0.471723   0.402475
    15  N    0.328160  -0.031613
    16  N   -0.235380   0.112889
    17  H   -0.054472   0.190017
    18  H    0.110476   0.015748
    19  H    0.074724   0.106867
    20  H    0.090844   0.051787
    21  H    0.023205   0.194227
    22  H    0.106758   0.050051
    23  H   -0.229765   0.394620
    24  H   -0.230283   0.380007
    25  H   -0.051364   0.178221
    26  H    0.318133  -0.262747
    27  H   -0.002248   0.158311
    28  H   -0.230551   0.393877
    29  H   -0.093723   0.234613
    30  H    0.034922   0.123277
    31  H   -0.106042   0.238796
    32  H    0.020291   0.197601
    33  H    0.058490   0.144260
    34  H   -0.085171   0.217133
    35  H    0.119223   0.039572
    36  H    0.079789   0.058280
 Sum of Mulliken charges =  -1.00000   1.00000

 Dipole moment (field-independent basis, Debye):
    X=              4.1603    Y=              1.4024    Z=              1.6320  Tot=              4.6838
 Quadrupole moment (field-independent basis, Debye-Ang):
   XX=           -209.5985   YY=           -128.4435   ZZ=           -121.4143
   XY=              7.8942   XZ=              0.8476   YZ=              1.7434

 Summary of Natural Population Analysis:

                                       Natural Population
                Natural  -----------------------------------------------
    Atom  No    Charge         Core      Valence    Rydberg      Total
 -----------------------------------------------------------------------
      C    1   -0.19775      0.99962     2.19055    0.00758     3.19775
      C    2   -0.08724      0.99962     2.07685    0.01077     3.08724
      N    3   -0.34109      0.99976     2.82959    0.01175     3.84109
      C    4   -0.08740      0.99961     2.07504    0.01275     3.08740
      C    5   -0.09010      0.99960     2.07871    0.01178     3.09010
      N    6   -0.28994      0.99969     2.77670    0.01355     3.78994
      C    7   -0.09296      0.99960     2.08096    0.01240     3.09296
      C    8    0.00392      0.99957     1.98217    0.01434     2.99608
      C    9   -0.20711      0.99959     2.19839    0.00913     3.20711
      C   10   -0.08777      0.99961     2.07614    0.01202     3.08777
      N   11   -0.18701      0.99970     2.67425    0.01305     3.68701
      C   12   -0.08398      0.99960     2.07413    0.01024     3.08398
      C   13   -0.20159      0.99960     2.19262    0.00937     3.20159
      N   14   -0.15511      0.99973     2.64038    0.01500     3.65511
      N   15    0.14211      0.99971     2.34319    0.01499     3.35789
      N   16    0.01314      0.99982     2.47282    0.01422     3.48686
      H   17    0.09190      0.00000     0.40673    0.00137     0.40810
      H   18    0.09555      0.00000     0.40319    0.00126     0.40445
      H   19    0.08924      0.00000     0.40975    0.00101     0.41076
      H   20    0.09237      0.00000     0.40606    0.00158     0.40763
      H   21    0.17039      0.00000     0.32698    0.00263     0.32961
      H   22    0.08877      0.00000     0.40989    0.00134     0.41123
      H   23    0.09246      0.00000     0.40651    0.00104     0.40754
      H   24    0.09788      0.00000     0.40044    0.00167     0.40212
      H   25    0.07812      0.00000     0.41969    0.00218     0.42188
      H   26    0.10192      0.00000     0.39598    0.00210     0.39808
      H   27    0.08147      0.00000     0.41651    0.00202     0.41853
      H   28    0.09730      0.00000     0.40132    0.00138     0.40270
      H   29    0.10290      0.00000     0.39613    0.00097     0.39710
      H   30    0.10105      0.00000     0.39733    0.00161     0.39895
      H   31    0.08330      0.00000     0.41468    0.00202     0.41670
      H   32    0.09958      0.00000     0.39910    0.00132     0.40042
      H   33    0.09881      0.00000     0.39985    0.00134     0.40119
      H   34    0.08118      0.00000     0.41692    0.00190     0.41882
      H   35    0.10177      0.00000     0.39704    0.00119     0.39823
      H   36    0.10390      0.00000     0.39486    0.00124     0.39610
 =======================================================================
   * Total *   -0.00000     15.99442    44.78147    0.22411    61.00000

 Normal termination of Gaussian 16 at Fri Dec 11 01:31:23 2020.
