 Gaussian 16, Revision A.03,

 -----------------------------------------------------------
 # opt freq B3LYP/6-31G(d) empiricaldispersion=gd3bj scf=xqc
 -----------------------------------------------------------

 -----------------------------
 CID_118970001_JID_15_neutraal
 -----------------------------
 Symbolic Z-matrix:
 Charge =  0 Multiplicity = 1

 SCF Done:  E(RB3LYP) =  -488.346299834     A.U. after   16 cycles
 SCF Done:  E(RB3LYP) =  -488.355061317     A.U. after   13 cycles
 SCF Done:  E(RB3LYP) =  -488.355861437     A.U. after   12 cycles
 SCF Done:  E(RB3LYP) =  -488.356000862     A.U. after   11 cycles
 SCF Done:  E(RB3LYP) =  -488.356035832     A.U. after   11 cycles
 SCF Done:  E(RB3LYP) =  -488.356058535     A.U. after    9 cycles
 SCF Done:  E(RB3LYP) =  -488.356061741     A.U. after    9 cycles
 SCF Done:  E(RB3LYP) =  -488.356062633     A.U. after    8 cycles
 SCF Done:  E(RB3LYP) =  -488.356062937     A.U. after    8 cycles
 Optimization completed.
    -- Stationary point found.
 Normal termination of Gaussian 16 at Tue Dec  8 10:14:57 2020.

 --------------------------------------------------------------------
 #N Geom=AllCheck Guess=TCheck SCRF=Check GenChk RB3LYP/6-31G(d) Freq
 --------------------------------------------------------------------

 Structure from the checkpoint file:  "JID_15.chk"
 -----------------------------
 CID_118970001_JID_15_neutraal
 -----------------------------
 Charge =  0 Multiplicity = 1

 SCF Done:  E(RB3LYP) =  -488.356062937     A.U. after    1 cycles

  Exact polarizability:  96.434  -1.623  91.584   2.544   1.865  38.296
 Approx polarizability: 145.013 -10.041 167.013   5.061   9.146  59.448

                      1                      2                      3
                      A                      A                      A
 Frequencies --    132.0867               165.6251               198.3284
 Red. masses --      3.9592                 6.3907                 2.0658
 Frc consts  --      0.0407                 0.1033                 0.0479
 IR Inten    --      3.1625                 8.9578                 5.3569

                      4                      5                      6
                      A                      A                      A
 Frequencies --    220.9923               309.9796               315.9800
 Red. masses --      1.3724                 5.3946                 4.4268
 Frc consts  --      0.0395                 0.3054                 0.2604
 IR Inten    --      4.0284                13.2927                 5.9032

                      7                      8                      9
                      A                      A                      A
 Frequencies --    432.9364               487.7930               552.3941
 Red. masses --      4.1857                 1.4421                 2.1477
 Frc consts  --      0.4622                 0.2022                 0.3861
 IR Inten    --     35.7006                87.0753               116.8930

                     10                     11                     12
                      A                      A                      A
 Frequencies --    614.7352               642.5181               654.3353
 Red. masses --      5.5005                 3.4022                 3.4930
 Frc consts  --      1.2247                 0.8275                 0.8812
 IR Inten    --      5.8510                 1.5487                22.7064

                     13                     14                     15
                      A                      A                      A
 Frequencies --    665.5807               675.3284               724.9568
 Red. masses --      5.9860                 4.9031                 3.6693
 Frc consts  --      1.5624                 1.3175                 1.1362
 IR Inten    --     14.6995                 2.3669                93.0378

                     16                     17                     18
                      A                      A                      A
 Frequencies --    770.4093               823.9426               965.6291
 Red. masses --      7.9092                 1.4507                 7.0223
 Frc consts  --      2.7658                 0.5803                 3.8579
 IR Inten    --     21.9754                15.7527                 3.0418

                     19                     20                     21
                      A                      A                      A
 Frequencies --    998.9321              1068.5203              1111.1596
 Red. masses --      4.5343                 2.7362                 1.8001
 Frc consts  --      2.6658                 1.8406                 1.3095
 IR Inten    --     10.2449                 0.9445                21.2819

                     22                     23                     24
                      A                      A                      A
 Frequencies --   1142.7372              1169.6590              1210.7896
 Red. masses --      2.6230                 1.5504                 3.6821
 Frc consts  --      2.0181                 1.2497                 3.1804
 IR Inten    --      1.8060                58.6689                31.4487

                     25                     26                     27
                      A                      A                      A
 Frequencies --   1244.6807              1275.7009              1379.8883
 Red. masses --      2.4215                 2.0618                 1.6482
 Frc consts  --      2.2103                 1.9769                 1.8491
 IR Inten    --      5.3220                17.1679                20.1091

                     28                     29                     30
                      A                      A                      A
 Frequencies --   1404.2033              1443.3393              1466.8643
 Red. masses --      2.5857                 2.9910                 3.4407
 Frc consts  --      3.0040                 3.6711                 4.3620
 IR Inten    --     50.4812                63.3872                44.0550

                     31                     32                     33
                      A                      A                      A
 Frequencies --   1475.0268              1512.4411              1530.7902
 Red. masses --      1.3813                 1.0606                 1.1508
 Frc consts  --      1.7706                 1.4294                 1.5889
 IR Inten    --      2.7018                15.4468                 9.2735

                     34                     35                     36
                      A                      A                      A
 Frequencies --   1581.3496              1610.0286              1820.5890
 Red. masses --      4.0040                 7.8262                11.4340
 Frc consts  --      5.8993                11.9527                22.3291
 IR Inten    --     36.3886                68.6573               624.5839

                     37                     38                     39
                      A                      A                      A
 Frequencies --   3043.1314              3128.7751              3165.2854
 Red. masses --      1.0416                 1.0952                 1.1045
 Frc consts  --      5.6831                 6.3166                 6.5201
 IR Inten    --     55.1399                24.0664                 8.8330

                     40                     41                     42
                      A                      A                      A
 Frequencies --   3273.4151              3568.6181              3661.4683
 Red. masses --      1.0968                 1.0775                 1.0813
 Frc consts  --      6.9241                 8.0850                 8.5412
 IR Inten    --      1.5436                25.5910                81.4919

 - Thermochemistry -
 -------------------
 Temperature   298.150 Kelvin.  Pressure   1.00000 Atm.
 Atom     1 has atomic number  6 and mass  12.00000

 Molecular mass:   138.05416 amu.
 Principal axes and moments of inertia in atomic units:
                           1         2         3
     Eigenvalues --   949.477901107.630922004.93119
           X            0.95050   0.31073   0.00113
           Y           -0.31070   0.95044  -0.01157
           Z           -0.00467   0.01065   0.99993
 This molecule is an asymmetric top.
 Rotational symmetry number  1.
 Warning -- assumption of classical behavior for rotation
           may cause significant error
 Rotational temperatures (Kelvin)      0.09122     0.07820     0.04320
 Rotational constants (GHZ):           1.90077     1.62937     0.90015
 Zero-point vibrational energy     320844.1 (Joules/Mol)
                                   76.68358 (Kcal/Mol)
 Warning -- explicit consideration of  10 degrees of freedom as
           vibrations may cause significant error
 Vibrational temperatures:    190.04   238.30   285.35   317.96   445.99
          (Kelvin)            454.62   622.90   701.83   794.77   884.47
                              924.44   941.44   957.62   971.65  1043.05
                             1108.45  1185.47  1389.32  1437.24  1537.36
                             1598.71  1644.14  1682.88  1742.06  1790.82
                             1835.45  1985.35  2020.34  2076.64  2110.49
                             2122.23  2176.07  2202.47  2275.21  2316.47
                             2619.42  4378.39  4501.61  4554.14  4709.71
                             5134.45  5268.04

 Zero-point correction=                           0.122203 (Hartree/Particle)
 Thermal correction to Energy=                    0.130126
 Thermal correction to Enthalpy=                  0.131070
 Thermal correction to Gibbs Free Energy=         0.089592
 Sum of electronic and zero-point Energies=           -488.233860
 Sum of electronic and thermal Energies=              -488.225937
 Sum of electronic and thermal Enthalpies=            -488.224993
 Sum of electronic and thermal Free Energies=         -488.266470

                     E (Thermal)             CV                S
                      KCal/Mol        Cal/Mol-Kelvin    Cal/Mol-Kelvin
 Total                   81.655             30.383             87.296
 Electronic               0.000              0.000              0.000
 Translational            0.889              2.981             40.679
 Rotational               0.889              2.981             29.135
 Vibrational             79.878             24.421             17.482
 Vibration     1          0.612              1.921              2.915
 Vibration     2          0.624              1.885              2.485
 Vibration     3          0.637              1.842              2.149
 Vibration     4          0.648              1.809              1.951
 Vibration     5          0.699              1.655              1.362
 Vibration     6          0.703              1.643              1.331
 Vibration     7          0.794              1.398              0.849
 Vibration     8          0.844              1.277              0.689
 Vibration     9          0.908              1.134              0.539
 Vibration    10          0.974              1.001              0.425

                           ! Non-Optimized Parameters !
 Normal termination of Gaussian 16 at Tue Dec  8 10:17:34 2020.

 ----------------------------------------------------------------------
 # B3LYP/6-311++G(d,p) empiricaldispersion=gd3bj scf=xqc pop=npa geom=c
 heck
 ----------------------------------------------------------------------

 -------------------------------------
 CID_118970001_JID_15_Energie_neutraal
 -------------------------------------
 Structure from the checkpoint file:  "JID_15.chk"
 Charge =  0 Multiplicity = 1

 SCF Done:  E(RB3LYP) =  -488.498502912     A.U. after   15 cycles
 Normal termination of Gaussian 16 at Tue Dec  8 10:18:32 2020.

 ----------------------------------------------------------------------
 # B3LYP/6-311++G(d,p) empiricaldispersion=gd3bj scf=xqc pop=npa geom=c
 heck
 ----------------------------------------------------------------------

 -----------------------------------
 CID_118970001_JID_15_Energie_kation
 -----------------------------------
 Structure from the checkpoint file:  "JID_15.chk"
 Charge =  1 Multiplicity = 2

 SCF Done:  E(UB3LYP) =  -488.197614771     A.U. after   23 cycles
 Normal termination of Gaussian 16 at Tue Dec  8 10:20:08 2020.
 Gaussian 16:  ES64L-G16RevA.03 25-Dec-2016

 ----------------------------------------------------------------------
 # B3LYP/6-311++G(d,p) empiricaldispersion=gd3bj scf=xqc pop=npa geom=c
 heck
 ----------------------------------------------------------------------

 ----------------------------------
 CID_118970001_JID_15_Energie_anion
 ----------------------------------
 Structure from the checkpoint file:  "JID_15.chk"
 Charge = -1 Multiplicity = 2

                         Standard orientation:
 ---------------------------------------------------------------------
 Center     Atomic      Atomic             Coordinates (Angstroms)
 Number     Number       Type             X           Y           Z
 ---------------------------------------------------------------------
      1          6           0       -1.392708   -2.209486    0.345175
      2          7           0       -0.948113   -1.019337   -0.382621
      3          6           0        0.367095   -0.611529   -0.200700
      4          6           0        0.470390    0.742067    0.002975
      5          6           0       -0.851060    1.329735    0.026557
      6          8           0       -1.271572    2.474122    0.076556
      7          7           0       -1.689490    0.169270   -0.051909
      8          7           0        1.826204    0.968362    0.144809
      9          6           0        2.425310   -0.259384    0.036862
     10          7           0        1.567082   -1.254818   -0.164549
     11          1           0       -0.708242   -3.021502    0.090058
     12          1           0       -2.400358   -2.477508    0.018252
     13          1           0       -1.389559   -2.049087    1.431166
     14          1           0       -2.519296    0.283996   -0.626055
     15          1           0        2.287769    1.855014    0.284586
     16          1           0        3.498319   -0.376642    0.104223
 ---------------------------------------------------------------------

 SCF Done:  E(UB3LYP) =  -488.488872422     A.U. after   33 cycles
 SCF Done:  E(UB3LYP) =  -488.488872422     a.u. after    1 cycles

 The electronic state is 2-A.
 Alpha  occ. eigenvalues --  -18.98126 -14.27150 -14.26714 -14.25800 -14.20463
 Alpha  occ. eigenvalues --  -10.16963 -10.13430 -10.12108 -10.10185 -10.09180
 Alpha  occ. eigenvalues --   -0.95211  -0.91768  -0.89825  -0.78367  -0.73097
 Alpha  occ. eigenvalues --   -0.67609  -0.58667  -0.54511  -0.51485  -0.48331
 Alpha  occ. eigenvalues --   -0.41522  -0.41199  -0.38915  -0.37135  -0.34342
 Alpha  occ. eigenvalues --   -0.33214  -0.32664  -0.32036  -0.29572  -0.29134
 Alpha  occ. eigenvalues --   -0.23823  -0.19527  -0.19051  -0.15673  -0.15074
 Alpha  occ. eigenvalues --   -0.11103   0.04532
 Alpha virt. eigenvalues --    0.06308   0.07404   0.09084   0.09455   0.10629
 Alpha virt. eigenvalues --    0.11415   0.13210   0.13693   0.14706   0.14981
 Alpha virt. eigenvalues --    0.15868   0.16391   0.17407   0.18636   0.18977

  Beta  occ. eigenvalues --  -18.98065 -14.27156 -14.26608 -14.25794 -14.20484
  Beta  occ. eigenvalues --  -10.16906 -10.13343 -10.12068 -10.10132 -10.09175
  Beta  occ. eigenvalues --   -0.95146  -0.91664  -0.89757  -0.78270  -0.73045
  Beta  occ. eigenvalues --   -0.67514  -0.58574  -0.54347  -0.51336  -0.48269
  Beta  occ. eigenvalues --   -0.41459  -0.41097  -0.38835  -0.37011  -0.34283
  Beta  occ. eigenvalues --   -0.33116  -0.32551  -0.31947  -0.29514  -0.28881
  Beta  occ. eigenvalues --   -0.23686  -0.19492  -0.18911  -0.15592  -0.14972
  Beta  occ. eigenvalues --   -0.10881
  Beta virt. eigenvalues --    0.07099   0.07969   0.08490   0.09476   0.10618
  Beta virt. eigenvalues --    0.11243   0.11763   0.13257   0.13902   0.14819
  Beta virt. eigenvalues --    0.15233   0.15832   0.16555   0.17486   0.18676

 Mulliken charges and spin densities:
               1          2
     1  C    0.913086  -1.225856
     2  N    0.072973   0.051388
     3  C    0.685621  -1.233671
     4  C   -0.204996   0.612809
     5  C    1.341770  -1.438588
     6  O   -0.412027   0.025777
     7  N   -0.320051   0.088811
     8  N   -0.237232   0.010536
     9  C    0.148576   0.073188
    10  N   -0.311810   0.076504
    11  H   -0.016485   0.172433
    12  H   -0.590921   0.736407
    13  H   -0.176053   0.332851
    14  H    0.231500   0.040060
    15  H   -0.546981   0.881546
    16  H   -1.576969   1.795804
 Sum of Mulliken charges =  -1.00000   1.00000

 Dipole moment (field-independent basis, Debye):
    X=             -4.7845    Y=             -1.7759    Z=             -1.0151  Tot=              5.2035
 Quadrupole moment (field-independent basis, Debye-Ang):
   XX=           -118.2972   YY=           -104.2264   ZZ=            -76.5041
   XY=             -7.9528   XZ=              2.3419   YZ=             -1.3998

 Summary of Natural Population Analysis:

                                       Natural Population
                Natural  -----------------------------------------------
    Atom  No    Charge         Core      Valence    Rydberg      Total
 -----------------------------------------------------------------------
      C    1   -0.17552      0.99964     2.16671    0.00917     3.17552
      N    2   -0.16008      0.99965     2.64746    0.01297     3.66008
      C    3    0.18179      0.99940     1.80368    0.01513     2.81821
      C    4   -0.02243      0.99929     2.01031    0.01284     3.02243
      C    5    0.31800      0.99962     1.66023    0.02214     2.68200
      O    6   -0.31627      0.99987     3.31034    0.00605     4.31627
      N    7   -0.23633      0.99971     2.72531    0.01131     3.73633
      N    8   -0.25453      0.99967     2.74406    0.01080     3.75453
      C    9    0.14086      0.99966     1.84186    0.01762     2.85914
      N   10   -0.27292      0.99969     2.76312    0.01011     3.77292
      H   11    0.10476      0.00000     0.39374    0.00150     0.39524
      H   12    0.09690      0.00000     0.40093    0.00217     0.40310
      H   13    0.09155      0.00000     0.40649    0.00197     0.40845
      H   14    0.18955      0.00000     0.30831    0.00214     0.31045
      H   15    0.21666      0.00000     0.26343    0.01990     0.28334
      H   16    0.09802      0.00000     0.39635    0.00564     0.40198
 =======================================================================
   * Total *   -0.00000      9.99620    25.84233    0.16147    36.00000

 Normal termination of Gaussian 16 at Tue Dec  8 10:22:22 2020.
