 Gaussian 16, Revision A.03,

 -----------------------------------------------------------
 # opt freq B3LYP/6-31G(d) empiricaldispersion=gd3bj scf=xqc
 -----------------------------------------------------------

 -------------------------------
 CID_140249592_JID_6805_neutraal
 -------------------------------
 Symbolic Z-matrix:
 Charge =  0 Multiplicity = 1

 SCF Done:  E(RB3LYP) =  -699.666621433     A.U. after   14 cycles
 SCF Done:  E(RB3LYP) =  -699.666785399     A.U. after   13 cycles
 SCF Done:  E(RB3LYP) =  -699.669134232     A.U. after   14 cycles
 SCF Done:  E(RB3LYP) =  -699.669348769     A.U. after   14 cycles
 SCF Done:  E(RB3LYP) =  -699.670697839     A.U. after   14 cycles
 SCF Done:  E(RB3LYP) =  -699.670797417     A.U. after   12 cycles
 SCF Done:  E(RB3LYP) =  -699.670865440     A.U. after   11 cycles
 SCF Done:  E(RB3LYP) =  -699.670948332     A.U. after   10 cycles
 SCF Done:  E(RB3LYP) =  -699.670976407     A.U. after   10 cycles
 SCF Done:  E(RB3LYP) =  -699.670997711     A.U. after    9 cycles
 SCF Done:  E(RB3LYP) =  -699.671002992     A.U. after    7 cycles
 SCF Done:  E(RB3LYP) =  -699.671003625     A.U. after    8 cycles
 SCF Done:  E(RB3LYP) =  -699.671003854     A.U. after    7 cycles
 SCF Done:  E(RB3LYP) =  -699.671003933     A.U. after    7 cycles
 Optimization completed.
    -- Stationary point found.
 Normal termination of Gaussian 16 at Fri Dec 11 00:44:28 2020.

 --------------------------------------------------------------------
 #N Geom=AllCheck Guess=TCheck SCRF=Check GenChk RB3LYP/6-31G(d) Freq
 --------------------------------------------------------------------

 Structure from the checkpoint file:  "JID_6805.chk"
 -------------------------------
 CID_140249592_JID_6805_neutraal
 -------------------------------
 Charge =  0 Multiplicity = 1

 SCF Done:  E(RB3LYP) =  -699.671003933     A.U. after    1 cycles

  Exact polarizability: 148.776  -3.963 161.958  15.754  -1.404 140.922
 Approx polarizability: 205.474  -8.491 215.892  32.009 -11.892 218.282

                      1                      2                      3
                      A                      A                      A
 Frequencies --     15.7512                34.7751                36.3577
 Red. masses --      4.0221                 3.4863                 3.0605
 Frc consts  --      0.0006                 0.0025                 0.0024
 IR Inten    --      0.4256                 0.4634                 0.0154

                      4                      5                      6
                      A                      A                      A
 Frequencies --     40.7490                72.8073                90.7214
 Red. masses --      3.1472                 3.7932                 2.3276
 Frc consts  --      0.0031                 0.0118                 0.0113
 IR Inten    --      0.2339                 0.4517                 1.9889

                      7                      8                      9
                      A                      A                      A
 Frequencies --     98.6722               140.3421               159.3347
 Red. masses --      3.4599                 3.1191                 3.2791
 Frc consts  --      0.0198                 0.0362                 0.0490
 IR Inten    --      2.9106                 0.5385                 0.3558

                     10                     11                     12
                      A                      A                      A
 Frequencies --    174.6265               190.6123               230.0451
 Red. masses --      1.0702                 2.8908                 1.2627
 Frc consts  --      0.0192                 0.0619                 0.0394
 IR Inten    --      0.3148                 1.0751                 1.2004

                     13                     14                     15
                      A                      A                      A
 Frequencies --    233.4849               240.3554               264.5660
 Red. masses --      1.5906                 1.7532                 1.1216
 Frc consts  --      0.0511                 0.0597                 0.0463
 IR Inten    --      0.2526                 1.0935                 0.0109

                     16                     17                     18
                      A                      A                      A
 Frequencies --    291.2764               311.0173               321.6767
 Red. masses --      2.6974                 1.9327                 1.8784
 Frc consts  --      0.1348                 0.1101                 0.1145
 IR Inten    --      0.1581                 0.1921                 1.5373

                     19                     20                     21
                      A                      A                      A
 Frequencies --    358.3358               359.3407               366.0970
 Red. masses --      2.4032                 2.2884                 2.9168
 Frc consts  --      0.1818                 0.1741                 0.2303
 IR Inten    --      2.8243                 0.2114                 6.8287

                     22                     23                     24
                      A                      A                      A
 Frequencies --    379.6051               392.0641               398.1831
 Red. masses --      3.2038                 1.9544                 1.8604
 Frc consts  --      0.2720                 0.1770                 0.1738
 IR Inten    --      0.8763                 0.9537                 4.8978

                     25                     26                     27
                      A                      A                      A
 Frequencies --    407.5440               440.1509               483.6539
 Red. masses --      2.6324                 2.3769                 3.0529
 Frc consts  --      0.2576                 0.2713                 0.4208
 IR Inten    --      1.5055                 0.5219                 3.5108

                     28                     29                     30
                      A                      A                      A
 Frequencies --    508.5647               524.8224               572.3890
 Red. masses --      2.4245                 2.4977                 2.9522
 Frc consts  --      0.3695                 0.4053                 0.5699
 IR Inten    --      1.7829                 0.5415                 0.7652

                     31                     32                     33
                      A                      A                      A
 Frequencies --    608.2358               653.6382               756.2470
 Red. masses --      4.2157                 1.3745                 2.1120
 Frc consts  --      0.9189                 0.3460                 0.7117
 IR Inten    --      2.4369                12.6738                 0.5053

                     34                     35                     36
                      A                      A                      A
 Frequencies --    784.4153               824.4298               829.7914
 Red. masses --      1.5546                 1.5438                 2.4881
 Frc consts  --      0.5636                 0.6182                 1.0094
 IR Inten    --      1.8350                 0.5710                11.9572

                     37                     38                     39
                      A                      A                      A
 Frequencies --    848.7793               866.3387               883.1123
 Red. masses --      4.1082                 1.9815                 2.1760
 Frc consts  --      1.7438                 0.8762                 0.9999
 IR Inten    --      3.5679                 1.3916                 0.4549

                     40                     41                     42
                      A                      A                      A
 Frequencies --    918.2460               948.3512               973.1101
 Red. masses --      1.8358                 1.9496                 1.3644
 Frc consts  --      0.9120                 1.0331                 0.7612
 IR Inten    --      0.5804                 8.7636                23.6156

                     43                     44                     45
                      A                      A                      A
 Frequencies --    973.5874               979.1901              1004.4437
 Red. masses --      1.3488                 1.6157                 1.7212
 Frc consts  --      0.7532                 0.9128                 1.0232
 IR Inten    --     10.9577                 1.6520                 2.6409

                     46                     47                     48
                      A                      A                      A
 Frequencies --   1008.5820              1022.3776              1035.8094
 Red. masses --      1.3562                 1.9950                 1.4833
 Frc consts  --      0.8128                 1.2286                 0.9376
 IR Inten    --      5.0675                 2.3117                 3.8887

                     49                     50                     51
                      A                      A                      A
 Frequencies --   1047.1211              1053.9342              1074.1047
 Red. masses --      2.0569                 1.9648                 1.7799
 Frc consts  --      1.3288                 1.2859                 1.2099
 IR Inten    --      3.1765                25.2500                 8.1744

                     52                     53                     54
                      A                      A                      A
 Frequencies --   1077.9847              1087.9172              1111.7573
 Red. masses --      2.5649                 1.4665                 1.9598
 Frc consts  --      1.7561                 1.0226                 1.4272
 IR Inten    --      7.8477                 0.5179                 2.0371

                     55                     56                     57
                      A                      A                      A
 Frequencies --   1151.0661              1180.1789              1190.9694
 Red. masses --      2.1982                 2.3269                 2.2099
 Frc consts  --      1.7160                 1.9095                 1.8468
 IR Inten    --      9.1211                 3.9281               107.1218

                     58                     59                     60
                      A                      A                      A
 Frequencies --   1198.8668              1204.0348              1212.5886
 Red. masses --      2.2569                 2.1225                 2.6656
 Frc consts  --      1.9112                 1.8129                 2.3093
 IR Inten    --     89.9662                 1.7948               108.3378

                     61                     62                     63
                      A                      A                      A
 Frequencies --   1263.6128              1296.4176              1301.5728
 Red. masses --      1.3536                 1.3507                 1.2143
 Frc consts  --      1.2734                 1.3375                 1.2121
 IR Inten    --      1.9737                 7.3932                 7.8105

                     64                     65                     66
                      A                      A                      A
 Frequencies --   1325.4867              1354.2649              1358.0909
 Red. masses --      1.2540                 1.3361                 2.4257
 Frc consts  --      1.2981                 1.4438                 2.6359
 IR Inten    --      1.4423                10.0747               103.9774

                     67                     68                     69
                      A                      A                      A
 Frequencies --   1371.1287              1387.2162              1396.0910
 Red. masses --      1.2092                 1.2361                 1.3431
 Frc consts  --      1.3394                 1.4014                 1.5423
 IR Inten    --      1.9471                 6.5306                 2.2012

                     70                     71                     72
                      A                      A                      A
 Frequencies --   1407.8577              1409.3729              1424.2170
 Red. masses --      1.3628                 1.3443                 1.3988
 Frc consts  --      1.5915                 1.5732                 1.6717
 IR Inten    --      2.1934                 2.0084                 6.0369

                     73                     74                     75
                      A                      A                      A
 Frequencies --   1426.7844              1438.2554              1441.2223
 Red. masses --      1.3307                 1.2515                 1.2307
 Frc consts  --      1.5961                 1.5253                 1.5062
 IR Inten    --      5.0312                 5.2077                13.0228

                     76                     77                     78
                      A                      A                      A
 Frequencies --   1442.8256              1443.6594              1445.4137
 Red. masses --      1.2875                 1.2366                 1.2616
 Frc consts  --      1.5791                 1.5185                 1.5529
 IR Inten    --      7.6704                 1.2151                 1.1654

                     79                     80                     81
                      A                      A                      A
 Frequencies --   1462.8543              1503.4979              1507.7147
 Red. masses --      1.2466                 1.0442                 1.0809
 Frc consts  --      1.5718                 1.3907                 1.4476
 IR Inten    --     13.5821                 4.8568                 2.0360

                     82                     83                     84
                      A                      A                      A
 Frequencies --   1514.9190              1518.4645              1525.0671
 Red. masses --      1.0664                 1.0561                 1.0545
 Frc consts  --      1.4419                 1.4347                 1.4450
 IR Inten    --      0.7602                11.1911                 0.5234

                     85                     86                     87
                      A                      A                      A
 Frequencies --   1527.9112              1528.7514              1534.0200
 Red. masses --      1.0520                 1.0812                 1.0479
 Frc consts  --      1.4470                 1.4888                 1.4528
 IR Inten    --      6.0110                10.8268                10.3487

                     88                     89                     90
                      A                      A                      A
 Frequencies --   1534.6432              1539.1963              1550.5753
 Red. masses --      1.0507                 1.0620                 1.0519
 Frc consts  --      1.4580                 1.4823                 1.4901
 IR Inten    --      3.9895                 1.3843                 2.5410

                     91                     92                     93
                      A                      A                      A
 Frequencies --   1554.8384              1559.0629              1719.4844
 Red. masses --      1.0456                 1.0558                 5.2220
 Frc consts  --      1.4893                 1.5121                 9.0967
 IR Inten    --      4.1435                 7.0900                21.3626

                     94                     95                     96
                      A                      A                      A
 Frequencies --   1783.6121              2995.2604              3016.6071
 Red. masses --     10.6996                 1.0826                 1.0708
 Frc consts  --     20.0548                 5.7223                 5.7410
 IR Inten    --    198.8699                19.4644                23.1255

                     97                     98                     99
                      A                      A                      A
 Frequencies --   3037.7446              3040.0149              3043.5078
 Red. masses --      1.0455                 1.0558                 1.0561
 Frc consts  --      5.6842                 5.7487                 5.7635
 IR Inten    --      5.0742                 8.9200                48.3058

                    100                    101                    102
                      A                      A                      A
 Frequencies --   3044.9441              3049.7005              3053.5120
 Red. masses --      1.0411                 1.0736                 1.0741
 Frc consts  --      5.6875                 5.8829                 5.9006
 IR Inten    --     16.5756                15.9561                48.3602

                    103                    104                    105
                      A                      A                      A
 Frequencies --   3057.9101              3063.9435              3079.1389
 Red. masses --      1.0360                 1.0393                 1.0974
 Frc consts  --      5.7077                 5.7486                 6.1303
 IR Inten    --     12.3814                11.5609                18.5483

                    106                    107                    108
                      A                      A                      A
 Frequencies --   3093.2105              3094.0509              3101.5113
 Red. masses --      1.0772                 1.0853                 1.1009
 Frc consts  --      6.0727                 6.1213                 6.2395
 IR Inten    --     21.7469                45.8123                46.5272

                    109                    110                    111
                      A                      A                      A
 Frequencies --   3105.9907              3114.0243              3115.3192
 Red. masses --      1.1012                 1.0999                 1.0949
 Frc consts  --      6.2590                 6.2840                 6.2607
 IR Inten    --     48.4224                19.6818                36.5440

                    112                    113                    114
                      A                      A                      A
 Frequencies --   3122.6749              3128.1101              3129.0608
 Red. masses --      1.0988                 1.0993                 1.0993
 Frc consts  --      6.3126                 6.3380                 6.3416
 IR Inten    --     32.5945                77.1478                40.7636

                    115                    116                    117
                      A                      A                      A
 Frequencies --   3135.7413              3137.2475              3142.3310
 Red. masses --      1.0996                 1.1025                 1.1037
 Frc consts  --      6.3706                 6.3935                 6.4210
 IR Inten    --     10.3022                28.5488                16.7041

                    118                    119                    120
                      A                      A                      A
 Frequencies --   3178.3174              3197.1503              3271.9984
 Red. masses --      1.0620                 1.0949                 1.1144
 Frc consts  --      6.3206                 6.5943                 7.0293
 IR Inten    --      9.4520                 4.9226                 4.8673

 - Thermochemistry -
 -------------------
 Temperature   298.150 Kelvin.  Pressure   1.00000 Atm.
 Atom     1 has atomic number  6 and mass  12.00000

 Molecular mass:   226.19328 amu.
 Principal axes and moments of inertia in atomic units:
                           1         2         3
     Eigenvalues --  3301.971464397.302275841.20344
           X            0.99992  -0.00880   0.00960
           Y            0.00877   0.99996   0.00293
           Z           -0.00962  -0.00284   0.99995
 This molecule is an asymmetric top.
 Rotational symmetry number  1.
 Warning -- assumption of classical behavior for rotation
           may cause significant error
 Rotational temperatures (Kelvin)      0.02623     0.01970     0.01483
 Rotational constants (GHZ):           0.54656     0.41042     0.30897
 Zero-point vibrational energy    1004828.8 (Joules/Mol)
                                  240.15985 (Kcal/Mol)
 Warning -- explicit consideration of  31 degrees of freedom as
           vibrations may cause significant error
 Vibrational temperatures:     22.66    50.03    52.31    58.63   104.75
          (Kelvin)            130.53   141.97   201.92   229.25   251.25
                              274.25   330.98   335.93   345.82   380.65
                              419.08   447.48   462.82   515.57   517.01
                              526.73   546.17   564.09   572.90   586.36
                              633.28   695.87   731.71   755.10   823.54
                              875.12   940.44  1088.07  1128.60  1186.17
                             1193.88  1221.20  1246.47  1270.60  1321.15
                             1364.47  1400.09  1400.78  1408.84  1445.17
                             1451.12  1470.97  1490.30  1506.57  1516.38
                             1545.40  1550.98  1565.27  1599.57  1656.13
                             1698.01  1713.54  1724.90  1732.34  1744.64
                             1818.06  1865.26  1872.67  1907.08  1948.49
                             1953.99  1972.75  1995.89  2008.66  2025.59
                             2027.77  2049.13  2052.82  2069.33  2073.60
                             2075.90  2077.10  2079.63  2104.72  2163.20
                             2169.27  2179.63  2184.73  2194.23  2198.32
                             2199.53  2207.11  2208.01  2214.56  2230.93
                             2237.07  2243.14  2473.95  2566.22  4309.51
                             4340.22  4370.64  4373.90  4378.93  4381.00
                             4387.84  4393.32  4399.65  4408.33  4430.19
                             4450.44  4451.65  4462.38  4468.83  4480.39
                             4482.25  4492.83  4500.65  4502.02  4511.63
                             4513.80  4521.11  4572.89  4599.99  4707.68

 Zero-point correction=                           0.382719 (Hartree/Particle)
 Thermal correction to Energy=                    0.402054
 Thermal correction to Enthalpy=                  0.402998
 Thermal correction to Gibbs Free Energy=         0.333874
 Sum of electronic and zero-point Energies=           -699.288285
 Sum of electronic and thermal Energies=              -699.268950
 Sum of electronic and thermal Enthalpies=            -699.268006
 Sum of electronic and thermal Free Energies=         -699.337130

                     E (Thermal)             CV                S
                      KCal/Mol        Cal/Mol-Kelvin    Cal/Mol-Kelvin
 Total                  252.292             72.051            145.484
 Electronic               0.000              0.000              0.000
 Translational            0.889              2.981             42.151
 Rotational               0.889              2.981             32.806
 Vibrational            250.515             66.089             70.527
 Vibration     1          0.593              1.986              7.108
 Vibration     2          0.594              1.983              5.536
 Vibration     3          0.594              1.982              5.448
 Vibration     4          0.594              1.981              5.222
 Vibration     5          0.599              1.967              4.076
 Vibration     6          0.602              1.956              3.644
 Vibration     7          0.604              1.950              3.480
 Vibration     8          0.615              1.913              2.799
 Vibration     9          0.621              1.892              2.558
 Vibration    10          0.627              1.874              2.385
 Vibration    11          0.634              1.853              2.222
 Vibration    12          0.652              1.795              1.879
 Vibration    13          0.654              1.790              1.852
 Vibration    14          0.657              1.779              1.800
 Vibration    15          0.671              1.738              1.631
 Vibration    16          0.687              1.690              1.467
 Vibration    17          0.700              1.653              1.357
 Vibration    18          0.707              1.632              1.302
 Vibration    19          0.733              1.558              1.129
 Vibration    20          0.734              1.556              1.125
 Vibration    21          0.739              1.542              1.096
 Vibration    22          0.750              1.514              1.041
 Vibration    23          0.760              1.487              0.992
 Vibration    24          0.764              1.474              0.969
 Vibration    25          0.772              1.454              0.935
 Vibration    26          0.800              1.383              0.826
 Vibration    27          0.840              1.286              0.700
 Vibration    28          0.864              1.231              0.637
 Vibration    29          0.880              1.195              0.599
 Vibration    30          0.929              1.091              0.500
 Vibration    31          0.967              1.014              0.436

 Optimization completed.
    -- Stationary point found.
 Normal termination of Gaussian 16 at Fri Dec 11 01:00:42 2020.

 ----------------------------------------------------------------------
 # B3LYP/6-311++G(d,p) empiricaldispersion=gd3bj scf=xqc pop=npa geom=c
 heck
 ----------------------------------------------------------------------

 ---------------------------------------
 CID_140249592_JID_6805_Energie_neutraal
 ---------------------------------------
 Structure from the checkpoint file:  "JID_6805.chk"
 Charge =  0 Multiplicity = 1

 SCF Done:  E(RB3LYP) =  -699.869199762     A.U. after   14 cycles
 Normal termination of Gaussian 16 at Fri Dec 11 01:08:04 2020.

 ----------------------------------------------------------------------
 # B3LYP/6-311++G(d,p) empiricaldispersion=gd3bj scf=xqc pop=npa geom=c
 heck
 ----------------------------------------------------------------------

 -------------------------------------
 CID_140249592_JID_6805_Energie_kation
 -------------------------------------
 Structure from the checkpoint file:  "JID_6805.chk"
 Charge =  1 Multiplicity = 2

 SCF Done:  E(UB3LYP) =  -699.527949330     A.U. after   33 cycles
 SCF Done:  E(UB3LYP) =  -699.527949330     a.u. after    1 cycles
 Normal termination of Gaussian 16 at Fri Dec 11 01:30:59 2020.
 Gaussian 16:  ES64L-G16RevA.03 25-Dec-2016

 ----------------------------------------------------------------------
 # B3LYP/6-311++G(d,p) empiricaldispersion=gd3bj scf=xqc pop=npa geom=c
 heck
 ----------------------------------------------------------------------

 ------------------------------------
 CID_140249592_JID_6805_Energie_anion
 ------------------------------------
 Structure from the checkpoint file:  "JID_6805.chk"
 Charge = -1 Multiplicity = 2

                         Standard orientation:
 ---------------------------------------------------------------------
 Center     Atomic      Atomic             Coordinates (Angstroms)
 Number     Number       Type             X           Y           Z
 ---------------------------------------------------------------------
      1          6           0       -2.757810    2.954398   -0.246557
      2          6           0       -2.777381    1.448877   -0.533145
      3          6           0       -1.706978    0.639328    0.226168
      4          6           0       -1.838848    0.865457    1.740054
      5          6           0       -1.740741   -0.873660   -0.141889
      6          6           0       -1.776546   -1.079752   -1.666483
      7          6           0       -0.607078   -1.659906    0.615399
      8          6           0       -1.220551   -2.477508    1.765362
      9          6           0        0.302674   -2.599196   -0.204195
     10          6           0        1.315239   -1.933326   -1.133002
     11          8           0        2.136900   -1.016968   -0.373525
     12          6           0        1.978362    0.303024   -0.608630
     13          8           0        1.292278    0.760408   -1.505656
     14          6           0        2.716508    1.166318    0.359316
     15          6           0        3.428564    0.633431    1.359345
     16          6           0        2.567626    2.644478    0.124179
     17          1           0       -3.060670    3.188851    0.778922
     18          1           0       -3.441023    3.485270   -0.919014
     19          1           0       -1.752862    3.367259   -0.401532
     20          1           0       -3.772951    1.042243   -0.298046
     21          1           0       -2.634131    1.311865   -1.609200
     22          1           0       -0.728589    1.022199   -0.095533
     23          1           0       -2.823231    0.535759    2.098603
     24          1           0       -1.077904    0.325174    2.309668
     25          1           0       -1.732123    1.924330    1.993165
     26          1           0       -2.695074   -1.267640    0.240261
     27          1           0       -1.009999   -0.484632   -2.172322
     28          1           0       -1.636665   -2.130472   -1.937786
     29          1           0       -2.746989   -0.780806   -2.072056
     30          1           0        0.068379   -0.922596    1.065723
     31          1           0       -1.845971   -3.288249    1.369452
     32          1           0       -0.445523   -2.930197    2.395180
     33          1           0       -1.854927   -1.856818    2.404762
     34          1           0        0.869847   -3.206646    0.512804
     35          1           0       -0.287907   -3.308947   -0.797215
     36          1           0        2.003263   -2.678546   -1.542766
     37          1           0        0.853417   -1.387654   -1.952195
     38          1           0        3.957118    1.265004    2.068102
     39          1           0        3.500733   -0.439370    1.494262
     40          1           0        2.905628    2.916461   -0.881553
     41          1           0        1.515011    2.942874    0.187578
     42          1           0        3.141474    3.215973    0.858652
 ---------------------------------------------------------------------

 SCF Done:  E(UB3LYP) =  -699.865564836     A.U. after   33 cycles
 SCF Done:  E(UB3LYP) =  -699.865564836     a.u. after    1 cycles

 The electronic state is 2-A.
 Alpha  occ. eigenvalues --  -19.02106 -18.95116 -10.13364 -10.10253 -10.06376
 Alpha  occ. eigenvalues --  -10.06270 -10.06036 -10.05965 -10.05911 -10.05803
 Alpha  occ. eigenvalues --  -10.05256 -10.04920 -10.04617 -10.03907 -10.03336
 Alpha  occ. eigenvalues --  -10.01463  -0.95925  -0.87000  -0.72357  -0.68807
 Alpha  occ. eigenvalues --   -0.66606  -0.63940  -0.61960  -0.61100  -0.55949
 Alpha  occ. eigenvalues --   -0.53858  -0.53736  -0.51765  -0.47239  -0.45110
 Alpha  occ. eigenvalues --   -0.43878  -0.41944  -0.36929  -0.36094  -0.35761
 Alpha  occ. eigenvalues --   -0.34782  -0.33911  -0.32906  -0.32710  -0.31697
 Alpha  occ. eigenvalues --   -0.30835  -0.30006  -0.29540  -0.29088  -0.28338
 Alpha  occ. eigenvalues --   -0.28004  -0.27374  -0.26743  -0.26042  -0.25832
 Alpha  occ. eigenvalues --   -0.25403  -0.24526  -0.23828  -0.22789  -0.22290
 Alpha  occ. eigenvalues --   -0.22049  -0.21172  -0.20413  -0.19322  -0.18953
 Alpha  occ. eigenvalues --   -0.16616  -0.13389  -0.13087   0.04876
 Alpha virt. eigenvalues --    0.06767   0.07236   0.08045   0.08428   0.09307
 Alpha virt. eigenvalues --    0.09559   0.09803   0.10466   0.10821   0.11422
 Alpha virt. eigenvalues --    0.12076   0.12261   0.12659   0.12768   0.13188

  Beta  occ. eigenvalues --  -19.02069 -18.94843 -10.13113 -10.10254 -10.06371
  Beta  occ. eigenvalues --  -10.06269 -10.06027 -10.05958 -10.05893 -10.05802
  Beta  occ. eigenvalues --  -10.05238 -10.04912 -10.04608 -10.03917 -10.03237
  Beta  occ. eigenvalues --  -10.01131  -0.95685  -0.86601  -0.72345  -0.68765
  Beta  occ. eigenvalues --   -0.66238  -0.63893  -0.61923  -0.61081  -0.55729
  Beta  occ. eigenvalues --   -0.53832  -0.53510  -0.51661  -0.46836  -0.44989
  Beta  occ. eigenvalues --   -0.43781  -0.41781  -0.36882  -0.35925  -0.35723
  Beta  occ. eigenvalues --   -0.34588  -0.33745  -0.32773  -0.32566  -0.31636
  Beta  occ. eigenvalues --   -0.30664  -0.29863  -0.29331  -0.28983  -0.28214
  Beta  occ. eigenvalues --   -0.27932  -0.27355  -0.26361  -0.25996  -0.25802
  Beta  occ. eigenvalues --   -0.25345  -0.24408  -0.23728  -0.22643  -0.22209
  Beta  occ. eigenvalues --   -0.21911  -0.21065  -0.20365  -0.19291  -0.18940
  Beta  occ. eigenvalues --   -0.15835  -0.13112  -0.11408
  Beta virt. eigenvalues --    0.06797   0.07511   0.08169   0.08458   0.09284
  Beta virt. eigenvalues --    0.09603   0.09901   0.10072   0.10613   0.10972
  Beta virt. eigenvalues --    0.11449   0.12087   0.12326   0.12673   0.12840

 Mulliken charges and spin densities:
               1          2
     1  C   -0.049864  -0.615348
     2  C   -0.631081   0.388680
     3  C    0.443523  -0.084983
     4  C   -0.422441  -0.417083
     5  C    0.534046  -0.138969
     6  C   -0.561169  -0.271903
     7  C   -0.805021   1.209046
     8  C    0.214674  -0.884167
     9  C    0.086344  -0.634605
    10  C   -0.240584   0.020983
    11  O    0.030046   0.000303
    12  C   -0.406970   0.213137
    13  O   -0.290209   0.094961
    14  C    0.738663  -0.042446
    15  C   -0.827719   0.382973
    16  C   -0.718250   0.018813
    17  H    0.050304   0.083085
    18  H    0.000977   0.125523
    19  H    0.104319   0.060359
    20  H   -0.031933   0.167184
    21  H    0.171045  -0.040802
    22  H    0.169391  -0.064601
    23  H    0.044536   0.108482
    24  H   -0.019275   0.169678
    25  H    0.085224   0.037990
    26  H    0.150638   0.053315
    27  H    0.203673   0.003719
    28  H   -0.080049   0.205196
    29  H   -0.032905   0.172868
    30  H    0.379577  -0.206503
    31  H   -0.115891   0.261858
    32  H   -0.132785   0.261464
    33  H    0.041485   0.091286
    34  H    0.149568   0.010765
    35  H   -0.093210   0.209565
    36  H    0.061283   0.107132
    37  H    0.222413  -0.060653
    38  H    0.076556  -0.008202
    39  H    0.130912  -0.018262
    40  H    0.148278   0.000996
    41  H    0.115295   0.025853
    42  H    0.106582   0.003312
 Sum of Mulliken charges =  -1.00000   1.00000

 Dipole moment (field-independent basis, Debye):
    X=             -2.1193    Y=              0.1202    Z=             -0.9491  Tot=              2.3253
 Quadrupole moment (field-independent basis, Debye-Ang):
   XX=           -151.5086   YY=           -139.1576   ZZ=           -131.6543
   XY=             -5.1633   XZ=             -1.8474   YZ=              3.3993

 Summary of Natural Population Analysis:

                                       Natural Population
                Natural  -----------------------------------------------
    Atom  No    Charge         Core      Valence    Rydberg      Total
 -----------------------------------------------------------------------
      C    1   -0.28488      0.99967     2.28097    0.00424     3.28488
      C    2   -0.18840      0.99962     2.18029    0.00849     3.18840
      C    3   -0.11963      0.99958     2.10975    0.01030     3.11963
      C    4   -0.28567      0.99965     2.28133    0.00469     3.28567
      C    5   -0.10038      0.99957     2.08905    0.01176     3.10038
      C    6   -0.29374      0.99965     2.28749    0.00661     3.29374
      C    7   -0.11868      0.99958     2.10835    0.01074     3.11868
      C    8   -0.28022      0.99965     2.27498    0.00559     3.28022
      C    9   -0.19788      0.99960     2.18880    0.00948     3.19788
      C   10   -0.01656      0.99955     2.00551    0.01149     3.01656
      O   11   -0.28762      0.99986     3.27959    0.00817     4.28762
      C   12    0.42232      0.99960     1.55282    0.02525     2.57768
      O   13   -0.30687      0.99987     3.30224    0.00476     4.30687
      C   14   -0.05970      0.99948     2.05016    0.01005     3.05970
      C   15   -0.10327      0.99953     2.09575    0.00799     3.10327
      C   16   -0.29237      0.99964     2.28703    0.00570     3.29237
      H   17    0.09396      0.00000     0.40508    0.00096     0.40604
      H   18    0.09455      0.00000     0.40464    0.00081     0.40545
      H   19    0.09986      0.00000     0.39916    0.00098     0.40014
      H   20    0.08900      0.00000     0.41000    0.00099     0.41100
      H   21    0.09895      0.00000     0.40003    0.00102     0.40105
      H   22    0.11029      0.00000     0.38727    0.00244     0.38971
      H   23    0.09157      0.00000     0.40755    0.00087     0.40843
      H   24    0.10279      0.00000     0.39633    0.00088     0.39721
      H   25    0.09839      0.00000     0.40080    0.00081     0.40161
      H   26    0.08743      0.00000     0.41086    0.00171     0.41257
      H   27    0.10925      0.00000     0.38986    0.00089     0.39075
      H   28    0.09704      0.00000     0.40218    0.00078     0.40296
      H   29    0.09650      0.00000     0.40274    0.00076     0.40350
      H   30    0.10396      0.00000     0.39371    0.00233     0.39604
      H   31    0.09422      0.00000     0.40477    0.00101     0.40578
      H   32    0.09710      0.00000     0.40212    0.00078     0.40290
      H   33    0.09895      0.00000     0.40021    0.00084     0.40105
      H   34    0.09855      0.00000     0.40037    0.00108     0.40145
      H   35    0.09717      0.00000     0.40173    0.00110     0.40283
      H   36    0.08359      0.00000     0.41547    0.00094     0.41641
      H   37    0.10071      0.00000     0.39788    0.00141     0.39929
      H   38    0.07932      0.00000     0.41981    0.00088     0.42068
      H   39    0.09485      0.00000     0.40424    0.00091     0.40515
      H   40    0.10115      0.00000     0.39796    0.00089     0.39885
      H   41    0.10237      0.00000     0.39639    0.00124     0.39763
      H   42    0.09204      0.00000     0.40719    0.00078     0.40796
 =======================================================================
   * Total *   -0.00000     15.99412    46.83247    0.17341    63.00000

 Normal termination of Gaussian 16 at Fri Dec 11 01:53:17 2020.
