 Gaussian 16, Revision A.03,

 -----------------------------------------------------------
 # opt freq B3LYP/6-31G(d) empiricaldispersion=gd3bj scf=xqc
 -----------------------------------------------------------

 ------------------------------
 CID_66265311_JID_5705_neutraal
 ------------------------------
 Symbolic Z-matrix:
 Charge =  0 Multiplicity = 1

 SCF Done:  E(RB3LYP) =  -763.033050030     A.U. after   14 cycles
 SCF Done:  E(RB3LYP) =  -763.041225330     A.U. after   12 cycles
 SCF Done:  E(RB3LYP) =  -763.042330478     A.U. after   12 cycles
 SCF Done:  E(RB3LYP) =  -763.042376860     A.U. after   12 cycles
 SCF Done:  E(RB3LYP) =  -763.043214625     A.U. after   12 cycles
 SCF Done:  E(RB3LYP) =  -763.043257833     A.U. after   11 cycles
 SCF Done:  E(RB3LYP) =  -763.043506805     A.U. after   11 cycles
 SCF Done:  E(RB3LYP) =  -763.043643920     A.U. after   10 cycles
 SCF Done:  E(RB3LYP) =  -763.043722187     A.U. after   11 cycles
 SCF Done:  E(RB3LYP) =  -763.043820298     A.U. after   11 cycles
 SCF Done:  E(RB3LYP) =  -763.045167239     A.U. after   10 cycles
 SCF Done:  E(RB3LYP) =  -763.045167966     A.U. after    8 cycles
 SCF Done:  E(RB3LYP) =  -763.045168302     A.U. after    8 cycles
 SCF Done:  E(RB3LYP) =  -763.045168443     A.U. after    7 cycles
 SCF Done:  E(RB3LYP) =  -763.045168634     A.U. after    8 cycles
 Optimization completed.
    -- Stationary point found.
 Normal termination of Gaussian 16 at Thu Dec 10 17:34:53 2020.

 --------------------------------------------------------------------
 #N Geom=AllCheck Guess=TCheck SCRF=Check GenChk RB3LYP/6-31G(d) Freq
 --------------------------------------------------------------------

 Structure from the checkpoint file:  "JID_5705.chk"
 ------------------------------
 CID_66265311_JID_5705_neutraal
 ------------------------------
 Charge =  0 Multiplicity = 1

 SCF Done:  E(RB3LYP) =  -763.045168634     A.U. after    1 cycles

  Exact polarizability: 140.169  -2.130 110.131   4.756   7.303  98.537
 Approx polarizability: 167.823  -3.794 165.476   6.348  21.548 159.434

                      1                      2                      3
                      A                      A                      A
 Frequencies --     30.2086                50.8401                59.5199
 Red. masses --      5.9451                 4.1442                 6.8430
 Frc consts  --      0.0032                 0.0063                 0.0143
 IR Inten    --      3.1490                 0.8756                 1.3788

                      4                      5                      6
                      A                      A                      A
 Frequencies --     94.9621               100.9804               103.7113
 Red. masses --      1.6588                 3.1325                 2.9852
 Frc consts  --      0.0088                 0.0188                 0.0189
 IR Inten    --      0.9907                 1.9639                 0.8460

                      7                      8                      9
                      A                      A                      A
 Frequencies --    132.2993               158.2040               173.5117
 Red. masses --      2.7659                 2.3428                 1.6000
 Frc consts  --      0.0285                 0.0345                 0.0284
 IR Inten    --      1.9838                 1.3720                 0.2174

                     10                     11                     12
                      A                      A                      A
 Frequencies --    188.0288               199.7068               222.7017
 Red. masses --      3.1475                 2.0171                 1.4959
 Frc consts  --      0.0656                 0.0474                 0.0437
 IR Inten    --      3.5598                 1.8200                 4.8224

                     13                     14                     15
                      A                      A                      A
 Frequencies --    268.0618               277.2617               317.7266
 Red. masses --      1.7945                 2.4604                 3.8081
 Frc consts  --      0.0760                 0.1114                 0.2265
 IR Inten    --     10.4305                 1.6929                 1.1652

                     16                     17                     18
                      A                      A                      A
 Frequencies --    327.0242               350.8706               375.9723
 Red. masses --      4.2073                 3.7746                 3.8373
 Frc consts  --      0.2651                 0.2738                 0.3196
 IR Inten    --      5.3853                 1.7260                 9.4107

                     19                     20                     21
                      A                      A                      A
 Frequencies --    417.9774               458.8498               511.6553
 Red. masses --      2.8779                 5.0732                 3.6877
 Frc consts  --      0.2962                 0.6293                 0.5688
 IR Inten    --      2.9880                 3.9262                16.4195

                     22                     23                     24
                      A                      A                      A
 Frequencies --    591.6615               621.1569               637.6144
 Red. masses --      3.6205                 1.3209                 3.9069
 Frc consts  --      0.7467                 0.3003                 0.9358
 IR Inten    --     19.7589                80.8555                 3.1266

                     25                     26                     27
                      A                      A                      A
 Frequencies --    653.8179               706.6801               759.8747
 Red. masses --      3.7396                 4.7909                 4.6065
 Frc consts  --      0.9419                 1.4096                 1.5671
 IR Inten    --     59.9886                12.4996                23.3666

                     28                     29                     30
                      A                      A                      A
 Frequencies --    770.1101               796.6026               859.2856
 Red. masses --      6.4862                 6.7693                 2.6408
 Frc consts  --      2.2665                 2.5309                 1.1488
 IR Inten    --      7.7227                10.8937                 1.0432

                     31                     32                     33
                      A                      A                      A
 Frequencies --    936.0001               958.3877               982.6009
 Red. masses --      3.5569                 2.4923                 2.4307
 Frc consts  --      1.8360                 1.3488                 1.3827
 IR Inten    --     26.7308                25.0404                22.7122

                     34                     35                     36
                      A                      A                      A
 Frequencies --    991.5695              1047.6522              1071.8177
 Red. masses --      2.8012                 2.6033                 3.3792
 Frc consts  --      1.6227                 1.6835                 2.2872
 IR Inten    --     34.4514                16.4617                 8.7599

                     37                     38                     39
                      A                      A                      A
 Frequencies --   1085.5222              1093.9491              1110.2423
 Red. masses --      2.1269                 1.3795                 2.4981
 Frc consts  --      1.4766                 0.9727                 1.8142
 IR Inten    --     41.9624                11.2305                27.5133

                     40                     41                     42
                      A                      A                      A
 Frequencies --   1128.4209              1145.0565              1156.4965
 Red. masses --      4.9879                 1.2227                 1.4176
 Frc consts  --      3.7420                 0.9445                 1.1171
 IR Inten    --     68.0181                 4.8373                61.5406

                     43                     44                     45
                      A                      A                      A
 Frequencies --   1167.4723              1184.9463              1194.3906
 Red. masses --      1.9598                 1.4083                 2.5463
 Frc consts  --      1.5738                 1.1650                 2.1402
 IR Inten    --    134.6289                30.0714               138.3086

                     46                     47                     48
                      A                      A                      A
 Frequencies --   1209.4643              1253.9451              1267.4016
 Red. masses --      2.3602                 1.3449                 1.3101
 Frc consts  --      2.0342                 1.2460                 1.2399
 IR Inten    --     89.9203                 7.0031                11.0480

                     49                     50                     51
                      A                      A                      A
 Frequencies --   1293.6062              1301.0155              1318.0887
 Red. masses --      2.1433                 2.0817                 2.1041
 Frc consts  --      2.1132                 2.0761                 2.1538
 IR Inten    --     12.8773                45.9581                83.9411

                     52                     53                     54
                      A                      A                      A
 Frequencies --   1327.7697              1349.1026              1376.1320
 Red. masses --      1.2533                 1.3742                 1.4925
 Frc consts  --      1.3018                 1.4737                 1.6652
 IR Inten    --      1.2802                 4.5645                21.8752

                     55                     56                     57
                      A                      A                      A
 Frequencies --   1381.6271              1397.7475              1427.7622
 Red. masses --      2.1177                 1.3915                 1.5959
 Frc consts  --      2.3818                 1.6017                 1.9167
 IR Inten    --     63.5979                41.3977                78.9389

                     58                     59                     60
                      A                      A                      A
 Frequencies --   1433.2478              1460.3237              1483.5778
 Red. masses --      1.8144                 1.1512                 1.1687
 Frc consts  --      2.1960                 1.4464                 1.5156
 IR Inten    --    107.8672                 9.3452                 8.5339

                     61                     62                     63
                      A                      A                      A
 Frequencies --   1507.6851              1517.9782              1523.8059
 Red. masses --      1.2524                 1.0757                 1.0487
 Frc consts  --      1.6773                 1.4604                 1.4346
 IR Inten    --     49.3119                 5.5176                17.7052

                     64                     65                     66
                      A                      A                      A
 Frequencies --   1525.9608              1532.1657              1539.3372
 Red. masses --      1.0853                 1.0478                 1.0504
 Frc consts  --      1.4890                 1.4493                 1.4664
 IR Inten    --      1.3766                 1.6082                20.3311

                     67                     68                     69
                      A                      A                      A
 Frequencies --   1545.8007              1549.7435              1563.9943
 Red. masses --      1.0529                 1.0972                 1.2355
 Frc consts  --      1.4823                 1.5525                 1.7806
 IR Inten    --     11.4654                 0.6598                68.1795

                     70                     71                     72
                      A                      A                      A
 Frequencies --   1751.4691              1840.2003              3007.2142
 Red. masses --     10.1684                 9.4900                 1.0584
 Frc consts  --     18.3784                18.9342                 5.6393
 IR Inten    --    298.7623               281.3565                52.7249

                     73                     74                     75
                      A                      A                      A
 Frequencies --   3016.5803              3024.1672              3031.0980
 Red. masses --      1.0694                 1.0413                 1.0443
 Frc consts  --      5.7333                 5.6108                 5.6530
 IR Inten    --     48.8737                35.9422                93.7404

                     76                     77                     78
                      A                      A                      A
 Frequencies --   3045.9058              3070.4363              3071.0118
 Red. masses --      1.0832                 1.1029                 1.0698
 Frc consts  --      5.9209                 6.1262                 5.9447
 IR Inten    --     15.0737                35.7360                47.9229

                     79                     80                     81
                      A                      A                      A
 Frequencies --   3087.4768              3118.7278              3130.9670
 Red. masses --      1.0969                 1.0870                 1.0928
 Frc consts  --      6.1608                 6.2293                 6.3118
 IR Inten    --     32.7324                 9.9190                16.7529

                     82                     83                     84
                      A                      A                      A
 Frequencies --   3133.7773              3149.1540              3177.7813
 Red. masses --      1.0800                 1.1007                 1.0964
 Frc consts  --      6.2491                 6.4317                 6.5233
 IR Inten    --     23.9046                26.4218                 8.8361

                     85                     86                     87
                      A                      A                      A
 Frequencies --   3187.2724              3190.1554              3687.6037
 Red. masses --      1.1014                 1.0966                 1.0641
 Frc consts  --      6.5924                 6.5757                 8.5256
 IR Inten    --     11.8896                 2.6409                58.0700

 - Thermochemistry -
 -------------------
 Temperature   298.150 Kelvin.  Pressure   1.00000 Atm.
 Atom     1 has atomic number  6 and mass  12.00000

 Molecular mass:   216.11101 amu.
 Principal axes and moments of inertia in atomic units:
                           1         2         3
     Eigenvalues --  1763.109584854.059935628.80208
           X            0.99982   0.01684   0.00875
           Y           -0.01696   0.99976   0.01368
           Z           -0.00852  -0.01382   0.99987
 This molecule is an asymmetric top.
 Rotational symmetry number  1.
 Warning -- assumption of classical behavior for rotation
           may cause significant error
 Rotational temperatures (Kelvin)      0.04913     0.01784     0.01539
 Rotational constants (GHZ):           1.02361     0.37180     0.32063
 Zero-point vibrational energy     689525.6 (Joules/Mol)
                                  164.80058 (Kcal/Mol)
 Warning -- explicit consideration of  22 degrees of freedom as
           vibrations may cause significant error
 Vibrational temperatures:     43.46    73.15    85.64   136.63   145.29
          (Kelvin)            149.22   190.35   227.62   249.64   270.53
                              287.33   320.42   385.68   398.92   457.14
                              470.51   504.82   540.94   601.38   660.18
                              736.16   851.27   893.71   917.38   940.70
                             1016.76  1093.29  1108.02  1146.13  1236.32
                             1346.70  1378.91  1413.74  1426.65  1507.34
                             1542.11  1561.82  1573.95  1597.39  1623.55
                             1647.48  1663.94  1679.73  1704.87  1718.46
                             1740.15  1804.15  1823.51  1861.21  1871.87
                             1896.44  1910.36  1941.06  1979.95  1987.85
                             2011.05  2054.23  2062.12  2101.08  2134.54
                             2169.22  2184.03  2192.42  2195.52  2204.44
                             2214.76  2224.06  2229.74  2250.24  2519.97
                             2647.64  4326.71  4340.19  4351.10  4361.07
                             4382.38  4417.67  4418.50  4442.19  4487.15
                             4504.76  4508.81  4530.93  4572.12  4585.77
                             4589.92  5305.64

 Zero-point correction=                           0.262626 (Hartree/Particle)
 Thermal correction to Energy=                    0.278538
 Thermal correction to Enthalpy=                  0.279482
 Thermal correction to Gibbs Free Energy=         0.218446
 Sum of electronic and zero-point Energies=           -762.782542
 Sum of electronic and thermal Energies=              -762.766631
 Sum of electronic and thermal Enthalpies=            -762.765686
 Sum of electronic and thermal Free Energies=         -762.826722

                     E (Thermal)             CV                S
                      KCal/Mol        Cal/Mol-Kelvin    Cal/Mol-Kelvin
 Total                  174.785             57.204            128.461
 Electronic               0.000              0.000              0.000
 Translational            0.889              2.981             42.015
 Rotational               0.889              2.981             32.244
 Vibrational            173.008             51.243             54.202
 Vibration     1          0.594              1.984              5.816
 Vibration     2          0.595              1.977              4.784
 Vibration     3          0.597              1.974              4.473
 Vibration     4          0.603              1.953              3.555
 Vibration     5          0.604              1.948              3.435
 Vibration     6          0.605              1.946              3.383
 Vibration     7          0.612              1.921              2.912
 Vibration     8          0.621              1.893              2.571
 Vibration     9          0.627              1.875              2.397
 Vibration    10          0.633              1.856              2.247
 Vibration    11          0.638              1.840              2.136
 Vibration    12          0.648              1.807              1.937
 Vibration    13          0.673              1.732              1.609
 Vibration    14          0.678              1.716              1.551
 Vibration    15          0.704              1.640              1.322
 Vibration    16          0.711              1.621              1.275
 Vibration    17          0.728              1.573              1.162
 Vibration    18          0.747              1.521              1.055
 Vibration    19          0.781              1.431              0.899
 Vibration    20          0.817              1.341              0.769
 Vibration    21          0.867              1.224              0.630
 Vibration    22          0.949              1.050              0.464

                           ! Non-Optimized Parameters !
 Normal termination of Gaussian 16 at Thu Dec 10 17:45:57 2020.

 ----------------------------------------------------------------------
 # B3LYP/6-311++G(d,p) empiricaldispersion=gd3bj scf=xqc pop=npa geom=c
 heck
 ----------------------------------------------------------------------

 --------------------------------------
 CID_66265311_JID_5705_Energie_neutraal
 --------------------------------------
 Structure from the checkpoint file:  "JID_5705.chk"
 Charge =  0 Multiplicity = 1

 SCF Done:  E(RB3LYP) =  -763.276656820     A.U. after   15 cycles
 Normal termination of Gaussian 16 at Thu Dec 10 17:51:03 2020.

 ----------------------------------------------------------------------
 # B3LYP/6-311++G(d,p) empiricaldispersion=gd3bj scf=xqc pop=npa geom=c
 heck
 ----------------------------------------------------------------------

 ------------------------------------
 CID_66265311_JID_5705_Energie_kation
 ------------------------------------
 Structure from the checkpoint file:  "JID_5705.chk"
 Charge =  1 Multiplicity = 2

 SCF Done:  E(UB3LYP) =  -762.962182928     A.U. after   27 cycles
 Normal termination of Gaussian 16 at Thu Dec 10 18:04:24 2020.
 Gaussian 16:  ES64L-G16RevA.03 25-Dec-2016

 ----------------------------------------------------------------------
 # B3LYP/6-311++G(d,p) empiricaldispersion=gd3bj scf=xqc pop=npa geom=c
 heck
 ----------------------------------------------------------------------

 -----------------------------------
 CID_66265311_JID_5705_Energie_anion
 -----------------------------------
 Structure from the checkpoint file:  "JID_5705.chk"
 Charge = -1 Multiplicity = 2

                         Standard orientation:
 ---------------------------------------------------------------------
 Center     Atomic      Atomic             Coordinates (Angstroms)
 Number     Number       Type             X           Y           Z
 ---------------------------------------------------------------------
      1          6           0       -4.230814    0.025607    0.542818
      2          7           0       -2.970745   -0.329711   -0.088567
      3          6           0       -3.062162   -0.846836   -1.444937
      4          6           0       -1.811909    0.173843    0.456023
      5          8           0       -1.810417    0.995548    1.369830
      6          7           0       -0.615244   -0.315676   -0.120093
      7          6           0       -0.420606   -1.769935   -0.015725
      8          6           0        0.560766    0.459095    0.295159
      9          6           0        0.422023    1.976372   -0.016703
     10          8           0        1.505405    2.333925   -0.877376
     11          6           0        2.549687    1.419236   -0.621166
     12          6           0        1.826839    0.061816   -0.508690
     13          6           0        2.663524   -1.033280    0.100770
     14          8           0        2.925193   -2.095787   -0.420450
     15          8           0        3.124376   -0.699613    1.333884
     16          1           0       -4.911379   -0.832970    0.510328
     17          1           0       -4.711645    0.870907    0.029918
     18          1           0       -4.042992    0.309428    1.577205
     19          1           0       -2.092711   -0.765868   -1.935498
     20          1           0       -3.389379   -1.895211   -1.458839
     21          1           0       -3.792393   -0.256799   -2.014853
     22          1           0        0.306249   -2.113978   -0.753868
     23          1           0       -0.057520   -2.051681    0.985429
     24          1           0       -1.363294   -2.286987   -0.189171
     25          1           0        0.743820    0.319081    1.368237
     26          1           0       -0.504984    2.211661   -0.540893
     27          1           0        0.456944    2.555738    0.912736
     28          1           0        3.076903    1.651630    0.316913
     29          1           0        3.260020    1.460716   -1.450684
     30          1           0        1.532079   -0.264664   -1.508350
     31          1           0        3.651680   -1.461382    1.639624
 ---------------------------------------------------------------------

 SCF Done:  E(UB3LYP) =  -763.267267053     A.U. after   33 cycles
 SCF Done:  E(UB3LYP) =  -763.267267053     a.u. after    1 cycles

 The electronic state is 2-A.
 Alpha  occ. eigenvalues --  -19.07910 -19.04046 -19.02757 -18.99395 -14.24793
 Alpha  occ. eigenvalues --  -14.24025 -10.21919 -10.19873 -10.13862 -10.12642
 Alpha  occ. eigenvalues --  -10.12600 -10.10683 -10.10602 -10.10450 -10.10232
 Alpha  occ. eigenvalues --   -1.02104  -0.96392  -0.95803  -0.93194  -0.85012
 Alpha  occ. eigenvalues --   -0.83302  -0.71454  -0.66115  -0.63031  -0.61649
 Alpha  occ. eigenvalues --   -0.59098  -0.55833  -0.52559  -0.50569  -0.45830
 Alpha  occ. eigenvalues --   -0.43079  -0.42634  -0.41832  -0.39914  -0.38996
 Alpha  occ. eigenvalues --   -0.38600  -0.36782  -0.36685  -0.36409  -0.34577
 Alpha  occ. eigenvalues --   -0.33346  -0.33016  -0.31856  -0.31460  -0.31095
 Alpha  occ. eigenvalues --   -0.30744  -0.29206  -0.29038  -0.28454  -0.27357
 Alpha  occ. eigenvalues --   -0.26412  -0.24031  -0.23791  -0.19563  -0.18987
 Alpha  occ. eigenvalues --   -0.17642  -0.15358  -0.14759   0.03980
 Alpha virt. eigenvalues --    0.05461   0.07359   0.07508   0.07780   0.08282
 Alpha virt. eigenvalues --    0.09210   0.09323   0.10542   0.11013   0.11130
 Alpha virt. eigenvalues --    0.11485   0.12017   0.12528   0.12597   0.12954

  Beta  occ. eigenvalues --  -19.07847 -19.04043 -19.02736 -18.99390 -14.24791
  Beta  occ. eigenvalues --  -14.24019 -10.21905 -10.19871 -10.13846 -10.12636
  Beta  occ. eigenvalues --  -10.12597 -10.10672 -10.10556 -10.10426 -10.10198
  Beta  occ. eigenvalues --   -1.02018  -0.96385  -0.95795  -0.93122  -0.84998
  Beta  occ. eigenvalues --   -0.83285  -0.71420  -0.66093  -0.62976  -0.61602
  Beta  occ. eigenvalues --   -0.59048  -0.55752  -0.52524  -0.50498  -0.45791
  Beta  occ. eigenvalues --   -0.43047  -0.42595  -0.41803  -0.39873  -0.38952
  Beta  occ. eigenvalues --   -0.38573  -0.36747  -0.36654  -0.36349  -0.34542
  Beta  occ. eigenvalues --   -0.33322  -0.32984  -0.31823  -0.31425  -0.31051
  Beta  occ. eigenvalues --   -0.30706  -0.29179  -0.29007  -0.28426  -0.27330
  Beta  occ. eigenvalues --   -0.26390  -0.24017  -0.23722  -0.19513  -0.18971
  Beta  occ. eigenvalues --   -0.17626  -0.15339  -0.14728
  Beta virt. eigenvalues --    0.06315   0.06834   0.07797   0.07941   0.08225
  Beta virt. eigenvalues --    0.08974   0.09327   0.09684   0.10861   0.11273
  Beta virt. eigenvalues --    0.11407   0.11695   0.12267   0.12588   0.12672

 Mulliken charges and spin densities:
               1          2
     1  C    0.663847  -0.927717
     2  N   -0.253196   0.231377
     3  C    1.002952  -1.416886
     4  C   -0.541617   0.374385
     5  O   -0.292300   0.004658
     6  N    0.173788   0.067829
     7  C    0.244712  -0.552537
     8  C   -0.370608  -0.636457
     9  C   -0.017295  -0.193208
    10  O   -0.124713   0.016650
    11  C   -0.190089  -0.586537
    12  C    0.455542   0.384467
    13  C   -0.288451  -0.091634
    14  O   -0.234306   0.015411
    15  O   -0.189815   0.054134
    16  H   -0.363885   0.518811
    17  H   -0.039858   0.196886
    18  H   -0.001587   0.180442
    19  H   -0.011049   0.199389
    20  H   -0.380440   0.569194
    21  H   -0.351205   0.482334
    22  H    0.247599  -0.067914
    23  H   -0.192127   0.365158
    24  H   -0.273474   0.459160
    25  H    0.293429  -0.011096
    26  H    0.177814   0.042530
    27  H    0.138984   0.064969
    28  H    0.088042   0.072600
    29  H    0.009133   0.184364
    30  H    0.093718   0.218372
    31  H   -0.473543   0.780864
 Sum of Mulliken charges =  -1.00000   1.00000

 Dipole moment (field-independent basis, Debye):
    X=              1.8012    Y=              3.7647    Z=             -0.9725  Tot=              4.2853
 Quadrupole moment (field-independent basis, Debye-Ang):
   XX=           -174.2929   YY=           -134.9320   ZZ=           -128.0624
   XY=              1.8136   XZ=            -11.9024   YZ=              0.8727

 Summary of Natural Population Analysis:

                                       Natural Population
                Natural  -----------------------------------------------
    Atom  No    Charge         Core      Valence    Rydberg      Total
 -----------------------------------------------------------------------
      C    1   -0.17486      0.99964     2.16682    0.00840     3.17486
      N    2   -0.26138      0.99965     2.75076    0.01096     3.76138
      C    3   -0.17840      0.99963     2.17022    0.00854     3.17840
      C    4    0.41935      0.99963     1.55645    0.02457     2.58065
      O    5   -0.33527      0.99988     3.33036    0.00503     4.33527
      N    6   -0.28409      0.99965     2.77347    0.01096     3.78409
      C    7   -0.18304      0.99962     2.17485    0.00857     3.18304
      C    8   -0.01015      0.99957     1.99639    0.01419     3.01015
      C    9   -0.01012      0.99958     1.99913    0.01142     3.01012
      O   10   -0.29788      0.99989     3.28942    0.00857     4.29788
      C   11   -0.00133      0.99958     1.99031    0.01143     3.00133
      C   12   -0.17464      0.99952     2.16224    0.01288     3.17464
      C   13    0.40958      0.99967     1.56480    0.02596     2.59042
      O   14   -0.30181      0.99987     3.29573    0.00621     4.30181
      O   15   -0.34706      0.99988     3.34005    0.00714     4.34706
      H   16    0.09594      0.00000     0.40260    0.00146     0.40406
      H   17    0.09055      0.00000     0.40837    0.00108     0.40945
      H   18    0.11150      0.00000     0.38757    0.00093     0.38850
      H   19    0.10838      0.00000     0.38998    0.00164     0.39162
      H   20    0.09661      0.00000     0.40096    0.00243     0.40339
      H   21    0.09535      0.00000     0.40308    0.00157     0.40465
      H   22    0.10289      0.00000     0.39572    0.00139     0.39711
      H   23    0.09137      0.00000     0.40737    0.00126     0.40863
      H   24    0.10609      0.00000     0.39261    0.00130     0.39391
      H   25    0.10399      0.00000     0.39432    0.00169     0.39601
      H   26    0.09709      0.00000     0.40155    0.00136     0.40291
      H   27    0.08873      0.00000     0.41010    0.00117     0.41127
      H   28    0.08523      0.00000     0.41314    0.00163     0.41477
      H   29    0.09328      0.00000     0.40547    0.00125     0.40672
      H   30    0.11707      0.00000     0.38129    0.00164     0.38293
      H   31    0.24705      0.00000     0.23079    0.02216     0.25295
 =======================================================================
   * Total *    0.00000     14.99526    42.78594    0.21880    58.00000

 Normal termination of Gaussian 16 at Thu Dec 10 18:20:28 2020.
