 Gaussian 16, Revision A.03,

 -----------------------------------------------------------
 # opt freq B3LYP/6-31G(d) empiricaldispersion=gd3bj scf=xqc
 -----------------------------------------------------------

 -------------------------------
 CID_81974287_JID_10319_neutraal
 -------------------------------
 Symbolic Z-matrix:
 Charge =  0 Multiplicity = 1

 SCF Done:  E(RB3LYP) =  -989.207941493     A.U. after   16 cycles
 SCF Done:  E(RB3LYP) =  -989.214529157     A.U. after   13 cycles
 SCF Done:  E(RB3LYP) =  -989.215224784     A.U. after   13 cycles
 SCF Done:  E(RB3LYP) =  -989.212526985     A.U. after   15 cycles
 SCF Done:  E(RB3LYP) =  -989.215634000     A.U. after   14 cycles
 SCF Done:  E(RB3LYP) =  -989.215910351     A.U. after   12 cycles
 SCF Done:  E(RB3LYP) =  -989.216004044     A.U. after   11 cycles
 SCF Done:  E(RB3LYP) =  -989.216027911     A.U. after   12 cycles
 SCF Done:  E(RB3LYP) =  -989.216039311     A.U. after   11 cycles
 SCF Done:  E(RB3LYP) =  -989.216044317     A.U. after   10 cycles
 SCF Done:  E(RB3LYP) =  -989.216047126     A.U. after   10 cycles
 SCF Done:  E(RB3LYP) =  -989.216048772     A.U. after    9 cycles
 SCF Done:  E(RB3LYP) =  -989.216049564     A.U. after    9 cycles
 SCF Done:  E(RB3LYP) =  -989.216049792     A.U. after    8 cycles
 SCF Done:  E(RB3LYP) =  -989.216049892     A.U. after    7 cycles
 Optimization completed.
    -- Stationary point found.
 Normal termination of Gaussian 16 at Sat Dec 12 15:13:26 2020.

 --------------------------------------------------------------------
 #N Geom=AllCheck Guess=TCheck SCRF=Check GenChk RB3LYP/6-31G(d) Freq
 --------------------------------------------------------------------

 Structure from the checkpoint file:  "JID_10319.chk"
 -------------------------------
 CID_81974287_JID_10319_neutraal
 -------------------------------
 Charge =  0 Multiplicity = 1

 SCF Done:  E(RB3LYP) =  -989.216049892     A.U. after    1 cycles

  Exact polarizability: 211.029   2.998 164.215  10.267  16.433 126.080
 Approx polarizability: 299.589   5.476 269.969  24.855  40.705 186.987

                      1                      2                      3
                      A                      A                      A
 Frequencies --     15.1234                21.5230                33.3542
 Red. masses --      5.6194                 5.4475                 3.9761
 Frc consts  --      0.0008                 0.0015                 0.0026
 IR Inten    --      0.6628                 0.5143                 0.0832

                      4                      5                      6
                      A                      A                      A
 Frequencies --     51.2357                54.9918                73.5223
 Red. masses --      4.8718                 5.9393                 5.2107
 Frc consts  --      0.0075                 0.0106                 0.0166
 IR Inten    --      0.9566                 0.1322                 0.1385

                      7                      8                      9
                      A                      A                      A
 Frequencies --     93.5586               102.2184               106.5689
 Red. masses --      4.1374                 2.5309                 3.4250
 Frc consts  --      0.0213                 0.0156                 0.0229
 IR Inten    --      2.2306                 0.5025                 0.7591

                     10                     11                     12
                      A                      A                      A
 Frequencies --    135.8146               158.6227               169.5459
 Red. masses --      3.7652                 3.2459                 5.3771
 Frc consts  --      0.0409                 0.0481                 0.0911
 IR Inten    --      1.2838                 2.3127                 2.0638

                     13                     14                     15
                      A                      A                      A
 Frequencies --    196.1482               199.7328               211.2409
 Red. masses --      2.5705                 1.1695                 1.5306
 Frc consts  --      0.0583                 0.0275                 0.0402
 IR Inten    --      5.0661                 0.5523                 1.1199

                     16                     17                     18
                      A                      A                      A
 Frequencies --    221.9472               234.4706               268.5088
 Red. masses --      1.9542                 2.0727                 3.4049
 Frc consts  --      0.0567                 0.0671                 0.1446
 IR Inten    --      1.9499                 3.2915                 1.6724

                     19                     20                     21
                      A                      A                      A
 Frequencies --    280.2322               293.3910               304.9302
 Red. masses --      3.7123                 1.9107                 2.3166
 Frc consts  --      0.1718                 0.0969                 0.1269
 IR Inten    --      0.4658                 0.4802                 2.7131

                     22                     23                     24
                      A                      A                      A
 Frequencies --    339.2173               359.6102               405.8040
 Red. masses --      3.4036                 2.8711                 3.0709
 Frc consts  --      0.2308                 0.2188                 0.2979
 IR Inten    --      0.6515                 2.1391                 4.5329

                     25                     26                     27
                      A                      A                      A
 Frequencies --    406.3248               442.3523               462.6374
 Red. masses --      4.5729                 5.9773                 4.8481
 Frc consts  --      0.4448                 0.6891                 0.6114
 IR Inten    --      4.0737                 1.3338                 1.5619

                     28                     29                     30
                      A                      A                      A
 Frequencies --    495.6691               533.7324               549.8864
 Red. masses --      2.7895                 1.9862                 4.0292
 Frc consts  --      0.4038                 0.3334                 0.7178
 IR Inten    --      3.4973                12.7148                47.1996

                     31                     32                     33
                      A                      A                      A
 Frequencies --    596.3559               629.5261               676.6211
 Red. masses --      3.6396                 4.0004                 2.2748
 Frc consts  --      0.7626                 0.9341                 0.6136
 IR Inten    --      5.4717                11.8967                35.2493

                     34                     35                     36
                      A                      A                      A
 Frequencies --    679.9317               707.2955               725.3081
 Red. masses --      5.9706                 1.9898                 5.4385
 Frc consts  --      1.6263                 0.5865                 1.6857
 IR Inten    --      6.3647                95.1184                 0.9964

                     37                     38                     39
                      A                      A                      A
 Frequencies --    748.9121               773.6674               787.1404
 Red. masses --      1.9874                 3.0857                 7.1727
 Frc consts  --      0.6568                 1.0882                 2.6184
 IR Inten    --      3.4497                 9.8478                10.3765

                     40                     41                     42
                      A                      A                      A
 Frequencies --    809.8643               826.4109               841.2414
 Red. masses --      1.2825                 2.8076                 3.9935
 Frc consts  --      0.4956                 1.1297                 1.6651
 IR Inten    --      1.7648                20.0034                15.4973

                     43                     44                     45
                      A                      A                      A
 Frequencies --    880.6472               883.4978               903.3335
 Red. masses --      1.9156                 3.1518                 2.2875
 Frc consts  --      0.8753                 1.4495                 1.0998
 IR Inten    --     14.7779                18.2912                29.7500

                     46                     47                     48
                      A                      A                      A
 Frequencies --    907.0564               937.6523               982.5282
 Red. masses --      1.9349                 1.9875                 1.8872
 Frc consts  --      0.9379                 1.0296                 1.0734
 IR Inten    --     42.8651                29.1971                23.1191

                     49                     50                     51
                      A                      A                      A
 Frequencies --   1008.1946              1036.6417              1051.4018
 Red. masses --      2.2218                 2.2223                 1.5759
 Frc consts  --      1.3306                 1.4070                 1.0264
 IR Inten    --     14.8560                 1.9412                 6.2614

                     52                     53                     54
                      A                      A                      A
 Frequencies --   1082.1950              1090.9935              1105.7802
 Red. masses --      2.5531                 2.0548                 1.8968
 Frc consts  --      1.7617                 1.4410                 1.3665
 IR Inten    --      6.4080                17.8630                 8.6336

                     55                     56                     57
                      A                      A                      A
 Frequencies --   1119.4801              1137.2882              1160.3884
 Red. masses --      1.7028                 1.7446                 1.3503
 Frc consts  --      1.2573                 1.3295                 1.0712
 IR Inten    --     12.0975                 6.8540                 9.7643

                     58                     59                     60
                      A                      A                      A
 Frequencies --   1165.8782              1171.7907              1188.1520
 Red. masses --      3.5822                 2.4693                 2.7992
 Frc consts  --      2.8688                 1.9977                 2.3282
 IR Inten    --     65.9763                20.3399               354.9282

                     61                     62                     63
                      A                      A                      A
 Frequencies --   1247.8798              1261.6491              1283.0019
 Red. masses --      1.4224                 2.6413                 1.2586
 Frc consts  --      1.3050                 2.4771                 1.2207
 IR Inten    --     31.1683                32.7264                 9.6173

                     64                     65                     66
                      A                      A                      A
 Frequencies --   1293.5622              1307.6235              1314.3105
 Red. masses --      1.7159                 1.2739                 2.7659
 Frc consts  --      1.6917                 1.2833                 2.8151
 IR Inten    --     17.9683                13.4607                27.9677

                     67                     68                     69
                      A                      A                      A
 Frequencies --   1330.4174              1359.8139              1371.4396
 Red. masses --      1.5137                 1.4235                 1.4359
 Frc consts  --      1.5786                 1.5508                 1.5912
 IR Inten    --      7.2874                 9.8298                 9.1949

                     70                     71                     72
                      A                      A                      A
 Frequencies --   1375.2827              1401.2314              1417.9753
 Red. masses --      1.3562                 1.4288                 1.4195
 Frc consts  --      1.5113                 1.6528                 1.6816
 IR Inten    --     11.0761                14.1789                 5.4589

                     73                     74                     75
                      A                      A                      A
 Frequencies --   1423.6946              1427.4733              1439.5545
 Red. masses --      7.2089                 1.2683                 1.9122
 Frc consts  --      8.6091                 1.5227                 2.3348
 IR Inten    --    219.4766                 5.0891                82.8024

                     76                     77                     78
                      A                      A                      A
 Frequencies --   1443.1917              1447.2632              1468.1795
 Red. masses --      1.6311                 1.4139                 1.3593
 Frc consts  --      2.0015                 1.7449                 1.7264
 IR Inten    --      6.8872                 2.3964                30.4146

                     79                     80                     81
                      A                      A                      A
 Frequencies --   1479.5717              1485.9784              1500.2646
 Red. masses --      2.9301                 1.1805                 1.3048
 Frc consts  --      3.7792                 1.5358                 1.7303
 IR Inten    --     76.7648                 1.5459                41.1403

                     82                     83                     84
                      A                      A                      A
 Frequencies --   1516.1587              1520.3391              1525.4980
 Red. masses --      1.0827                 1.0806                 1.0560
 Frc consts  --      1.4664                 1.4716                 1.4479
 IR Inten    --     27.8111                 7.9505                 1.1974

                     85                     86                     87
                      A                      A                      A
 Frequencies --   1525.9072              1529.6312              1535.0078
 Red. masses --      1.0708                 1.4268                 1.0578
 Frc consts  --      1.4690                 1.9670                 1.4685
 IR Inten    --      6.5767                45.6698                 9.3485

                     88                     89                     90
                      A                      A                      A
 Frequencies --   1536.8693              1540.1819              1546.0425
 Red. masses --      1.2780                 1.0801                 1.4950
 Frc consts  --      1.7785                 1.5096                 2.1054
 IR Inten    --     26.1188                10.7444                50.1514

                     91                     92                     93
                      A                      A                      A
 Frequencies --   1574.4152              1603.1705              1627.8731
 Red. masses --      5.7193                 2.4997                 8.7980
 Frc consts  --      8.3528                 3.7853                13.7365
 IR Inten    --     77.3683                67.6023               506.1730

                     94                     95                     96
                      A                      A                      A
 Frequencies --   1837.3440              3039.4316              3043.1432
 Red. masses --      9.0802                 1.0661                 1.0418
 Frc consts  --     18.0604                 5.8028                 5.6845
 IR Inten    --    204.6899                12.3313                16.0379

                     97                     98                     99
                      A                      A                      A
 Frequencies --   3047.7281              3057.4835              3058.6278
 Red. masses --      1.0605                 1.0359                 1.0393
 Frc consts  --      5.8040                 5.7053                 5.7284
 IR Inten    --     30.6945                38.6839                32.9768

                    100                    101                    102
                      A                      A                      A
 Frequencies --   3066.0271              3073.4435              3074.8656
 Red. masses --      1.0674                 1.0983                 1.0601
 Frc consts  --      5.9119                 6.1124                 5.9055
 IR Inten    --      4.6053                14.1209                16.7250

                    103                    104                    105
                      A                      A                      A
 Frequencies --   3099.5038              3107.4590              3116.3060
 Red. masses --      1.0917                 1.1019                 1.1033
 Frc consts  --      6.1794                 6.2691                 6.3127
 IR Inten    --      5.9179                56.4272                14.9549

                    106                    107                    108
                      A                      A                      A
 Frequencies --   3116.8811              3120.4059              3128.4034
 Red. masses --      1.0961                 1.0947                 1.1027
 Frc consts  --      6.2740                 6.2800                 6.3582
 IR Inten    --     32.4260                32.9908                27.2693

                    109                    110                    111
                      A                      A                      A
 Frequencies --   3130.7974              3131.6773              3148.9187
 Red. masses --      1.0950                 1.0980                 1.1028
 Frc consts  --      6.3236                 6.3448                 6.4427
 IR Inten    --     13.9689                 9.0834                23.1830

                    112                    113                    114
                      A                      A                      A
 Frequencies --   3178.7450              3474.2044              3676.4041
 Red. masses --      1.1036                 1.0741                 1.0639
 Frc consts  --      6.5699                 7.6386                 8.4722
 IR Inten    --      3.4950                74.6713                59.4667

 - Thermochemistry -
 -------------------
 Temperature   298.150 Kelvin.  Pressure   1.00000 Atm.
 Atom     1 has atomic number  6 and mass  12.00000

 Molecular mass:   284.14846 amu.
 Principal axes and moments of inertia in atomic units:
                           1         2         3
     Eigenvalues --  3514.777998720.543819842.25886
           X            0.99995   0.01032  -0.00164
           Y           -0.01036   0.99964  -0.02472
           Z            0.00138   0.02473   0.99969
 This molecule is an asymmetric top.
 Rotational symmetry number  1.
 Warning -- assumption of classical behavior for rotation
           may cause significant error
 Rotational temperatures (Kelvin)      0.02464     0.00993     0.00880
 Rotational constants (GHZ):           0.51347     0.20695     0.18337
 Zero-point vibrational energy     880603.1 (Joules/Mol)
                                  210.46920 (Kcal/Mol)
 Warning -- explicit consideration of  31 degrees of freedom as
           vibrations may cause significant error
 Vibrational temperatures:     21.76    30.97    47.99    73.72    79.12
          (Kelvin)            105.78   134.61   147.07   153.33   195.41
                              228.22   243.94   282.21   287.37   303.93
                              319.33   337.35   386.32   403.19   422.12
                              438.73   488.06   517.40   583.86   584.61
                              636.45   665.63   713.16   767.92   791.16
                              858.02   905.75   973.51   978.27  1017.64
                             1043.56  1077.52  1113.13  1132.52  1165.21
                             1189.02  1210.36  1267.05  1271.16  1299.70
                             1305.05  1349.07  1413.64  1450.57  1491.50
                             1512.73  1557.04  1569.70  1590.97  1610.68
                             1636.30  1669.54  1677.44  1685.95  1709.49
                             1795.42  1815.23  1845.95  1861.15  1881.38
                             1891.00  1914.17  1956.47  1973.20  1978.73
                             2016.06  2040.15  2048.38  2053.82  2071.20
                             2076.43  2082.29  2112.38  2128.77  2137.99
                             2158.55  2181.41  2187.43  2194.85  2195.44
                             2200.80  2208.53  2211.21  2215.98  2224.41
                             2265.23  2306.60  2342.15  2643.53  4373.06
                             4378.40  4385.00  4399.04  4400.68  4411.33
                             4422.00  4424.05  4459.49  4470.94  4483.67
                             4484.50  4489.57  4501.07  4504.52  4505.79
                             4530.59  4573.51  4998.61  5289.53

 Zero-point correction=                           0.335404 (Hartree/Particle)
 Thermal correction to Energy=                    0.356457
 Thermal correction to Enthalpy=                  0.357401
 Thermal correction to Gibbs Free Energy=         0.282816
 Sum of electronic and zero-point Energies=           -988.880646
 Sum of electronic and thermal Energies=              -988.859593
 Sum of electronic and thermal Enthalpies=            -988.858649
 Sum of electronic and thermal Free Energies=         -988.933234

                     E (Thermal)             CV                S
                      KCal/Mol        Cal/Mol-Kelvin    Cal/Mol-Kelvin
 Total                  223.680             76.288            156.977
 Electronic               0.000              0.000              0.000
 Translational            0.889              2.981             42.831
 Rotational               0.889              2.981             34.066
 Vibrational            221.903             70.326             80.080
 Vibration     1          0.593              1.986              7.189
 Vibration     2          0.593              1.985              6.488
 Vibration     3          0.594              1.983              5.619
 Vibration     4          0.596              1.977              4.769
 Vibration     5          0.596              1.976              4.629
 Vibration     6          0.599              1.966              4.057
 Vibration     7          0.603              1.954              3.584
 Vibration     8          0.604              1.947              3.412
 Vibration     9          0.605              1.944              3.330
 Vibration    10          0.614              1.918              2.862
 Vibration    11          0.621              1.893              2.566
 Vibration    12          0.625              1.880              2.441
 Vibration    13          0.636              1.845              2.169
 Vibration    14          0.638              1.840              2.136
 Vibration    15          0.643              1.824              2.033
 Vibration    16          0.648              1.808              1.943
 Vibration    17          0.654              1.788              1.844
 Vibration    18          0.673              1.731              1.606
 Vibration    19          0.680              1.710              1.532
 Vibration    20          0.688              1.686              1.454
 Vibration    21          0.696              1.664              1.390
 Vibration    22          0.719              1.597              1.216
 Vibration    23          0.734              1.555              1.124
 Vibration    24          0.771              1.458              0.942
 Vibration    25          0.771              1.456              0.940
 Vibration    26          0.802              1.378              0.819
 Vibration    27          0.820              1.333              0.758
 Vibration    28          0.851              1.260              0.669
 Vibration    29          0.889              1.175              0.579
 Vibration    30          0.905              1.140              0.544
 Vibration    31          0.954              1.040              0.456

                           ! Non-Optimized Parameters !
 Normal termination of Gaussian 16 at Sat Dec 12 15:37:33 2020.

 ----------------------------------------------------------------------
 # B3LYP/6-311++G(d,p) empiricaldispersion=gd3bj scf=xqc pop=npa geom=c
 heck
 ----------------------------------------------------------------------

 ---------------------------------------
 CID_81974287_JID_10319_Energie_neutraal
 ---------------------------------------
 Structure from the checkpoint file:  "JID_10319.chk"
 Charge =  0 Multiplicity = 1

 SCF Done:  E(RB3LYP) =  -989.506026769     A.U. after   15 cycles
 Normal termination of Gaussian 16 at Sat Dec 12 15:48:48 2020.

 ----------------------------------------------------------------------
 # B3LYP/6-311++G(d,p) empiricaldispersion=gd3bj scf=xqc pop=npa geom=c
 heck
 ----------------------------------------------------------------------

 -------------------------------------
 CID_81974287_JID_10319_Energie_kation
 -------------------------------------
 Structure from the checkpoint file:  "JID_10319.chk"
 Charge =  1 Multiplicity = 2

 SCF Done:  E(UB3LYP) =  -989.204833328     A.U. after   29 cycles
 Normal termination of Gaussian 16 at Sat Dec 12 16:18:59 2020.
 Gaussian 16:  ES64L-G16RevA.03 25-Dec-2016

 ----------------------------------------------------------------------
 # B3LYP/6-311++G(d,p) empiricaldispersion=gd3bj scf=xqc pop=npa geom=c
 heck
 ----------------------------------------------------------------------

 ------------------------------------
 CID_81974287_JID_10319_Energie_anion
 ------------------------------------
 Structure from the checkpoint file:  "JID_10319.chk"
 Charge = -1 Multiplicity = 2

                         Standard orientation:
 ---------------------------------------------------------------------
 Center     Atomic      Atomic             Coordinates (Angstroms)
 Number     Number       Type             X           Y           Z
 ---------------------------------------------------------------------
      1          6           0       -2.536039   -2.713396    1.873777
      2          6           0       -2.584602   -1.199610    2.106529
      3          6           0       -1.542265   -0.409539    1.303111
      4          6           0       -1.626019   -0.584486   -0.224789
      5          6           0       -3.000031   -0.248842   -0.817616
      6          6           0       -3.453828    1.166323   -0.539506
      7          8           0       -2.726881    2.115644   -0.334785
      8          8           0       -4.801211    1.275893   -0.566872
      9          7           0       -0.593050    0.222323   -0.911879
     10          6           0        0.723419   -0.149606   -0.781732
     11          6           0        1.836410    0.544528   -0.270928
     12          6           0        2.962125   -0.317658   -0.433707
     13          7           0        2.577981   -1.451664   -0.996111
     14          7           0        1.220541   -1.334501   -1.207387
     15          6           0        0.530287   -2.379135   -1.932657
     16          6           0        4.390278   -0.111603   -0.033624
     17          6           0        4.608666   -0.315449    1.474437
     18          7           0        1.789814    1.833281    0.299374
     19          8           0        2.820372    2.298047    0.802439
     20          8           0        0.704638    2.445715    0.270737
     21          1           0       -2.808904   -2.980823    0.845788
     22          1           0       -3.229445   -3.237690    2.539714
     23          1           0       -1.529593   -3.107015    2.062158
     24          1           0       -3.592683   -0.823734    1.885527
     25          1           0       -2.418400   -0.993858    3.171040
     26          1           0       -1.621156    0.657985    1.534143
     27          1           0       -0.535864   -0.720921    1.613125
     28          1           0       -1.437501   -1.632741   -0.467373
     29          1           0       -2.954719   -0.362671   -1.908123
     30          1           0       -3.761346   -0.944658   -0.455953
     31          1           0       -5.001498    2.219799   -0.416834
     32          1           0       -0.694135    1.208716   -0.666867
     33          1           0        1.260211   -2.864208   -2.581557
     34          1           0        0.099886   -3.127187   -1.257268
     35          1           0       -0.263258   -1.928925   -2.534680
     36          1           0        4.996402   -0.824845   -0.601684
     37          1           0        4.700179    0.900116   -0.310953
     38          1           0        4.310257   -1.325577    1.775154
     39          1           0        5.665272   -0.179218    1.728714
     40          1           0        4.023540    0.409824    2.046019
 ---------------------------------------------------------------------

 SCF Done:  E(UB3LYP) =  -989.521605741     A.U. after   33 cycles
 SCF Done:  E(UB3LYP) =  -989.521605740     a.u. after    1 cycles

 The electronic state is 2-A.
 Alpha  occ. eigenvalues --  -19.09310 -19.03142 -18.95199 -18.95175 -14.32889
 Alpha  occ. eigenvalues --  -14.26918 -14.20795 -14.20642 -10.22483 -10.12040
 Alpha  occ. eigenvalues --  -10.11916 -10.11560 -10.10135 -10.08259 -10.08026
 Alpha  occ. eigenvalues --  -10.07958 -10.07013 -10.06803 -10.05817 -10.04765
 Alpha  occ. eigenvalues --   -1.03166  -1.02960  -0.93979  -0.93337  -0.85651
 Alpha  occ. eigenvalues --   -0.82565  -0.74365  -0.72089  -0.68692  -0.66508
 Alpha  occ. eigenvalues --   -0.65727  -0.61841  -0.60725  -0.56496  -0.55103
 Alpha  occ. eigenvalues --   -0.51914  -0.51073  -0.48058  -0.46279  -0.44027
 Alpha  occ. eigenvalues --   -0.41841  -0.40962  -0.40630  -0.38968  -0.37861
 Alpha  occ. eigenvalues --   -0.37335  -0.36795  -0.36048  -0.35882  -0.35427
 Alpha  occ. eigenvalues --   -0.33355  -0.33159  -0.33039  -0.32760  -0.32304
 Alpha  occ. eigenvalues --   -0.31314  -0.30861  -0.29808  -0.29061  -0.28370
 Alpha  occ. eigenvalues --   -0.27734  -0.26436  -0.25742  -0.24818  -0.24413
 Alpha  occ. eigenvalues --   -0.24179  -0.23826  -0.23248  -0.19918  -0.19315
 Alpha  occ. eigenvalues --   -0.17628  -0.14105  -0.13378  -0.13122  -0.11154
 Alpha  occ. eigenvalues --   -0.10218   0.03449
 Alpha virt. eigenvalues --    0.05110   0.05860   0.06709   0.07855   0.08260
 Alpha virt. eigenvalues --    0.08743   0.09078   0.09552   0.10238   0.11047
 Alpha virt. eigenvalues --    0.11177   0.11790   0.12273   0.12746   0.12915

  Beta  occ. eigenvalues --  -19.09288 -19.03137 -18.94802 -18.94721 -14.32136
  Beta  occ. eigenvalues --  -14.26893 -14.20833 -14.20631 -10.22481 -10.11885
  Beta  occ. eigenvalues --  -10.11841 -10.11556 -10.10116 -10.08251 -10.07943
  Beta  occ. eigenvalues --  -10.07942 -10.07099 -10.06796 -10.05822 -10.04751
  Beta  occ. eigenvalues --   -1.03136  -1.01864  -0.93957  -0.93257  -0.84859
  Beta  occ. eigenvalues --   -0.82443  -0.74310  -0.72012  -0.68634  -0.66298
  Beta  occ. eigenvalues --   -0.65685  -0.61644  -0.60568  -0.56436  -0.54752
  Beta  occ. eigenvalues --   -0.51858  -0.50896  -0.47986  -0.46085  -0.43894
  Beta  occ. eigenvalues --   -0.41741  -0.40926  -0.40541  -0.38817  -0.37593
  Beta  occ. eigenvalues --   -0.37094  -0.36568  -0.35949  -0.35585  -0.33588
  Beta  occ. eigenvalues --   -0.33229  -0.33042  -0.32631  -0.32387  -0.32096
  Beta  occ. eigenvalues --   -0.31234  -0.30736  -0.29400  -0.28952  -0.28221
  Beta  occ. eigenvalues --   -0.27685  -0.26325  -0.25702  -0.24793  -0.24379
  Beta  occ. eigenvalues --   -0.24148  -0.23805  -0.23221  -0.19874  -0.19183
  Beta  occ. eigenvalues --   -0.17499  -0.13029  -0.12732  -0.11182  -0.10748
  Beta  occ. eigenvalues --   -0.09817
  Beta virt. eigenvalues --    0.05360   0.06185   0.06749   0.07880   0.08179
  Beta virt. eigenvalues --    0.08815   0.08982   0.09440   0.10242   0.10637
  Beta virt. eigenvalues --    0.11035   0.11153   0.11913   0.12232   0.12648

 Mulliken charges and spin densities:
               1          2
     1  C   -0.163992  -0.385592
     2  C   -0.472202   0.008317
     3  C   -0.347260   0.022706
     4  C   -0.740834   0.557914
     5  C    0.803048  -1.297087
     6  C   -0.498337   0.409600
     7  O   -0.227157  -0.006127
     8  O   -0.127584   0.020867
     9  N    0.156264   0.016868
    10  C   -0.304723   0.160991
    11  C   -0.694891  -0.042798
    12  C    0.951017   0.101910
    13  N   -0.153883  -0.028452
    14  N    0.181331   0.004954
    15  C   -0.229933  -0.099492
    16  C   -0.319984  -0.007005
    17  C   -0.565452  -0.043659
    18  N   -0.386957   0.230236
    19  O   -0.160963   0.176352
    20  O   -0.169738   0.159699
    21  H   -0.082935   0.221203
    22  H   -0.020163   0.162136
    23  H    0.110280   0.033337
    24  H    0.091425   0.052165
    25  H    0.072155   0.091557
    26  H    0.136079   0.068328
    27  H    0.217927  -0.032374
    28  H    0.438706  -0.302249
    29  H   -0.016843   0.225076
    30  H    0.180742   0.053912
    31  H   -0.022324   0.302750
    32  H    0.348810  -0.048044
    33  H    0.161530   0.020104
    34  H    0.055492   0.118612
    35  H    0.133041   0.014059
    36  H    0.130951   0.005488
    37  H    0.189741  -0.001845
    38  H    0.110055   0.006884
    39  H    0.103575   0.012050
    40  H    0.133986   0.036649
 Sum of Mulliken charges =  -1.00000   1.00000

 Dipole moment (field-independent basis, Debye):
    X=             -4.1705    Y=             -6.4291    Z=             -1.6247  Tot=              7.8336
 Quadrupole moment (field-independent basis, Debye-Ang):
   XX=           -174.3643   YY=           -163.4349   ZZ=           -135.7940
   XY=             -8.4205   XZ=             -2.9225   YZ=             -2.6476

 Summary of Natural Population Analysis:

                                       Natural Population
                Natural  -----------------------------------------------
    Atom  No    Charge         Core      Valence    Rydberg      Total
 -----------------------------------------------------------------------
      C    1   -0.28743      0.99967     2.28367    0.00409     3.28743
      C    2   -0.19198      0.99964     2.18551    0.00683     3.19198
      C    3   -0.20231      0.99961     2.19446    0.00825     3.20231
      C    4   -0.00411      0.99958     1.99190    0.01264     3.00411
      C    5   -0.24669      0.99955     2.23643    0.01071     3.24669
      C    6    0.40405      0.99972     1.56982    0.02641     2.59595
      O    7   -0.29676      0.99987     3.29062    0.00627     4.29676
      O    8   -0.34645      0.99988     3.34032    0.00626     4.34645
      N    9   -0.34194      0.99967     2.83063    0.01165     3.84194
      C   10    0.23054      0.99948     1.75507    0.01491     2.76946
      C   11   -0.03889      0.99933     2.02543    0.01413     3.03889
      C   12    0.10803      0.99956     1.87814    0.01426     2.89197
      N   13   -0.18642      0.99969     2.67448    0.01224     3.68642
      N   14   -0.12344      0.99961     2.61278    0.01105     3.62344
      C   15   -0.17588      0.99965     2.16976    0.00647     3.17588
      C   16   -0.20357      0.99960     2.19676    0.00721     3.20357
      C   17   -0.28084      0.99966     2.27735    0.00383     3.28084
      N   18    0.32142      0.99967     2.15490    0.02402     3.17858
      O   19   -0.19921      0.99990     3.19211    0.00720     4.19921
      O   20   -0.21956      0.99990     3.21157    0.00809     4.21956
      H   21    0.09386      0.00000     0.40502    0.00112     0.40614
      H   22    0.09727      0.00000     0.40183    0.00090     0.40273
      H   23    0.09741      0.00000     0.40149    0.00110     0.40259
      H   24    0.09182      0.00000     0.40686    0.00133     0.40818
      H   25    0.09724      0.00000     0.40165    0.00111     0.40276
      H   26    0.11277      0.00000     0.38589    0.00134     0.38723
      H   27    0.10380      0.00000     0.39499    0.00121     0.39620
      H   28    0.09471      0.00000     0.40259    0.00270     0.40529
      H   29    0.12077      0.00000     0.37786    0.00137     0.37923
      H   30    0.11230      0.00000     0.38673    0.00097     0.38770
      H   31    0.24048      0.00000     0.25538    0.00415     0.25952
      H   32    0.22155      0.00000     0.27610    0.00235     0.27845
      H   33    0.10528      0.00000     0.39364    0.00109     0.39472
      H   34    0.09209      0.00000     0.40645    0.00146     0.40791
      H   35    0.10065      0.00000     0.39812    0.00123     0.39935
      H   36    0.09619      0.00000     0.40257    0.00125     0.40381
      H   37    0.11179      0.00000     0.38694    0.00126     0.38821
      H   38    0.09127      0.00000     0.40729    0.00144     0.40873
      H   39    0.08925      0.00000     0.40992    0.00083     0.41075
      H   40    0.11096      0.00000     0.38727    0.00176     0.38904
 =======================================================================
   * Total *   -0.00000     19.99325    55.76029    0.24646    76.00000

 Normal termination of Gaussian 16 at Sat Dec 12 16:53:22 2020.
