 Gaussian 16, Revision A.03,

 -----------------------------------------------------------
 # opt freq B3LYP/6-31G(d) empiricaldispersion=gd3bj scf=xqc
 -----------------------------------------------------------

 -------------------------------
 CID_104101044_JID_2518_neutraal
 -------------------------------
 Symbolic Z-matrix:
 Charge =  0 Multiplicity = 1

 SCF Done:  E(RB3LYP) =  -534.869684970     A.U. after   14 cycles
 SCF Done:  E(RB3LYP) =  -534.876597791     A.U. after   12 cycles
 SCF Done:  E(RB3LYP) =  -534.878920303     A.U. after   12 cycles
 SCF Done:  E(RB3LYP) =  -534.880016451     A.U. after   12 cycles
 SCF Done:  E(RB3LYP) =  -534.880469740     A.U. after   11 cycles
 SCF Done:  E(RB3LYP) =  -534.880856893     A.U. after   12 cycles
 SCF Done:  E(RB3LYP) =  -534.880940357     A.U. after   11 cycles
 SCF Done:  E(RB3LYP) =  -534.881230775     A.U. after   11 cycles
 SCF Done:  E(RB3LYP) =  -534.881899801     A.U. after   12 cycles
 SCF Done:  E(RB3LYP) =  -534.881925627     A.U. after   12 cycles
 SCF Done:  E(RB3LYP) =  -534.883939016     A.U. after   11 cycles
 SCF Done:  E(RB3LYP) =  -534.883944024     A.U. after   10 cycles
 SCF Done:  E(RB3LYP) =  -534.883945248     A.U. after    8 cycles
 SCF Done:  E(RB3LYP) =  -534.883945357     A.U. after    7 cycles
 SCF Done:  E(RB3LYP) =  -534.883945403     A.U. after    7 cycles
 Optimization completed.
    -- Stationary point found.
 Normal termination of Gaussian 16 at Wed Dec  9 17:52:50 2020.

 --------------------------------------------------------------------
 #N Geom=AllCheck Guess=TCheck SCRF=Check GenChk RB3LYP/6-31G(d) Freq
 --------------------------------------------------------------------

 Structure from the checkpoint file:  "JID_2518.chk"
 -------------------------------
 CID_104101044_JID_2518_neutraal
 -------------------------------
 Charge =  0 Multiplicity = 1

 SCF Done:  E(RB3LYP) =  -534.883945403     A.U. after    1 cycles

  Exact polarizability: 154.923  -0.686 108.550   8.967  -1.413  60.702
 Approx polarizability: 218.590   0.415 184.357  23.947  -0.868  94.989

                      1                      2                      3
                      A                      A                      A
 Frequencies --     45.3869                75.3126               117.9644
 Red. masses --      3.0562                 3.5443                 2.0940
 Frc consts  --      0.0037                 0.0118                 0.0172
 IR Inten    --      0.2009                 1.3424                 0.4840

                      4                      5                      6
                      A                      A                      A
 Frequencies --    157.6887               223.3830               248.6706
 Red. masses --      3.8441                 4.0478                 1.0433
 Frc consts  --      0.0563                 0.1190                 0.0380
 IR Inten    --      4.8774                 7.0336                23.4130

                      7                      8                      9
                      A                      A                      A
 Frequencies --    316.4545               366.7094               383.2946
 Red. masses --      3.6393                 5.4427                 3.4805
 Frc consts  --      0.2147                 0.4312                 0.3013
 IR Inten    --      0.4947                 8.0828                 0.3343

                     10                     11                     12
                      A                      A                      A
 Frequencies --    419.4318               459.3908               522.1085
 Red. masses --      3.2525                 3.5272                 2.9919
 Frc consts  --      0.3371                 0.4386                 0.4805
 IR Inten    --      0.4713                 5.7642                45.5011

                     13                     14                     15
                      A                      A                      A
 Frequencies --    550.3839               646.4950               657.2931
 Red. masses --      3.4053                 2.3087                 6.0668
 Frc consts  --      0.6078                 0.5685                 1.5443
 IR Inten    --      2.5495               255.0039                 3.5032

                     16                     17                     18
                      A                      A                      A
 Frequencies --    667.0815               708.9928               722.8488
 Red. masses --      1.9227                 2.6390                 4.2854
 Frc consts  --      0.5041                 0.7816                 1.3193
 IR Inten    --    101.8401                28.7769                21.6696

                     19                     20                     21
                      A                      A                      A
 Frequencies --    744.6105               816.3185               837.5462
 Red. masses --      4.9231                 1.3060                 1.6258
 Frc consts  --      1.6082                 0.5128                 0.6719
 IR Inten    --     24.9490                 9.0015                42.7469

                     22                     23                     24
                      A                      A                      A
 Frequencies --    842.0215               859.6055               899.1944
 Red. masses --      2.6728                 2.2026                 2.3710
 Frc consts  --      1.1165                 0.9589                 1.1295
 IR Inten    --     15.7787                12.4529                 3.7019

                     25                     26                     27
                      A                      A                      A
 Frequencies --    917.7583               924.5972               939.8591
 Red. masses --      4.7204                 1.3518                 2.1738
 Frc consts  --      2.3426                 0.6809                 1.1313
 IR Inten    --      9.8330                 0.8162                13.0711

                     28                     29                     30
                      A                      A                      A
 Frequencies --    950.3437               964.7102              1028.1767
 Red. masses --      1.2894                 2.9395                 2.5101
 Frc consts  --      0.6861                 1.6118                 1.5634
 IR Inten    --      1.0429                 4.3296                 7.4642

                     31                     32                     33
                      A                      A                      A
 Frequencies --   1032.0670              1060.7327              1109.6790
 Red. masses --      2.5632                 4.5417                 1.5030
 Frc consts  --      1.6086                 3.0108                 1.0905
 IR Inten    --      0.5193                24.0964                 2.0854

                     34                     35                     36
                      A                      A                      A
 Frequencies --   1155.1581              1167.3140              1211.6626
 Red. masses --      1.8984                 1.1937                 1.2725
 Frc consts  --      1.4925                 0.9583                 1.1007
 IR Inten    --      1.1110                 6.3960                 7.3355

                     37                     38                     39
                      A                      A                      A
 Frequencies --   1218.4385              1232.1460              1250.8866
 Red. masses --      1.3458                 1.3052                 1.2417
 Frc consts  --      1.1772                 1.1675                 1.1447
 IR Inten    --     37.7705                 7.9647                 6.2614

                     40                     41                     42
                      A                      A                      A
 Frequencies --   1309.5998              1322.0570              1333.5602
 Red. masses --      2.1813                 2.3753                 1.5057
 Frc consts  --      2.2041                 2.4461                 1.5777
 IR Inten    --     77.6236                 5.6729                 4.7314

                     43                     44                     45
                      A                      A                      A
 Frequencies --   1349.0305              1358.6890              1374.2486
 Red. masses --      1.7656                 1.2616                 2.9266
 Frc consts  --      1.8932                 1.3722                 3.2565
 IR Inten    --      3.3209                 2.1483                13.2088

                     46                     47                     48
                      A                      A                      A
 Frequencies --   1388.1299              1487.6246              1518.1001
 Red. masses --      1.3165                 3.0144                 1.0882
 Frc consts  --      1.4946                 3.9305                 1.4777
 IR Inten    --      6.9890                 0.4858                 2.2454

                     49                     50                     51
                      A                      A                      A
 Frequencies --   1527.0413              1547.7543              1562.4775
 Red. masses --      1.0927                 1.1317                 2.4379
 Frc consts  --      1.5013                 1.5973                 3.5066
 IR Inten    --      3.6295                10.3461               175.8955

                     52                     53                     54
                      A                      A                      A
 Frequencies --   1640.9379              1680.7181              1697.3913
 Red. masses --      6.3921                 2.3673                 1.5857
 Frc consts  --     10.1410                 3.9399                 2.6917
 IR Inten    --      0.3949                 3.4025                68.4433

                     55                     56                     57
                      A                      A                      A
 Frequencies --   3058.7604              3088.5223              3094.8658
 Red. masses --      1.0636                 1.0598                 1.0679
 Frc consts  --      5.8629                 5.9562                 6.0266
 IR Inten    --     38.6085                23.6195                30.8118

                     58                     59                     60
                      A                      A                      A
 Frequencies --   3116.7092              3138.7554              3165.7601
 Red. masses --      1.1037                 1.1055                 1.1017
 Frc consts  --      6.3165                 6.4168                 6.5052
 IR Inten    --     12.5009                49.2300                26.0102

                     61                     62                     63
                      A                      A                      A
 Frequencies --   3175.1185              3175.5783              3204.1107
 Red. masses --      1.0894                 1.0888                 1.0919
 Frc consts  --      6.4707                 6.4690                 6.6047
 IR Inten    --     14.8248                25.2582                15.4912

                     64                     65                     66
                      A                      A                      A
 Frequencies --   3241.8223              3537.7303              3634.8581
 Red. masses --      1.0907                 1.0482                 1.0971
 Frc consts  --      6.7539                 7.7292                 8.5405
 IR Inten    --      2.3407                 6.2661                 5.5478

 - Thermochemistry -
 -------------------
 Temperature   298.150 Kelvin.  Pressure   1.00000 Atm.
 Atom     1 has atomic number  6 and mass  12.00000

 Molecular mass:   164.09496 amu.
 Principal axes and moments of inertia in atomic units:
                           1         2         3
     Eigenvalues --   752.653993234.727063556.49457
           X            0.99997  -0.00480  -0.00565
           Y            0.00471   0.99988  -0.01445
           Z            0.00571   0.01442   0.99988
 This molecule is an asymmetric top.
 Rotational symmetry number  1.
 Warning -- assumption of classical behavior for rotation
           may cause significant error
 Rotational temperatures (Kelvin)      0.11508     0.02678     0.02435
 Rotational constants (GHZ):           2.39784     0.55793     0.50745
 Zero-point vibrational energy     533424.8 (Joules/Mol)
                                  127.49160 (Kcal/Mol)
 Warning -- explicit consideration of  13 degrees of freedom as
           vibrations may cause significant error
 Vibrational temperatures:     65.30   108.36   169.72   226.88   321.40
          (Kelvin)            357.78   455.31   527.61   551.48   603.47
                              660.96   751.20   791.88   930.16   945.70
                              959.78  1020.08  1040.02  1071.33  1174.50
                             1205.04  1211.48  1236.78  1293.74  1320.45
                             1330.29  1352.25  1367.33  1388.00  1479.32
                             1484.91  1526.16  1596.58  1662.01  1679.50
                             1743.31  1753.06  1772.78  1799.75  1884.22
                             1902.15  1918.70  1940.95  1954.85  1977.24
                             1997.21  2140.36  2184.21  2197.07  2226.87
                             2248.06  2360.94  2418.18  2442.17  4400.87
                             4443.69  4452.82  4484.25  4515.97  4554.82
                             4568.29  4568.95  4610.00  4664.26  5090.00
                             5229.75

 Zero-point correction=                           0.203171 (Hartree/Particle)
 Thermal correction to Energy=                    0.213562
 Thermal correction to Enthalpy=                  0.214506
 Thermal correction to Gibbs Free Energy=         0.166741
 Sum of electronic and zero-point Energies=           -534.680775
 Sum of electronic and thermal Energies=              -534.670383
 Sum of electronic and thermal Enthalpies=            -534.669439
 Sum of electronic and thermal Free Energies=         -534.717204

                     E (Thermal)             CV                S
                      KCal/Mol        Cal/Mol-Kelvin    Cal/Mol-Kelvin
 Total                  134.012             41.129            100.530
 Electronic               0.000              0.000              0.000
 Translational            0.889              2.981             41.194
 Rotational               0.889              2.981             30.538
 Vibrational            132.235             35.168             28.798
 Vibration     1          0.595              1.979              5.009
 Vibration     2          0.599              1.965              4.009
 Vibration     3          0.608              1.934              3.133
 Vibration     4          0.621              1.894              2.577
 Vibration     5          0.649              1.805              1.932
 Vibration     6          0.662              1.765              1.740
 Vibration     7          0.703              1.642              1.328
 Vibration     8          0.740              1.541              1.094
 Vibration     9          0.752              1.506              1.026
 Vibration    10          0.782              1.428              0.894
 Vibration    11          0.817              1.340              0.768
 Vibration    12          0.877              1.201              0.605
 Vibration    13          0.906              1.139              0.543

                           ! Non-Optimized Parameters !
 Normal termination of Gaussian 16 at Wed Dec  9 17:58:23 2020.

 ----------------------------------------------------------------------
 # B3LYP/6-311++G(d,p) empiricaldispersion=gd3bj scf=xqc pop=npa geom=c
 heck
 ----------------------------------------------------------------------

 ---------------------------------------
 CID_104101044_JID_2518_Energie_neutraal
 ---------------------------------------
 Structure from the checkpoint file:  "JID_2518.chk"
 Charge =  0 Multiplicity = 1

 SCF Done:  E(RB3LYP) =  -535.035175612     A.U. after   14 cycles
 Normal termination of Gaussian 16 at Wed Dec  9 18:00:54 2020.

 ----------------------------------------------------------------------
 # B3LYP/6-311++G(d,p) empiricaldispersion=gd3bj scf=xqc pop=npa geom=c
 heck
 ----------------------------------------------------------------------

 -------------------------------------
 CID_104101044_JID_2518_Energie_kation
 -------------------------------------
 Structure from the checkpoint file:  "JID_2518.chk"
 Charge =  1 Multiplicity = 2

 SCF Done:  E(UB3LYP) =  -534.777504978     A.U. after   20 cycles
 Normal termination of Gaussian 16 at Wed Dec  9 18:07:19 2020.
 Gaussian 16:  ES64L-G16RevA.03 25-Dec-2016

 ----------------------------------------------------------------------
 # B3LYP/6-311++G(d,p) empiricaldispersion=gd3bj scf=xqc pop=npa geom=c
 heck
 ----------------------------------------------------------------------

 ------------------------------------
 CID_104101044_JID_2518_Energie_anion
 ------------------------------------
 Structure from the checkpoint file:  "JID_2518.chk"
 Charge = -1 Multiplicity = 2

                         Standard orientation:
 ---------------------------------------------------------------------
 Center     Atomic      Atomic             Coordinates (Angstroms)
 Number     Number       Type             X           Y           Z
 ---------------------------------------------------------------------
      1          6           0       -2.640481    0.353176    1.196699
      2          6           0       -2.269847    1.222011   -0.022472
      3          7           0       -1.461470    0.338019   -0.870572
      4          8           0       -2.169932   -0.900961   -0.780988
      5          6           0       -2.604847   -1.063239    0.595032
      6          6           0       -0.087976    0.185168   -0.490434
      7          6           0        0.721022    1.316819   -0.317760
      8          6           0        2.070283    1.187970   -0.004936
      9          6           0        2.663867   -0.075351    0.131711
     10          6           0        1.856424   -1.203048   -0.068206
     11          6           0        0.505002   -1.076969   -0.377648
     12          7           0        4.039597   -0.203491    0.385851
     13          1           0       -3.617472    0.614692    1.611867
     14          1           0       -1.890279    0.462340    1.984760
     15          1           0       -3.158691    1.508836   -0.591184
     16          1           0       -1.712687    2.121027    0.241502
     17          1           0       -1.910633   -1.717604    1.134653
     18          1           0       -3.585346   -1.543453    0.542968
     19          1           0        0.304824    2.311025   -0.446587
     20          1           0        2.676721    2.081985    0.120980
     21          1           0        2.293899   -2.195705    0.012284
     22          1           0       -0.099648   -1.959218   -0.545554
     23          1           0        4.293183   -1.076794    0.832819
     24          1           0        4.438019    0.579632    0.890521
 ---------------------------------------------------------------------

 SCF Done:  E(UB3LYP) =  -535.021428553     A.U. after   33 cycles
 SCF Done:  E(UB3LYP) =  -535.021428554     a.u. after    1 cycles

 The electronic state is 2-A.
 Alpha  occ. eigenvalues --  -19.05523 -14.26901 -14.20670 -10.12204 -10.10738
 Alpha  occ. eigenvalues --  -10.10454 -10.10026 -10.07920 -10.07204 -10.06773
 Alpha  occ. eigenvalues --  -10.06662 -10.06579  -0.98706  -0.81086  -0.77887
 Alpha  occ. eigenvalues --   -0.72408  -0.68756  -0.64504  -0.62352  -0.54670
 Alpha  occ. eigenvalues --   -0.52621  -0.50387  -0.47989  -0.43597  -0.40704
 Alpha  occ. eigenvalues --   -0.40368  -0.39938  -0.38103  -0.35277  -0.33725
 Alpha  occ. eigenvalues --   -0.32631  -0.31491  -0.30933  -0.29398  -0.28666
 Alpha  occ. eigenvalues --   -0.27053  -0.26432  -0.25168  -0.23570  -0.22516
 Alpha  occ. eigenvalues --   -0.18915  -0.15547  -0.15294  -0.08850   0.04382
 Alpha virt. eigenvalues --    0.05942   0.07293   0.08275   0.08470   0.08576
 Alpha virt. eigenvalues --    0.09000   0.10176   0.10838   0.11246   0.11613
 Alpha virt. eigenvalues --    0.12220   0.13208   0.13941   0.15237   0.15384

  Beta  occ. eigenvalues --  -19.05521 -14.26901 -14.20606 -10.12188 -10.10722
  Beta  occ. eigenvalues --  -10.10449 -10.10022 -10.07892 -10.07197 -10.06770
  Beta  occ. eigenvalues --  -10.06643 -10.06563  -0.98699  -0.81015  -0.77869
  Beta  occ. eigenvalues --   -0.72376  -0.68719  -0.64481  -0.62304  -0.54625
  Beta  occ. eigenvalues --   -0.52576  -0.50337  -0.47945  -0.43563  -0.40656
  Beta  occ. eigenvalues --   -0.40325  -0.39860  -0.38071  -0.35235  -0.33690
  Beta  occ. eigenvalues --   -0.32606  -0.31449  -0.30902  -0.29358  -0.28634
  Beta  occ. eigenvalues --   -0.27018  -0.26397  -0.25141  -0.23548  -0.22484
  Beta  occ. eigenvalues --   -0.18896  -0.15524  -0.15284  -0.08818
  Beta virt. eigenvalues --    0.06778   0.07567   0.07946   0.08592   0.08898
  Beta virt. eigenvalues --    0.09148   0.09483   0.10556   0.11428   0.11554
  Beta virt. eigenvalues --    0.11941   0.12485   0.13453   0.14550   0.15317

 Mulliken charges and spin densities:
               1          2
     1  C    0.274246  -0.715874
     2  C   -0.005070  -0.228867
     3  N   -0.089927   0.106252
     4  O   -0.013897  -0.010630
     5  C    0.270051  -0.454472
     6  C    0.983989  -1.240758
     7  C    0.608219  -0.526681
     8  C   -0.256936   0.215172
     9  C    0.775561  -1.243855
    10  C   -0.496907   0.384338
    11  C   -0.528872   0.388801
    12  N   -0.251469  -0.055464
    13  H   -0.519605   0.685088
    14  H    0.039154   0.125592
    15  H   -0.012853   0.216817
    16  H   -0.285407   0.394399
    17  H    0.066248   0.069711
    18  H   -0.206912   0.361509
    19  H    0.004144   0.147451
    20  H   -0.581810   0.750549
    21  H   -0.337625   0.497549
    22  H    0.153624   0.054579
    23  H   -0.289081   0.532365
    24  H   -0.298863   0.546429
 Sum of Mulliken charges =  -1.00000   1.00000

 Dipole moment (field-independent basis, Debye):
    X=             -3.7892    Y=             -0.9437    Z=             -2.1354  Tot=              4.4507
 Quadrupole moment (field-independent basis, Debye-Ang):
   XX=           -163.9682   YY=           -102.2488   ZZ=           -103.4033
   XY=              1.5504   XZ=             -3.7212   YZ=             -2.6587

 Summary of Natural Population Analysis:

                                       Natural Population
                Natural  -----------------------------------------------
    Atom  No    Charge         Core      Valence    Rydberg      Total
 -----------------------------------------------------------------------
      C    1   -0.21700      0.99964     2.20988    0.00749     3.21700
      C    2   -0.09234      0.99962     2.08090    0.01181     3.09234
      N    3   -0.09395      0.99967     2.58051    0.01377     3.59395
      O    4   -0.22360      0.99991     3.21576    0.00794     4.22360
      C    5   -0.02415      0.99962     2.01250    0.01203     3.02415
      C    6    0.05234      0.99945     1.93567    0.01254     2.94766
      C    7   -0.10965      0.99952     2.10087    0.00926     3.10965
      C    8   -0.11444      0.99952     2.10453    0.01039     3.11444
      C    9    0.07495      0.99948     1.91383    0.01174     2.92505
      C   10   -0.11617      0.99952     2.10655    0.01010     3.11617
      C   11   -0.11184      0.99951     2.10304    0.00928     3.11184
      N   12   -0.39821      0.99972     2.88763    0.01087     3.89821
      H   13    0.10705      0.00000     0.39026    0.00269     0.39295
      H   14    0.10336      0.00000     0.39527    0.00137     0.39664
      H   15    0.09745      0.00000     0.40110    0.00145     0.40255
      H   16    0.10425      0.00000     0.39434    0.00141     0.39575
      H   17    0.08602      0.00000     0.41266    0.00132     0.41398
      H   18    0.09144      0.00000     0.40721    0.00135     0.40856
      H   19    0.10092      0.00000     0.39785    0.00123     0.39908
      H   20    0.10144      0.00000     0.39728    0.00129     0.39856
      H   21    0.09956      0.00000     0.39948    0.00096     0.40044
      H   22    0.10939      0.00000     0.38940    0.00121     0.39061
      H   23    0.18599      0.00000     0.30877    0.00524     0.31401
      H   24    0.18718      0.00000     0.30636    0.00646     0.31282
 =======================================================================
   * Total *   -0.00000     11.99517    31.85163    0.15319    44.00000

 Normal termination of Gaussian 16 at Wed Dec  9 18:17:40 2020.
