 Gaussian 16, Revision A.03,

 -----------------------------------------------------------
 # opt freq B3LYP/6-31G(d) empiricaldispersion=gd3bj scf=xqc
 -----------------------------------------------------------

 -------------------------------
 CID_43662976_JID_10050_neutraal
 -------------------------------
 Symbolic Z-matrix:
 Charge =  0 Multiplicity = 1

 SCF Done:  E(RB3LYP) =  -1280.05960006     A.U. after   15 cycles
 SCF Done:  E(RB3LYP) =  -1280.06761559     A.U. after   12 cycles
 SCF Done:  E(RB3LYP) =  -1280.06852145     A.U. after   12 cycles
 SCF Done:  E(RB3LYP) =  -1280.06926609     A.U. after   12 cycles
 SCF Done:  E(RB3LYP) =  -1280.06978428     A.U. after   12 cycles
 SCF Done:  E(RB3LYP) =  -1280.07049568     A.U. after   12 cycles
 SCF Done:  E(RB3LYP) =  -1280.07157286     A.U. after   12 cycles
 SCF Done:  E(RB3LYP) =  -1280.07425833     A.U. after   13 cycles
 SCF Done:  E(RB3LYP) =  -1280.07571996     A.U. after   12 cycles
 SCF Done:  E(RB3LYP) =  -1280.07702187     A.U. after   12 cycles
 SCF Done:  E(RB3LYP) =  -1280.07808440     A.U. after    9 cycles
 SCF Done:  E(RB3LYP) =  -1280.07808590     A.U. after    9 cycles
 SCF Done:  E(RB3LYP) =  -1280.07808624     A.U. after    7 cycles
 SCF Done:  E(RB3LYP) =  -1280.07808639     A.U. after    7 cycles
 SCF Done:  E(RB3LYP) =  -1280.07808644     A.U. after    7 cycles
 Optimization completed.
    -- Stationary point found.
 Normal termination of Gaussian 16 at Sun Dec 13 16:44:18 2020.

 --------------------------------------------------------------------
 #N Geom=AllCheck Guess=TCheck SCRF=Check GenChk RB3LYP/6-31G(d) Freq
 --------------------------------------------------------------------

 Structure from the checkpoint file:  "JID_10050.chk"
 -------------------------------
 CID_43662976_JID_10050_neutraal
 -------------------------------
 Charge =  0 Multiplicity = 1

 SCF Done:  E(RB3LYP) =  -1280.07808644     A.U. after    1 cycles

  Exact polarizability: 219.951 -19.956 178.475  -1.358 -18.485 152.782
 Approx polarizability: 312.322 -36.294 259.757  -2.225 -46.891 256.032

                      1                      2                      3
                      A                      A                      A
 Frequencies --     15.0192                27.8638                55.4609
 Red. masses --      4.0588                 3.9471                 2.9977
 Frc consts  --      0.0005                 0.0018                 0.0054
 IR Inten    --      0.0271                 0.6403                 0.1757

                      4                      5                      6
                      A                      A                      A
 Frequencies --     65.4557                67.5261                74.6380
 Red. masses --      2.9884                 1.9907                 3.0856
 Frc consts  --      0.0075                 0.0053                 0.0101
 IR Inten    --      0.6859                 0.5222                 3.0532

                      7                      8                      9
                      A                      A                      A
 Frequencies --     88.5871               111.0198               119.5967
 Red. masses --      3.4548                 2.8698                 3.2973
 Frc consts  --      0.0160                 0.0208                 0.0278
 IR Inten    --      1.4540                 0.9325                 0.6959

                     10                     11                     12
                      A                      A                      A
 Frequencies --    134.2465               162.3187               176.6323
 Red. masses --      4.0352                 4.9129                 3.4815
 Frc consts  --      0.0428                 0.0763                 0.0640
 IR Inten    --      0.2828                 1.1881                 1.8092

                     13                     14                     15
                      A                      A                      A
 Frequencies --    194.8960               213.7711               237.6204
 Red. masses --      2.3724                 4.2928                 1.1614
 Frc consts  --      0.0531                 0.1156                 0.0386
 IR Inten    --      1.3282                 1.2890                 0.0595

                     16                     17                     18
                      A                      A                      A
 Frequencies --    249.6405               270.8222               279.8960
 Red. masses --      1.7080                 3.5805                 1.0655
 Frc consts  --      0.0627                 0.1547                 0.0492
 IR Inten    --      1.5277                 0.4517                22.2842

                     19                     20                     21
                      A                      A                      A
 Frequencies --    297.6014               303.9796               308.6221
 Red. masses --      4.2854                 2.9669                 3.9365
 Frc consts  --      0.2236                 0.1615                 0.2209
 IR Inten    --      3.8071                 0.4868                 1.9588

                     22                     23                     24
                      A                      A                      A
 Frequencies --    314.4537               362.2677               369.7359
 Red. masses --      3.9588                 4.1657                 4.2049
 Frc consts  --      0.2306                 0.3221                 0.3387
 IR Inten    --      0.7171                 1.5661                 1.5266

                     25                     26                     27
                      A                      A                      A
 Frequencies --    379.2419               425.7014               441.9938
 Red. masses --      3.6767                 5.5805                 3.4734
 Frc consts  --      0.3116                 0.5958                 0.3998
 IR Inten    --      2.6762                 2.0699                 1.9994

                     28                     29                     30
                      A                      A                      A
 Frequencies --    454.1085               485.5013               506.2668
 Red. masses --      4.5698                 4.7807                 3.7182
 Frc consts  --      0.5552                 0.6639                 0.5615
 IR Inten    --     10.4546                33.7943                19.0873

                     31                     32                     33
                      A                      A                      A
 Frequencies --    548.5932               570.2134               589.3589
 Red. masses --      5.7028                 3.4261                 2.2970
 Frc consts  --      1.0112                 0.6563                 0.4701
 IR Inten    --     36.0240                75.2176               173.7504

                     34                     35                     36
                      A                      A                      A
 Frequencies --    603.7954               636.3822               686.5279
 Red. masses --      6.2890                 1.9847                 4.1300
 Frc consts  --      1.3509                 0.4736                 1.1469
 IR Inten    --    110.1389               211.2029                45.8201

                     37                     38                     39
                      A                      A                      A
 Frequencies --    715.9419               725.9701               751.0055
 Red. masses --      5.6471                 4.6477                 1.1117
 Frc consts  --      1.7054                 1.4432                 0.3694
 IR Inten    --     32.0982                17.7609                12.5668

                     40                     41                     42
                      A                      A                      A
 Frequencies --    762.7367               784.1542               823.2239
 Red. masses --      3.0973                 1.1277                 1.2244
 Frc consts  --      1.0617                 0.4085                 0.4889
 IR Inten    --      2.4804                11.3199                 5.0145

                     43                     44                     45
                      A                      A                      A
 Frequencies --    835.3282               850.2796               860.7199
 Red. masses --      1.5966                 1.3162                 1.7482
 Frc consts  --      0.6564                 0.5607                 0.7631
 IR Inten    --     25.2189                25.9429                37.4811

                     46                     47                     48
                      A                      A                      A
 Frequencies --    894.9921               903.2676               904.5598
 Red. masses --      1.3964                 1.8910                 2.4538
 Frc consts  --      0.6590                 0.9090                 1.1830
 IR Inten    --      9.0740                 6.9226                24.0736

                     49                     50                     51
                      A                      A                      A
 Frequencies --    911.4116               929.5185               936.2800
 Red. masses --      1.7866                 4.2506                 1.3333
 Frc consts  --      0.8744                 2.1638                 0.6886
 IR Inten    --     11.0299                15.9331                 1.8096

                     52                     53                     54
                      A                      A                      A
 Frequencies --    967.9782               996.6696              1050.1742
 Red. masses --      3.7533                 2.2206                 2.8739
 Frc consts  --      2.0720                 1.2997                 1.8674
 IR Inten    --     12.4476                21.7672                 1.1099

                     55                     56                     57
                      A                      A                      A
 Frequencies --   1054.6967              1067.6593              1073.0193
 Red. masses --      3.7541                 1.3924                 2.9267
 Frc consts  --      2.4604                 0.9351                 1.9854
 IR Inten    --     54.5657                14.3207                39.9735

                     58                     59                     60
                      A                      A                      A
 Frequencies --   1084.0131              1120.2339              1124.4816
 Red. masses --      1.3809                 1.4642                 2.6221
 Frc consts  --      0.9561                 1.0826                 1.9534
 IR Inten    --      9.5662                 2.9729                39.5992

                     61                     62                     63
                      A                      A                      A
 Frequencies --   1129.3871              1133.1674              1137.5552
 Red. masses --      2.7438                 2.1182                 2.7465
 Frc consts  --      2.0620                 1.6025                 2.0940
 IR Inten    --     93.8763                33.7233                73.0208

                     64                     65                     66
                      A                      A                      A
 Frequencies --   1144.2390              1178.5173              1195.4173
 Red. masses --      1.1654                 1.2335                 2.2763
 Frc consts  --      0.8990                 1.0094                 1.9166
 IR Inten    --     11.2697                29.6912                18.9349

                     67                     68                     69
                      A                      A                      A
 Frequencies --   1203.9266              1207.0709              1230.0589
 Red. masses --      1.6452                 1.4021                 2.2247
 Frc consts  --      1.4050                 1.2036                 1.9832
 IR Inten    --      2.3014                 3.4138                 2.3345

                     70                     71                     72
                      A                      A                      A
 Frequencies --   1261.8205              1275.0843              1290.7390
 Red. masses --      2.0295                 2.1287                 1.8766
 Frc consts  --      1.9038                 2.0392                 1.8420
 IR Inten    --     79.3415                 2.3474                39.8896

                     73                     74                     75
                      A                      A                      A
 Frequencies --   1319.2440              1328.7445              1331.6525
 Red. masses --      1.9550                 2.4012                 2.0537
 Frc consts  --      2.0047                 2.4978                 2.1457
 IR Inten    --     68.4066                92.8792               103.3560

                     76                     77                     78
                      A                      A                      A
 Frequencies --   1340.7468              1349.6687              1364.5303
 Red. masses --      1.7535                 1.3021                 4.8402
 Frc consts  --      1.8571                 1.3975                 5.3098
 IR Inten    --     21.2535                 7.1632                11.9182

                     79                     80                     81
                      A                      A                      A
 Frequencies --   1371.1220              1415.0100              1419.2816
 Red. masses --      1.1839                 1.3623                 1.2780
 Frc consts  --      1.3113                 1.6071                 1.5167
 IR Inten    --      1.9202                34.3330                 0.4023

                     82                     83                     84
                      A                      A                      A
 Frequencies --   1430.3848              1441.2171              1447.2205
 Red. masses --      1.4169                 1.2322                 1.2916
 Frc consts  --      1.7080                 1.5079                 1.5938
 IR Inten    --      7.9844                 1.4322                29.0317

                     85                     86                     87
                      A                      A                      A
 Frequencies --   1477.7108              1488.4751              1513.4791
 Red. masses --      2.9748                 1.0931                 1.0420
 Frc consts  --      3.8272                 1.4269                 1.4063
 IR Inten    --     12.2586                 1.1217                 5.4009

                     88                     89                     90
                      A                      A                      A
 Frequencies --   1514.7585              1524.1412              1527.9399
 Red. masses --      1.0815                 1.0592                 1.0710
 Frc consts  --      1.4620                 1.4496                 1.4732
 IR Inten    --      6.7981                 1.0824                 2.4933

                     91                     92                     93
                      A                      A                      A
 Frequencies --   1530.2310              1530.7019              1537.5925
 Red. masses --      1.2456                 1.1059                 1.6205
 Frc consts  --      1.7185                 1.5267                 2.2573
 IR Inten    --      8.4024                 3.0394               102.5558

                     94                     95                     96
                      A                      A                      A
 Frequencies --   1540.3037              1550.7107              1630.3558
 Red. masses --      1.0855                 1.5838                 6.5432
 Frc consts  --      1.5174                 2.2440                10.2471
 IR Inten    --      4.2366               136.8730                 4.6249

                     97                     98                     99
                      A                      A                      A
 Frequencies --   1669.9320              1696.0040              3036.4001
 Red. masses --      3.5861                 1.3139                 1.0690
 Frc consts  --      5.8920                 2.2267                 5.8067
 IR Inten    --      9.3199                92.4234                54.2824

                    100                    101                    102
                      A                      A                      A
 Frequencies --   3043.0091              3057.6197              3062.3029
 Red. masses --      1.0365                 1.0634                 1.0577
 Frc consts  --      5.6549                 5.8577                 5.8439
 IR Inten    --     26.7914                 8.3686                61.7119

                    103                    104                    105
                      A                      A                      A
 Frequencies --   3062.4755              3093.3830              3113.6751
 Red. masses --      1.0508                 1.0977                 1.1004
 Frc consts  --      5.8065                 6.1889                 6.2856
 IR Inten    --      1.7018                 3.3728                29.3783

                    106                    107                    108
                      A                      A                      A
 Frequencies --   3114.0309              3118.4470              3130.7522
 Red. masses --      1.0980                 1.1003                 1.0988
 Frc consts  --      6.2733                 6.3044                 6.3454
 IR Inten    --     11.8017                34.1672                51.2207

                    109                    110                    111
                      A                      A                      A
 Frequencies --   3138.1701              3153.3729              3168.5596
 Red. masses --      1.0984                 1.0535                 1.0599
 Frc consts  --      6.3734                 6.1722                 6.2698
 IR Inten    --     18.8595                14.4255                 9.1314

                    112                    113                    114
                      A                      A                      A
 Frequencies --   3170.9353              3183.3267              3185.3879
 Red. masses --      1.1011                 1.0887                 1.0885
 Frc consts  --      6.5229                 6.4999                 6.5072
 IR Inten    --      5.6815                17.3907                12.4886

                    115                    116                    117
                      A                      A                      A
 Frequencies --   3212.3282              3221.1042              3235.7972
 Red. masses --      1.0926                 1.0900                 1.1183
 Frc consts  --      6.6425                 6.6631                 6.8988
 IR Inten    --     10.3521                 6.5649                 7.8667

                    118                    119                    120
                      A                      A                      A
 Frequencies --   3265.4451              3552.9846              3652.1026
 Red. masses --      1.1139                 1.0479                 1.0983
 Frc consts  --      6.9984                 7.7940                 8.6308
 IR Inten    --      6.4389                16.9053                 9.8223

 - Thermochemistry -
 -------------------
 Temperature   298.150 Kelvin.  Pressure   1.00000 Atm.
 Atom     1 has atomic number  6 and mass  12.00000

 Molecular mass:   298.13511 amu.
 Principal axes and moments of inertia in atomic units:
                           1         2         3
     Eigenvalues --  4612.004956364.793928039.16608
           X            0.99995   0.00414   0.00893
           Y           -0.00429   0.99985   0.01670
           Z           -0.00886  -0.01674   0.99982
 This molecule is an asymmetric top.
 Rotational symmetry number  1.
 Warning -- assumption of classical behavior for rotation
           may cause significant error
 Rotational temperatures (Kelvin)      0.01878     0.01361     0.01077
 Rotational constants (GHZ):           0.39131     0.28355     0.22449
 Zero-point vibrational energy     930739.1 (Joules/Mol)
                                  222.45198 (Kcal/Mol)
 Warning -- explicit consideration of  34 degrees of freedom as
           vibrations may cause significant error
 Vibrational temperatures:     21.61    40.09    79.80    94.18    97.15
          (Kelvin)            107.39   127.46   159.73   172.07   193.15
                              233.54   254.13   280.41   307.57   341.88
                              359.18   389.65   402.71   428.18   437.36
                              444.04   452.43   521.22   531.97   545.64
                              612.49   635.93   653.36   698.53   728.41
                              789.30   820.41   847.96   868.73   915.61
                              987.76  1030.08  1044.51  1080.53  1097.41
                             1128.22  1184.44  1201.85  1223.36  1238.38
                             1287.69  1299.60  1301.46  1311.32  1337.37
                             1347.10  1392.70  1433.99  1510.97  1517.47
                             1536.12  1543.84  1559.65  1611.77  1617.88
                             1624.94  1630.38  1636.69  1646.30  1695.62
                             1719.94  1732.18  1736.71  1769.78  1815.48
                             1834.56  1857.09  1898.10  1911.77  1915.95
                             1929.04  1941.87  1963.25  1972.74  2035.88
                             2042.03  2058.00  2073.59  2082.23  2126.10
                             2141.58  2177.56  2179.40  2192.90  2198.36
                             2201.66  2202.34  2212.25  2216.15  2231.13
                             2345.72  2402.66  2440.17  4368.70  4378.21
                             4399.23  4405.97  4406.22  4450.69  4479.88
                             4480.40  4486.75  4504.45  4515.13  4537.00
                             4558.85  4562.27  4580.10  4583.06  4621.82
                             4634.45  4655.59  4698.25  5111.95  5254.56

 Zero-point correction=                           0.354500 (Hartree/Particle)
 Thermal correction to Energy=                    0.375969
 Thermal correction to Enthalpy=                  0.376913
 Thermal correction to Gibbs Free Energy=         0.303073
 Sum of electronic and zero-point Energies=          -1279.723587
 Sum of electronic and thermal Energies=             -1279.702117
 Sum of electronic and thermal Enthalpies=           -1279.701173
 Sum of electronic and thermal Free Energies=        -1279.775013

                     E (Thermal)             CV                S
                      KCal/Mol        Cal/Mol-Kelvin    Cal/Mol-Kelvin
 Total                  235.924             80.584            155.409
 Electronic               0.000              0.000              0.000
 Translational            0.889              2.981             42.974
 Rotational               0.889              2.981             33.822
 Vibrational            234.147             74.622             78.613
 Vibration     1          0.593              1.986              7.203
 Vibration     2          0.593              1.984              5.976
 Vibration     3          0.596              1.975              4.613
 Vibration     4          0.597              1.971              4.286
 Vibration     5          0.598              1.970              4.224
 Vibration     6          0.599              1.966              4.027
 Vibration     7          0.601              1.957              3.691
 Vibration     8          0.607              1.940              3.251
 Vibration     9          0.609              1.933              3.107
 Vibration    10          0.613              1.919              2.884
 Vibration    11          0.622              1.889              2.523
 Vibration    12          0.628              1.871              2.364
 Vibration    13          0.636              1.847              2.181
 Vibration    14          0.644              1.820              2.011
 Vibration    15          0.656              1.783              1.821
 Vibration    16          0.662              1.763              1.733
 Vibration    17          0.675              1.727              1.591
 Vibration    18          0.680              1.711              1.534
 Vibration    19          0.691              1.678              1.430
 Vibration    20          0.695              1.666              1.395
 Vibration    21          0.698              1.657              1.370
 Vibration    22          0.702              1.646              1.339
 Vibration    23          0.736              1.550              1.112
 Vibration    24          0.742              1.534              1.081
 Vibration    25          0.749              1.514              1.042
 Vibration    26          0.788              1.414              0.873
 Vibration    27          0.802              1.379              0.820
 Vibration    28          0.813              1.352              0.783
 Vibration    29          0.842              1.282              0.695
 Vibration    30          0.861              1.236              0.643
 Vibration    31          0.904              1.143              0.547
 Vibration    32          0.926              1.096              0.504
 Vibration    33          0.947              1.054              0.468
 Vibration    34          0.962              1.024              0.443

                           ! Non-Optimized Parameters !
 Normal termination of Gaussian 16 at Sun Dec 13 17:08:09 2020.

 ----------------------------------------------------------------------
 # B3LYP/6-311++G(d,p) empiricaldispersion=gd3bj scf=xqc pop=npa geom=c
 heck
 ----------------------------------------------------------------------

 ---------------------------------------
 CID_43662976_JID_10050_Energie_neutraal
 ---------------------------------------
 Structure from the checkpoint file:  "JID_10050.chk"
 Charge =  0 Multiplicity = 1

 SCF Done:  E(RB3LYP) =  -1280.35550505     A.U. after   17 cycles
 Normal termination of Gaussian 16 at Sun Dec 13 17:19:00 2020.

 ----------------------------------------------------------------------
 # B3LYP/6-311++G(d,p) empiricaldispersion=gd3bj scf=xqc pop=npa geom=c
 heck
 ----------------------------------------------------------------------

 -------------------------------------
 CID_43662976_JID_10050_Energie_kation
 -------------------------------------
 Structure from the checkpoint file:  "JID_10050.chk"
 Charge =  1 Multiplicity = 2

 SCF Done:  E(UB3LYP) =  -1280.07790804     A.U. after   23 cycles
 Normal termination of Gaussian 16 at Sun Dec 13 17:38:48 2020.
 Gaussian 16:  ES64L-G16RevA.03 25-Dec-2016

 ----------------------------------------------------------------------
 # B3LYP/6-311++G(d,p) empiricaldispersion=gd3bj scf=xqc pop=npa geom=c
 heck
 ----------------------------------------------------------------------

 ------------------------------------
 CID_43662976_JID_10050_Energie_anion
 ------------------------------------
 Structure from the checkpoint file:  "JID_10050.chk"
 Charge = -1 Multiplicity = 2

                         Standard orientation:
 ---------------------------------------------------------------------
 Center     Atomic      Atomic             Coordinates (Angstroms)
 Number     Number       Type             X           Y           Z
 ---------------------------------------------------------------------
      1          6           0       -0.644521   -3.764513   -1.715263
      2          6           0       -0.759224   -2.283618   -1.347064
      3          6           0       -1.512734   -2.097017   -0.025139
      4          7           0       -1.718348   -0.700112    0.389106
      5          6           0       -2.519979    0.127648   -0.477932
      6          6           0       -4.000327   -0.184453   -0.512451
      7          6           0       -3.505291    1.080901    0.133504
      8         16           0       -0.544320   -0.016789    1.376669
      9          8           0       -0.979891    1.336150    1.722046
     10          8           0       -0.282580   -1.004538    2.430581
     11          6           0        0.996974    0.093106    0.440962
     12          6           0        1.113186    0.910692   -0.690222
     13          6           0        2.342311    0.953488   -1.352136
     14          6           0        3.424447    0.206533   -0.897984
     15          6           0        3.307479   -0.619543    0.231585
     16          6           0        2.072081   -0.669779    0.891820
     17          7           0        4.408426   -1.326102    0.722543
     18          8           0        0.005230    1.568463   -1.155826
     19          6           0        0.110097    2.992933   -1.336333
     20          6           0        0.400967    3.729826   -0.038987
     21          1           0       -0.099814   -4.322139   -0.943605
     22          1           0       -0.112160   -3.898679   -2.662845
     23          1           0       -1.634019   -4.226170   -1.819927
     24          1           0        0.238795   -1.839845   -1.267954
     25          1           0       -1.282779   -1.742268   -2.144388
     26          1           0       -2.509947   -2.545917   -0.105024
     27          1           0       -0.996887   -2.609402    0.790142
     28          1           0       -2.052284    0.431918   -1.408995
     29          1           0       -4.502679   -0.132346   -1.474079
     30          1           0       -4.355771   -0.971539    0.145489
     31          1           0       -3.521469    1.140918    1.214415
     32          1           0       -3.655325    2.027890   -0.376327
     33          1           0        2.446055    1.567227   -2.241156
     34          1           0        4.372553    0.259351   -1.427320
     35          1           0        1.934390   -1.288892    1.771560
     36          1           0        4.175243   -2.120095    1.305677
     37          1           0        5.102813   -1.569761    0.027289
     38          1           0        0.868261    3.214480   -2.099809
     39          1           0       -0.864311    3.275662   -1.742772
     40          1           0        1.383692    3.452202    0.355821
     41          1           0        0.398286    4.810933   -0.219439
     42          1           0       -0.348935    3.480786    0.714432
 ---------------------------------------------------------------------

 SCF Done:  E(UB3LYP) =  -1280.34921616     A.U. after   33 cycles
 SCF Done:  E(UB3LYP) =  -1280.34921616     a.u. after    1 cycles

 The electronic state is 2-A.
 Alpha  occ. eigenvalues --  -88.95713 -19.04371 -19.00908 -19.00751 -14.24611
 Alpha  occ. eigenvalues --  -14.21309 -10.13196 -10.12760 -10.11863 -10.11246
 Alpha  occ. eigenvalues --  -10.10997 -10.09142 -10.08808 -10.08348 -10.07554
 Alpha  occ. eigenvalues --  -10.07456 -10.07311 -10.06959 -10.06626 -10.06587
 Alpha  occ. eigenvalues --   -8.01780  -5.98068  -5.98045  -5.97875  -1.01284
 Alpha  occ. eigenvalues --   -0.96092  -0.90242  -0.84904  -0.81701  -0.75869
 Alpha  occ. eigenvalues --   -0.74450  -0.69080  -0.67204  -0.66252  -0.62268
 Alpha  occ. eigenvalues --   -0.60271  -0.56913  -0.54714  -0.52993  -0.52105
 Alpha  occ. eigenvalues --   -0.50814  -0.49292  -0.46466  -0.44232  -0.42361
 Alpha  occ. eigenvalues --   -0.42047  -0.41449  -0.40157  -0.39439  -0.38001
 Alpha  occ. eigenvalues --   -0.37545  -0.36425  -0.35694  -0.35005  -0.34469
 Alpha  occ. eigenvalues --   -0.33466  -0.32894  -0.32095  -0.31082  -0.30048
 Alpha  occ. eigenvalues --   -0.29340  -0.28918  -0.28662  -0.28059  -0.27791
 Alpha  occ. eigenvalues --   -0.26849  -0.26407  -0.25118  -0.24928  -0.24391
 Alpha  occ. eigenvalues --   -0.23055  -0.22505  -0.21983  -0.20399  -0.20041
 Alpha  occ. eigenvalues --   -0.19361  -0.18552  -0.16655  -0.15013  -0.10301
 Alpha  occ. eigenvalues --    0.04006
 Alpha virt. eigenvalues --    0.05802   0.06084   0.06463   0.07380   0.07894
 Alpha virt. eigenvalues --    0.08134   0.09022   0.09169   0.09664   0.09994
 Alpha virt. eigenvalues --    0.10420   0.10633   0.11217   0.12019   0.12241

  Beta  occ. eigenvalues --  -88.95711 -19.04370 -19.00890 -19.00742 -14.24597
  Beta  occ. eigenvalues --  -14.21258 -10.13177 -10.12740 -10.11860 -10.11244
  Beta  occ. eigenvalues --  -10.10999 -10.09023 -10.08794 -10.08344 -10.07542
  Beta  occ. eigenvalues --  -10.07449 -10.07290 -10.06887 -10.06621 -10.06441
  Beta  occ. eigenvalues --   -8.01777  -5.98059  -5.98040  -5.97876  -1.01242
  Beta  occ. eigenvalues --   -0.96075  -0.90210  -0.84874  -0.81613  -0.75840
  Beta  occ. eigenvalues --   -0.74306  -0.69058  -0.67146  -0.66041  -0.62136
  Beta  occ. eigenvalues --   -0.60226  -0.56814  -0.54654  -0.52874  -0.52068
  Beta  occ. eigenvalues --   -0.50734  -0.49227  -0.46388  -0.44184  -0.42322
  Beta  occ. eigenvalues --   -0.41978  -0.41378  -0.40107  -0.39410  -0.37955
  Beta  occ. eigenvalues --   -0.37493  -0.36383  -0.35614  -0.34960  -0.34403
  Beta  occ. eigenvalues --   -0.33450  -0.32849  -0.32048  -0.30993  -0.29998
  Beta  occ. eigenvalues --   -0.29177  -0.28895  -0.28569  -0.28036  -0.27741
  Beta  occ. eigenvalues --   -0.26811  -0.26335  -0.25060  -0.24887  -0.24354
  Beta  occ. eigenvalues --   -0.22970  -0.22480  -0.21943  -0.20318  -0.19996
  Beta  occ. eigenvalues --   -0.19281  -0.18411  -0.16308  -0.14722  -0.09926
  Beta virt. eigenvalues --    0.05955   0.06519   0.06896   0.07448   0.07810
  Beta virt. eigenvalues --    0.08063   0.08301   0.09188   0.09258   0.09953
  Beta virt. eigenvalues --    0.10158   0.10527   0.10719   0.11269   0.12186

 Mulliken charges and spin densities:
               1          2
     1  C   -0.033132  -0.586679
     2  C   -0.351663   0.379555
     3  C   -0.245574  -0.203860
     4  N    0.091920   0.029097
     5  C   -0.823554   0.539383
     6  C    0.121825  -0.553018
     7  C   -0.141387  -0.244390
     8  S    0.271575  -0.064184
     9  O   -0.103653   0.000625
    10  O   -0.123736  -0.004381
    11  C    0.251663  -0.164145
    12  C   -0.077485   0.142342
    13  C   -0.540501   0.234456
    14  C    0.547716  -0.269184
    15  C   -0.069483  -0.365261
    16  C    0.061492  -0.365976
    17  N   -0.273240  -0.077236
    18  O   -0.047470  -0.021100
    19  C    0.298384  -0.336759
    20  C   -0.478834  -0.120170
    21  H    0.041929   0.096906
    22  H   -0.063494   0.209430
    23  H    0.003171   0.121222
    24  H    0.306116  -0.102543
    25  H    0.009702   0.133108
    26  H    0.118246   0.008269
    27  H    0.227537  -0.012472
    28  H    0.276092   0.026636
    29  H   -0.118486   0.268434
    30  H    0.141725  -0.011846
    31  H    0.185971  -0.004028
    32  H    0.101788   0.028937
    33  H   -0.140344   0.292392
    34  H   -0.456031   0.624730
    35  H    0.148204   0.063502
    36  H   -0.011341   0.243168
    37  H   -0.325912   0.587179
    38  H    0.010491   0.116653
    39  H   -0.172651   0.295904
    40  H    0.141983   0.004896
    41  H    0.055031   0.067227
    42  H    0.185409  -0.006817
 Sum of Mulliken charges =  -1.00000   1.00000

 Dipole moment (field-independent basis, Debye):
    X=             -6.5337    Y=              1.6467    Z=             -0.0199  Tot=              6.7380
 Quadrupole moment (field-independent basis, Debye-Ang):
   XX=           -208.6937   YY=           -164.5752   ZZ=           -169.8528
   XY=             13.7667   XZ=              3.4530   YZ=             -3.8761

 Summary of Natural Population Analysis:

                                       Natural Population
                Natural  -----------------------------------------------
    Atom  No    Charge         Core      Valence    Rydberg      Total
 -----------------------------------------------------------------------
      C    1   -0.28368      0.99967     2.28005    0.00396     3.28368
      C    2   -0.20422      0.99963     2.19731    0.00728     3.20422
      C    3   -0.08593      0.99960     2.07486    0.01147     3.08593
      N    4   -0.37253      0.99969     2.85753    0.01532     3.87253
      C    5   -0.02127      0.99955     2.00746    0.01426     3.02127
      C    6   -0.20337      0.99962     2.19610    0.00765     3.20337
      C    7   -0.19142      0.99961     2.18168    0.01013     3.19142
      S    8    1.12665      4.99912     1.77415    0.10009     6.87335
      O    9   -0.46312      0.99990     3.45748    0.00574     4.46312
      O   10   -0.47297      0.99991     3.46775    0.00531     4.47297
      C   11   -0.13164      0.99931     2.11652    0.01580     3.13164
      C   12    0.13963      0.99930     1.84575    0.01532     2.86037
      C   13   -0.11598      0.99951     2.10766    0.00881     3.11598
      C   14   -0.08403      0.99953     2.07427    0.01023     3.08403
      C   15    0.07780      0.99948     1.91099    0.01173     2.92220
      C   16   -0.10510      0.99947     2.09552    0.01011     3.10510
      N   17   -0.39718      0.99972     2.88720    0.01026     3.89718
      O   18   -0.29552      0.99986     3.28395    0.01170     4.29552
      C   19   -0.00439      0.99957     1.99372    0.01109     3.00439
      C   20   -0.30707      0.99966     2.30198    0.00543     3.30707
      H   21    0.09661      0.00000     0.40247    0.00091     0.40339
      H   22    0.10158      0.00000     0.39760    0.00082     0.39842
      H   23    0.09262      0.00000     0.40637    0.00100     0.40738
      H   24    0.10584      0.00000     0.39208    0.00208     0.39416
      H   25    0.09527      0.00000     0.40339    0.00135     0.40473
      H   26    0.09358      0.00000     0.40523    0.00119     0.40642
      H   27    0.10937      0.00000     0.38948    0.00115     0.39063
      H   28    0.10788      0.00000     0.39018    0.00194     0.39212
      H   29    0.10248      0.00000     0.39654    0.00098     0.39752
      H   30    0.10313      0.00000     0.39593    0.00094     0.39687
      H   31    0.11269      0.00000     0.38619    0.00112     0.38731
      H   32    0.10200      0.00000     0.39711    0.00089     0.39800
      H   33    0.10199      0.00000     0.39685    0.00116     0.39801
      H   34    0.10061      0.00000     0.39817    0.00123     0.39939
      H   35    0.11384      0.00000     0.38490    0.00127     0.38616
      H   36    0.18395      0.00000     0.31428    0.00177     0.31605
      H   37    0.18996      0.00000     0.30240    0.00764     0.31004
      H   38    0.07852      0.00000     0.42027    0.00121     0.42148
      H   39    0.08878      0.00000     0.41006    0.00115     0.41122
      H   40    0.10352      0.00000     0.39568    0.00080     0.39648
      H   41    0.09591      0.00000     0.40337    0.00072     0.40409
      H   42    0.11520      0.00000     0.38370    0.00111     0.38480
 =======================================================================
   * Total *   -0.00000     23.99170    55.68419    0.32411    80.00000

 Normal termination of Gaussian 16 at Sun Dec 13 18:07:47 2020.
