 Gaussian 16, Revision A.03,

 -----------------------------------------------------------
 # opt freq B3LYP/6-31G(d) empiricaldispersion=gd3bj scf=xqc
 -----------------------------------------------------------

 -------------------------------
 CID_115125136_JID_8070_neutraal
 -------------------------------
 Symbolic Z-matrix:
 Charge =  0 Multiplicity = 1

 SCF Done:  E(RB3LYP) =  -750.978456966     A.U. after   14 cycles
 SCF Done:  E(RB3LYP) =  -750.983267020     A.U. after   11 cycles
 SCF Done:  E(RB3LYP) =  -750.983763609     A.U. after   11 cycles
 SCF Done:  E(RB3LYP) =  -750.984122632     A.U. after   11 cycles
 SCF Done:  E(RB3LYP) =  -750.984290099     A.U. after   11 cycles
 SCF Done:  E(RB3LYP) =  -750.984310272     A.U. after   10 cycles
 SCF Done:  E(RB3LYP) =  -750.984317315     A.U. after    9 cycles
 SCF Done:  E(RB3LYP) =  -750.984318886     A.U. after    7 cycles
 SCF Done:  E(RB3LYP) =  -750.984321726     A.U. after    9 cycles
 SCF Done:  E(RB3LYP) =  -750.984323630     A.U. after    9 cycles
 SCF Done:  E(RB3LYP) =  -750.984396703     A.U. after   11 cycles
 SCF Done:  E(RB3LYP) =  -750.984397791     A.U. after    9 cycles
 SCF Done:  E(RB3LYP) =  -750.984397930     A.U. after    8 cycles
 SCF Done:  E(RB3LYP) =  -750.984397952     A.U. after    6 cycles
 SCF Done:  E(RB3LYP) =  -750.984397956     A.U. after    6 cycles
 Optimization completed.
    -- Stationary point found.
 Normal termination of Gaussian 16 at Fri Dec 11 18:56:32 2020.

 --------------------------------------------------------------------
 #N Geom=AllCheck Guess=TCheck SCRF=Check GenChk RB3LYP/6-31G(d) Freq
 --------------------------------------------------------------------

 Structure from the checkpoint file:  "JID_8070.chk"
 -------------------------------
 CID_115125136_JID_8070_neutraal
 -------------------------------
 Charge =  0 Multiplicity = 1

 SCF Done:  E(RB3LYP) =  -750.984397956     A.U. after    1 cycles

  Exact polarizability: 208.745 -20.207 171.207 -21.589 -14.457 150.901
 Approx polarizability: 269.883 -35.857 262.919 -36.085 -33.240 235.035

                      1                      2                      3
                      A                      A                      A
 Frequencies --     19.8124                29.5333                38.8470
 Red. masses --      3.5467                 3.9040                 1.5220
 Frc consts  --      0.0008                 0.0020                 0.0014
 IR Inten    --      0.0386                 0.1453                 0.2068

                      4                      5                      6
                      A                      A                      A
 Frequencies --     42.4293                75.5744               101.1786
 Red. masses --      1.8101                 3.6393                 3.1739
 Frc consts  --      0.0019                 0.0122                 0.0191
 IR Inten    --      0.2268                 0.3213                 0.0418

                      7                      8                      9
                      A                      A                      A
 Frequencies --    141.8978               148.0755               161.5087
 Red. masses --      2.4799                 2.5335                 2.3991
 Frc consts  --      0.0294                 0.0327                 0.0369
 IR Inten    --      1.2023                 0.5185                 0.2705

                     10                     11                     12
                      A                      A                      A
 Frequencies --    218.7944               240.1919               250.6133
 Red. masses --      3.4474                 3.7280                 3.0941
 Frc consts  --      0.0972                 0.1267                 0.1145
 IR Inten    --      3.4574                 1.7751                 1.5430

                     13                     14                     15
                      A                      A                      A
 Frequencies --    257.9536               276.0773               297.6819
 Red. masses --      1.1986                 2.2924                 2.7944
 Frc consts  --      0.0470                 0.1029                 0.1459
 IR Inten    --      0.1883                 4.4052                 0.2685

                     16                     17                     18
                      A                      A                      A
 Frequencies --    327.0285               355.3780               365.3221
 Red. masses --      2.8140                 1.8636                 3.1534
 Frc consts  --      0.1773                 0.1387                 0.2480
 IR Inten    --      6.8900                 1.1732                 3.9828

                     19                     20                     21
                      A                      A                      A
 Frequencies --    384.7720               402.4543               426.4979
 Red. masses --      2.4379                 2.5305                 1.1639
 Frc consts  --      0.2127                 0.2415                 0.1247
 IR Inten    --      0.2463                 2.1769                41.8534

                     22                     23                     24
                      A                      A                      A
 Frequencies --    435.3108               460.2125               483.9637
 Red. masses --      2.3709                 3.2096                 3.0165
 Frc consts  --      0.2647                 0.4005                 0.4163
 IR Inten    --      1.5543                 3.9847                 1.1565

                     25                     26                     27
                      A                      A                      A
 Frequencies --    487.3725               523.5205               532.7043
 Red. masses --      3.1255                 2.1813                 4.3624
 Frc consts  --      0.4374                 0.3522                 0.7294
 IR Inten    --      7.1570                 4.1789                 5.8361

                     28                     29                     30
                      A                      A                      A
 Frequencies --    586.2513               604.6737               717.8210
 Red. masses --      5.0523                 3.2841                 3.1507
 Frc consts  --      1.0231                 0.7075                 0.9565
 IR Inten    --      5.3050                 2.5741                11.3472

                     31                     32                     33
                      A                      A                      A
 Frequencies --    727.9520               739.1167               757.9685
 Red. masses --      2.7452                 3.6964                 3.1368
 Frc consts  --      0.8571                 1.1897                 1.0618
 IR Inten    --     60.9941                 4.3895                15.6348

                     34                     35                     36
                      A                      A                      A
 Frequencies --    785.4169               798.4078               803.6246
 Red. masses --      1.5172                 1.7172                 1.4531
 Frc consts  --      0.5514                 0.6450                 0.5529
 IR Inten    --    164.9297                 7.9533                14.5319

                     37                     38                     39
                      A                      A                      A
 Frequencies --    815.8649               831.4988               846.9971
 Red. masses --      1.6904                 1.8466                 2.0520
 Frc consts  --      0.6629                 0.7522                 0.8673
 IR Inten    --     41.1172                29.2987                34.9237

                     40                     41                     42
                      A                      A                      A
 Frequencies --    864.5410               886.8780               894.3744
 Red. masses --      1.4753                 1.6981                 2.2968
 Frc consts  --      0.6497                 0.7869                 1.0825
 IR Inten    --     25.2445                 2.1941                 0.6942

                     43                     44                     45
                      A                      A                      A
 Frequencies --    913.2874               953.4585               972.6944
 Red. masses --      1.2876                 1.9229                 2.5832
 Frc consts  --      0.6328                 1.0299                 1.4400
 IR Inten    --      0.7187                 3.7186                 3.5177

                     46                     47                     48
                      A                      A                      A
 Frequencies --    988.3207              1017.6400              1032.4750
 Red. masses --      2.4378                 1.9521                 1.5252
 Frc consts  --      1.4030                 1.1911                 0.9579
 IR Inten    --      7.4976                 3.9767                 0.4257

                     49                     50                     51
                      A                      A                      A
 Frequencies --   1046.5180              1064.4218              1067.0808
 Red. masses --      2.0497                 2.1809                 1.7728
 Frc consts  --      1.3226                 1.4558                 1.1894
 IR Inten    --      5.3180                30.3653                 4.5589

                     52                     53                     54
                      A                      A                      A
 Frequencies --   1073.5284              1081.0672              1096.0203
 Red. masses --      1.4981                 2.4806                 2.1647
 Frc consts  --      1.0172                 1.7081                 1.5321
 IR Inten    --      9.2968                16.0308                14.1955

                     55                     56                     57
                      A                      A                      A
 Frequencies --   1123.6880              1139.4235              1159.7249
 Red. masses --      1.6430                 1.7181                 1.4682
 Frc consts  --      1.2223                 1.3142                 1.1634
 IR Inten    --      4.6410                21.4153                15.4458

                     58                     59                     60
                      A                      A                      A
 Frequencies --   1176.4733              1179.2607              1184.7801
 Red. masses --      1.6721                 1.3670                 1.3903
 Frc consts  --      1.3636                 1.1201                 1.1499
 IR Inten    --     26.5624                 1.3914                 5.9354

                     61                     62                     63
                      A                      A                      A
 Frequencies --   1197.7087              1199.7760              1218.2156
 Red. masses --      2.0443                 1.9014                 1.2655
 Frc consts  --      1.7278                 1.6126                 1.1065
 IR Inten    --     11.8639                16.3574                20.8030

                     64                     65                     66
                      A                      A                      A
 Frequencies --   1257.2288              1282.4653              1288.3667
 Red. masses --      1.3930                 2.3836                 1.3525
 Frc consts  --      1.2972                 2.3098                 1.3227
 IR Inten    --     45.6025                49.5109                 4.9588

                     67                     68                     69
                      A                      A                      A
 Frequencies --   1314.5267              1316.9787              1333.0563
 Red. masses --      2.3100                 1.6155                 1.5598
 Frc consts  --      2.3518                 1.6509                 1.6331
 IR Inten    --     20.9804                 6.3062                36.4922

                     70                     71                     72
                      A                      A                      A
 Frequencies --   1339.5564              1348.3887              1355.0935
 Red. masses --      1.6693                 1.3125                 1.4125
 Frc consts  --      1.7648                 1.4060                 1.5281
 IR Inten    --      8.8502                 4.0499                11.8600

                     73                     74                     75
                      A                      A                      A
 Frequencies --   1371.8704              1380.4730              1385.1794
 Red. masses --      3.1048                 1.3094                 1.4053
 Frc consts  --      3.4428                 1.4702                 1.5886
 IR Inten    --      4.9599                 0.4350                 2.1368

                     76                     77                     78
                      A                      A                      A
 Frequencies --   1396.3351              1415.0872              1417.6790
 Red. masses --      1.4930                 1.4516                 1.3961
 Frc consts  --      1.7151                 1.7127                 1.6532
 IR Inten    --      3.6402                 5.2661                 5.7098

                     79                     80                     81
                      A                      A                      A
 Frequencies --   1435.3516              1441.8234              1443.8396
 Red. masses --      1.4281                 1.2491                 1.4503
 Frc consts  --      1.7335                 1.5300                 1.7813
 IR Inten    --     19.9174                 0.5944                 3.7025

                     82                     83                     84
                      A                      A                      A
 Frequencies --   1473.3024              1484.5894              1502.0756
 Red. masses --      2.1595                 1.1944                 1.4552
 Frc consts  --      2.7617                 1.5510                 1.9344
 IR Inten    --     30.5258                 0.3631                 9.7966

                     85                     86                     87
                      A                      A                      A
 Frequencies --   1509.4698              1514.3116              1516.7013
 Red. masses --      1.0909                 1.0741                 1.0623
 Frc consts  --      1.4644                 1.4511                 1.4397
 IR Inten    --      3.1433                 9.6595                 9.7739

                     88                     89                     90
                      A                      A                      A
 Frequencies --   1516.9796              1522.9434              1525.0679
 Red. masses --      1.0525                 1.0943                 1.0989
 Frc consts  --      1.4270                 1.4954                 1.5059
 IR Inten    --      6.3307                 1.8189                 5.2491

                     91                     92                     93
                      A                      A                      A
 Frequencies --   1532.6801              1536.7533              1540.5694
 Red. masses --      1.2441                 1.0525                 1.1071
 Frc consts  --      1.7219                 1.4644                 1.5481
 IR Inten    --      6.2366                 3.6419                 7.4965

                     94                     95                     96
                      A                      A                      A
 Frequencies --   1561.8795              1567.2707              1641.7562
 Red. masses --      1.0773                 2.9868                 2.6564
 Frc consts  --      1.5484                 4.3226                 4.2186
 IR Inten    --      0.8852                92.7935                 5.3347

                     97                     98                     99
                      A                      A                      A
 Frequencies --   1663.5396              1685.4616              2886.6210
 Red. masses --      2.3785                 2.3156                 1.0742
 Frc consts  --      3.8781                 3.8757                 5.2739
 IR Inten    --     19.3835                78.5807                23.2441

                    100                    101                    102
                      A                      A                      A
 Frequencies --   2895.4788              2934.2706              3002.7339
 Red. masses --      1.0720                 1.0623                 1.0675
 Frc consts  --      5.2953                 5.3886                 5.6711
 IR Inten    --    119.6671               157.7910                21.0047

                    103                    104                    105
                      A                      A                      A
 Frequencies --   3017.9030              3033.2147              3038.1486
 Red. masses --      1.0758                 1.0735                 1.0390
 Frc consts  --      5.7726                 5.8189                 5.6505
 IR Inten    --     29.4741                76.9847                46.0179

                    106                    107                    108
                      A                      A                      A
 Frequencies --   3043.7336              3057.1756              3059.3891
 Red. masses --      1.0774                 1.0821                 1.0711
 Frc consts  --      5.8807                 5.9590                 5.9068
 IR Inten    --      8.6999                41.7005                39.4249

                    109                    110                    111
                      A                      A                      A
 Frequencies --   3062.3188              3072.2078              3074.7638
 Red. masses --      1.0866                 1.0976                 1.0772
 Frc consts  --      6.0035                 6.1036                 6.0003
 IR Inten    --     33.2063                50.2153                33.9923

                    112                    113                    114
                      A                      A                      A
 Frequencies --   3078.7184              3089.9560              3116.5907
 Red. masses --      1.0788                 1.0987                 1.0984
 Frc consts  --      6.0249                 6.1806                 6.2859
 IR Inten    --     38.2737                26.6033                42.7148

                    115                    116                    117
                      A                      A                      A
 Frequencies --   3120.8354              3121.6230              3130.2854
 Red. masses --      1.1040                 1.1009                 1.0944
 Frc consts  --      6.3354                 6.3209                 6.3185
 IR Inten    --     32.3185                19.4476                13.8126

                    118                    119                    120
                      A                      A                      A
 Frequencies --   3159.0547              3165.6757              3190.9410
 Red. masses --      1.0894                 1.0875                 1.0933
 Frc consts  --      6.4057                 6.4212                 6.5591
 IR Inten    --     28.3769                15.9264                23.0716

                    121                    122                    123
                      A                      A                      A
 Frequencies --   3497.9093              3499.8945              3614.4128
 Red. masses --      1.0647                 1.0584                 1.0952
 Frc consts  --      7.6755                 7.6384                 8.4295
 IR Inten    --      3.6068                 7.0601                11.0987

 - Thermochemistry -
 -------------------
 Temperature   298.150 Kelvin.  Pressure   1.00000 Atm.
 Atom     1 has atomic number  6 and mass  12.00000

 Molecular mass:   247.20485 amu.
 Principal axes and moments of inertia in atomic units:
                           1         2         3
     Eigenvalues --  2396.030669621.37112**********
           X            0.99999  -0.00083  -0.00457
           Y            0.00077   0.99991  -0.01346
           Z            0.00459   0.01346   0.99990
 This molecule is an asymmetric top.
 Rotational symmetry number  1.
 Warning -- assumption of classical behavior for rotation
           may cause significant error
 Rotational temperatures (Kelvin)      0.03615     0.00900     0.00851
 Rotational constants (GHZ):           0.75322     0.18758     0.17731
 Zero-point vibrational energy    1021695.6 (Joules/Mol)
                                  244.19111 (Kcal/Mol)
 Warning -- explicit consideration of  29 degrees of freedom as
           vibrations may cause significant error
 Vibrational temperatures:     28.51    42.49    55.89    61.05   108.73
          (Kelvin)            145.57   204.16   213.05   232.38   314.80
                              345.58   360.58   371.14   397.21   428.30
                              470.52   511.31   525.62   553.60   579.04
                              613.64   626.32   662.14   696.32   701.22
                              753.23   766.44   843.48   869.99  1032.78
                             1047.36  1063.42  1090.55  1130.04  1148.73
                             1156.24  1173.85  1196.34  1218.64  1243.88
                             1276.02  1286.81  1314.02  1371.81  1399.49
                             1421.97  1464.16  1485.50  1505.71  1531.47
                             1535.29  1544.57  1555.41  1576.93  1616.74
                             1639.38  1668.59  1692.68  1696.69  1704.63
                             1723.24  1726.21  1752.74  1808.87  1845.18
                             1853.67  1891.31  1894.84  1917.97  1927.32
                             1940.03  1949.68  1973.82  1986.19  1992.96
                             2009.01  2035.99  2039.72  2065.15  2074.46
                             2077.36  2119.75  2135.99  2161.15  2171.79
                             2178.76  2182.19  2182.60  2191.18  2194.23
                             2205.18  2211.05  2216.54  2247.20  2254.95
                             2362.12  2393.46  2425.00  4153.20  4165.95
                             4221.76  4320.26  4342.09  4364.12  4371.22
                             4379.25  4398.59  4401.78  4405.99  4420.22
                             4423.90  4429.59  4445.76  4484.08  4490.19
                             4491.32  4503.78  4545.18  4554.70  4591.05
                             5032.71  5035.57  5200.33

 Zero-point correction=                           0.389143 (Hartree/Particle)
 Thermal correction to Energy=                    0.407338
 Thermal correction to Enthalpy=                  0.408283
 Thermal correction to Gibbs Free Energy=         0.341301
 Sum of electronic and zero-point Energies=           -750.595255
 Sum of electronic and thermal Energies=              -750.577059
 Sum of electronic and thermal Enthalpies=            -750.576115
 Sum of electronic and thermal Free Energies=         -750.643096

                     E (Thermal)             CV                S
                      KCal/Mol        Cal/Mol-Kelvin    Cal/Mol-Kelvin
 Total                  255.609             70.825            140.974
 Electronic               0.000              0.000              0.000
 Translational            0.889              2.981             42.416
 Rotational               0.889              2.981             33.817
 Vibrational            253.831             64.863             64.741
 Vibration     1          0.593              1.986              6.653
 Vibration     2          0.593              1.984              5.861
 Vibration     3          0.594              1.981              5.317
 Vibration     4          0.595              1.980              5.142
 Vibration     5          0.599              1.965              4.003
 Vibration     6          0.604              1.948              3.431
 Vibration     7          0.615              1.911              2.778
 Vibration     8          0.617              1.905              2.697
 Vibration     9          0.622              1.890              2.532
 Vibration    10          0.647              1.812              1.969
 Vibration    11          0.657              1.779              1.801
 Vibration    12          0.663              1.762              1.726
 Vibration    13          0.667              1.749              1.676
 Vibration    14          0.678              1.718              1.558
 Vibration    15          0.691              1.678              1.430
 Vibration    16          0.711              1.621              1.275
 Vibration    17          0.731              1.564              1.142
 Vibration    18          0.739              1.544              1.099
 Vibration    19          0.754              1.503              1.020
 Vibration    20          0.768              1.465              0.954
 Vibration    21          0.788              1.413              0.870
 Vibration    22          0.796              1.393              0.841
 Vibration    23          0.818              1.338              0.765
 Vibration    24          0.840              1.286              0.699
 Vibration    25          0.843              1.278              0.690
 Vibration    26          0.878              1.198              0.602
 Vibration    27          0.888              1.178              0.581
 Vibration    28          0.943              1.061              0.474
 Vibration    29          0.963              1.022              0.442

 Optimization completed.
    -- Stationary point found.
 Normal termination of Gaussian 16 at Fri Dec 11 19:17:46 2020.

 ----------------------------------------------------------------------
 # B3LYP/6-311++G(d,p) empiricaldispersion=gd3bj scf=xqc pop=npa geom=c
 heck
 ----------------------------------------------------------------------

 ---------------------------------------
 CID_115125136_JID_8070_Energie_neutraal
 ---------------------------------------
 Structure from the checkpoint file:  "JID_8070.chk"
 Charge =  0 Multiplicity = 1

 SCF Done:  E(RB3LYP) =  -751.194097193     A.U. after   15 cycles
 Normal termination of Gaussian 16 at Fri Dec 11 19:28:24 2020.

 ----------------------------------------------------------------------
 # B3LYP/6-311++G(d,p) empiricaldispersion=gd3bj scf=xqc pop=npa geom=c
 heck
 ----------------------------------------------------------------------

 -------------------------------------
 CID_115125136_JID_8070_Energie_kation
 -------------------------------------
 Structure from the checkpoint file:  "JID_8070.chk"
 Charge =  1 Multiplicity = 2

 SCF Done:  E(UB3LYP) =  -750.940759480     A.U. after   22 cycles
 Normal termination of Gaussian 16 at Fri Dec 11 19:50:44 2020.
 Gaussian 16:  ES64L-G16RevA.03 25-Dec-2016

 ----------------------------------------------------------------------
 # B3LYP/6-311++G(d,p) empiricaldispersion=gd3bj scf=xqc pop=npa geom=c
 heck
 ----------------------------------------------------------------------

 ------------------------------------
 CID_115125136_JID_8070_Energie_anion
 ------------------------------------
 Structure from the checkpoint file:  "JID_8070.chk"
 Charge = -1 Multiplicity = 2

                         Standard orientation:
 ---------------------------------------------------------------------
 Center     Atomic      Atomic             Coordinates (Angstroms)
 Number     Number       Type             X           Y           Z
 ---------------------------------------------------------------------
      1          6           0       -5.584830    1.110186    1.066273
      2          6           0       -4.320135    0.646739    0.383918
      3          6           0       -3.707903   -0.551047    0.772401
      4          6           0       -2.529794   -1.000891    0.171520
      5          6           0       -1.926602   -0.216989   -0.839675
      6          6           0       -2.541078    0.971168   -1.227504
      7          6           0       -3.731577    1.398952   -0.635186
      8          7           0       -0.735119   -0.713145   -1.442716
      9          6           0        0.488886   -0.507847   -0.638106
     10          6           0        1.663010   -1.225708   -1.302846
     11          6           0        3.063734   -1.048417   -0.681892
     12          6           0        3.197286   -1.538543    0.775499
     13          6           0        2.743866   -0.503123    1.814204
     14          6           0        3.362361    0.865459    1.532707
     15          7           0        3.057353    1.302771    0.172416
     16          6           0        3.622411    0.378668   -0.808358
     17          6           0        3.512187    2.662110   -0.064560
     18          7           0       -1.904912   -2.194421    0.553879
     19          1           0       -6.309272    0.293595    1.169528
     20          1           0       -5.379789    1.487465    2.076853
     21          1           0       -6.066165    1.917532    0.505297
     22          1           0       -4.166587   -1.160027    1.549983
     23          1           0       -2.078334    1.568962   -2.010487
     24          1           0       -4.194765    2.326764   -0.959984
     25          1           0       -0.607735   -0.283035   -2.356380
     26          1           0        0.716903    0.556151   -0.492497
     27          1           0        0.292329   -0.933985    0.348660
     28          1           0        1.429118   -2.298262   -1.341375
     29          1           0        1.722056   -0.894584   -2.351603
     30          1           0        3.724651   -1.680238   -1.291908
     31          1           0        4.256993   -1.764361    0.960226
     32          1           0        2.649986   -2.480213    0.907949
     33          1           0        3.034544   -0.833637    2.818995
     34          1           0        1.655170   -0.401794    1.814439
     35          1           0        4.460877    0.820682    1.696088
     36          1           0        2.964874    1.610655    2.231236
     37          1           0        3.409201    0.770760   -1.810553
     38          1           0        4.728587    0.338697   -0.709231
     39          1           0        4.611510    2.772957    0.024097
     40          1           0        3.220551    2.979381   -1.071666
     41          1           0        3.043537    3.339310    0.657324
     42          1           0       -2.538472   -2.874974    0.957366
     43          1           0       -1.371952   -2.588538   -0.217782
 ---------------------------------------------------------------------

 SCF Done:  E(UB3LYP) =  -751.181168366     A.U. after   33 cycles
 SCF Done:  E(UB3LYP) =  -751.181168366     a.u. after    1 cycles

 The electronic state is 2-A.
 Alpha  occ. eigenvalues --  -14.21837 -14.21390 -14.21150 -10.11433 -10.10282
 Alpha  occ. eigenvalues --  -10.09846 -10.09522 -10.09405 -10.08781 -10.08668
 Alpha  occ. eigenvalues --  -10.08269 -10.07798 -10.07635 -10.07143 -10.07100
 Alpha  occ. eigenvalues --  -10.07070 -10.07037 -10.06634  -0.84226  -0.83745
 Alpha  occ. eigenvalues --   -0.80180  -0.74703  -0.71502  -0.67840  -0.66647
 Alpha  occ. eigenvalues --   -0.63540  -0.62497  -0.60080  -0.58115  -0.54386
 Alpha  occ. eigenvalues --   -0.52471  -0.52161  -0.49411  -0.48658  -0.44356
 Alpha  occ. eigenvalues --   -0.42698  -0.41001  -0.39954  -0.39397  -0.37669
 Alpha  occ. eigenvalues --   -0.36822  -0.36446  -0.36009  -0.35043  -0.33784
 Alpha  occ. eigenvalues --   -0.33417  -0.33333  -0.32942  -0.32181  -0.30673
 Alpha  occ. eigenvalues --   -0.30354  -0.29664  -0.29443  -0.28608  -0.27780
 Alpha  occ. eigenvalues --   -0.26920  -0.26553  -0.25654  -0.25013  -0.23780
 Alpha  occ. eigenvalues --   -0.22628  -0.21690  -0.21642  -0.21091  -0.17301
 Alpha  occ. eigenvalues --   -0.13761  -0.12632  -0.10705   0.04010
 Alpha virt. eigenvalues --    0.05555   0.06203   0.06645   0.06975   0.07657
 Alpha virt. eigenvalues --    0.07868   0.08543   0.08797   0.09211   0.09478
 Alpha virt. eigenvalues --    0.09616   0.09865   0.10581   0.10939   0.11155

  Beta  occ. eigenvalues --  -14.21805 -14.21380 -14.21141 -10.11431 -10.10279
  Beta  occ. eigenvalues --  -10.09835 -10.09502 -10.09383 -10.08777 -10.08663
  Beta  occ. eigenvalues --  -10.08258 -10.07791 -10.07623 -10.07129 -10.07093
  Beta  occ. eigenvalues --  -10.07067 -10.07021 -10.06614  -0.84202  -0.83726
  Beta  occ. eigenvalues --   -0.80146  -0.74683  -0.71475  -0.67818  -0.66625
  Beta  occ. eigenvalues --   -0.63509  -0.62470  -0.60040  -0.58086  -0.54355
  Beta  occ. eigenvalues --   -0.52427  -0.52123  -0.49371  -0.48629  -0.44313
  Beta  occ. eigenvalues --   -0.42662  -0.40974  -0.39908  -0.39357  -0.37638
  Beta  occ. eigenvalues --   -0.36797  -0.36420  -0.35982  -0.35019  -0.33761
  Beta  occ. eigenvalues --   -0.33391  -0.33304  -0.32919  -0.32149  -0.30641
  Beta  occ. eigenvalues --   -0.30333  -0.29638  -0.29423  -0.28588  -0.27757
  Beta  occ. eigenvalues --   -0.26900  -0.26526  -0.25626  -0.24986  -0.23756
  Beta  occ. eigenvalues --   -0.22602  -0.21660  -0.21610  -0.21062  -0.17281
  Beta  occ. eigenvalues --   -0.13724  -0.12578  -0.10681
  Beta virt. eigenvalues --    0.05802   0.06192   0.06850   0.07087   0.07468
  Beta virt. eigenvalues --    0.07891   0.07968   0.08881   0.09122   0.09242
  Beta virt. eigenvalues --    0.09779   0.09862   0.10190   0.10612   0.11140

 Mulliken charges and spin densities:
               1          2
     1  C    0.747399  -1.330861
     2  C    0.430153   0.122095
     3  C   -1.264060   0.926449
     4  C   -0.119732  -0.020356
     5  C    1.486162  -1.049882
     6  C   -0.450825   0.213880
     7  C   -0.565706  -0.175629
     8  N    0.064744   0.019244
     9  C   -1.596235   0.536663
    10  C    1.057693  -1.313501
    11  C   -0.377114   0.891756
    12  C    0.578673  -1.175725
    13  C   -0.543584   0.346685
    14  C    0.012344  -0.436559
    15  N    0.041089   0.118963
    16  C    0.249106  -0.910518
    17  C    0.176260  -0.499543
    18  N   -0.199153  -0.061060
    19  H   -0.008513   0.147411
    20  H    0.128552   0.024718
    21  H   -0.018470   0.154942
    22  H   -0.264065   0.401595
    23  H   -0.349509   0.490091
    24  H    0.022609   0.101275
    25  H    0.179952   0.049414
    26  H    0.523679  -0.250094
    27  H    0.520445  -0.364598
    28  H   -0.005558   0.178703
    29  H   -0.227589   0.345447
    30  H   -0.359575   0.576569
    31  H   -0.040228   0.194009
    32  H   -0.135888   0.281044
    33  H   -0.084747   0.267489
    34  H   -0.006464   0.148542
    35  H   -0.029756   0.139005
    36  H    0.071062   0.088577
    37  H   -0.237594   0.400956
    38  H   -0.086988   0.213794
    39  H   -0.083980   0.187302
    40  H   -0.154584   0.292688
    41  H   -0.023979   0.150556
    42  H   -0.178739   0.437962
    43  H    0.122713   0.140504
 Sum of Mulliken charges =  -1.00000   1.00000

 Dipole moment (field-independent basis, Debye):
    X=             -2.1386    Y=              2.0458    Z=              1.4900  Tot=              3.3135
 Quadrupole moment (field-independent basis, Debye-Ang):
   XX=           -207.0582   YY=           -159.9065   ZZ=           -151.7241
   XY=             -3.9035   XZ=              5.9280   YZ=              3.6138

 Summary of Natural Population Analysis:

                                       Natural Population
                Natural  -----------------------------------------------
    Atom  No    Charge         Core      Valence    Rydberg      Total
 -----------------------------------------------------------------------
      C    1   -0.28992      0.99964     2.28545    0.00483     3.28992
      C    2   -0.01840      0.99952     2.01079    0.00808     3.01840
      C    3   -0.12344      0.99948     2.11480    0.00916     3.12344
      C    4    0.08304      0.99945     1.90606    0.01145     2.91696
      C    5    0.06015      0.99943     1.92882    0.01160     2.93985
      C    6   -0.10473      0.99952     2.09629    0.00891     3.10473
      C    7   -0.11980      0.99952     2.11072    0.00956     3.11980
      N    8   -0.33681      0.99971     2.82603    0.01106     3.83681
      C    9   -0.09518      0.99959     2.08550    0.01009     3.09518
      C   10   -0.18761      0.99960     2.17740    0.01060     3.18761
      C   11   -0.11274      0.99958     2.10092    0.01223     3.11274
      C   12   -0.18937      0.99961     2.18062    0.00914     3.18937
      C   13   -0.19587      0.99962     2.18815    0.00810     3.19587
      C   14   -0.08129      0.99961     2.07136    0.01032     3.08129
      N   15   -0.28427      0.99971     2.77315    0.01141     3.78427
      C   16   -0.08337      0.99959     2.07081    0.01297     3.08337
      C   17   -0.17282      0.99965     2.16620    0.00697     3.17282
      N   18   -0.39911      0.99972     2.88943    0.00997     3.89911
      H   19    0.10133      0.00000     0.39744    0.00123     0.39867
      H   20    0.10102      0.00000     0.39774    0.00124     0.39898
      H   21    0.09950      0.00000     0.39954    0.00096     0.40050
      H   22    0.09649      0.00000     0.40212    0.00139     0.40351
      H   23    0.09945      0.00000     0.39946    0.00108     0.40055
      H   24    0.09671      0.00000     0.40238    0.00091     0.40329
      H   25    0.17733      0.00000     0.31967    0.00300     0.32267
      H   26    0.09449      0.00000     0.40342    0.00210     0.40551
      H   27    0.09668      0.00000     0.40087    0.00244     0.40332
      H   28    0.09879      0.00000     0.39959    0.00162     0.40121
      H   29    0.09427      0.00000     0.40424    0.00149     0.40573
      H   30    0.10079      0.00000     0.39755    0.00166     0.39921
      H   31    0.09691      0.00000     0.40182    0.00128     0.40309
      H   32    0.10194      0.00000     0.39694    0.00112     0.39806
      H   33    0.09735      0.00000     0.40184    0.00081     0.40265
      H   34    0.09943      0.00000     0.39879    0.00178     0.40057
      H   35    0.07701      0.00000     0.42140    0.00159     0.42299
      H   36    0.09538      0.00000     0.40362    0.00100     0.40462
      H   37    0.09879      0.00000     0.39956    0.00165     0.40121
      H   38    0.08175      0.00000     0.41647    0.00179     0.41825
      H   39    0.07890      0.00000     0.41942    0.00168     0.42110
      H   40    0.09674      0.00000     0.40210    0.00117     0.40326
      H   41    0.09390      0.00000     0.40501    0.00109     0.40610
      H   42    0.18411      0.00000     0.31367    0.00222     0.31589
      H   43    0.19249      0.00000     0.30517    0.00234     0.30751
 =======================================================================
   * Total *    0.00000     17.99255    49.79235    0.21510    68.00000

 Normal termination of Gaussian 16 at Fri Dec 11 20:23:41 2020.
