 Gaussian 16, Revision A.03,

 -----------------------------------------------------------
 # opt freq B3LYP/6-31G(d) empiricaldispersion=gd3bj scf=xqc
 -----------------------------------------------------------

 -------------------------------
 CID_146393261_JID_2094_neutraal
 -------------------------------
 Symbolic Z-matrix:
 Charge =  0 Multiplicity = 1

 SCF Done:  E(RB3LYP) =  -538.496986507     A.U. after   14 cycles
 SCF Done:  E(RB3LYP) =  -538.504251763     A.U. after   12 cycles
 SCF Done:  E(RB3LYP) =  -538.505569104     A.U. after   11 cycles
 SCF Done:  E(RB3LYP) =  -538.505958334     A.U. after   12 cycles
 SCF Done:  E(RB3LYP) =  -538.506572733     A.U. after   11 cycles
 SCF Done:  E(RB3LYP) =  -538.506874411     A.U. after   11 cycles
 SCF Done:  E(RB3LYP) =  -538.506954544     A.U. after   11 cycles
 SCF Done:  E(RB3LYP) =  -538.506981980     A.U. after   10 cycles
 SCF Done:  E(RB3LYP) =  -538.506999747     A.U. after   10 cycles
 SCF Done:  E(RB3LYP) =  -538.507004439     A.U. after    9 cycles
 SCF Done:  E(RB3LYP) =  -538.507021337     A.U. after   10 cycles
 SCF Done:  E(RB3LYP) =  -538.507023893     A.U. after    9 cycles
 SCF Done:  E(RB3LYP) =  -538.507025140     A.U. after    8 cycles
 SCF Done:  E(RB3LYP) =  -538.507025716     A.U. after    7 cycles
 SCF Done:  E(RB3LYP) =  -538.507025795     A.U. after    7 cycles
 Optimization completed.
    -- Stationary point found.
 Normal termination of Gaussian 16 at Wed Dec  9 16:50:05 2020.

 --------------------------------------------------------------------
 #N Geom=AllCheck Guess=TCheck SCRF=Check GenChk RB3LYP/6-31G(d) Freq
 --------------------------------------------------------------------

 Structure from the checkpoint file:  "JID_2094.chk"
 -------------------------------
 CID_146393261_JID_2094_neutraal
 -------------------------------
 Charge =  0 Multiplicity = 1

 SCF Done:  E(RB3LYP) =  -538.507025795     A.U. after    1 cycles

  Exact polarizability: 132.352  -4.281 109.255   6.247  -4.514  92.497
 Approx polarizability: 170.918  -9.057 151.662  18.949 -10.590 144.135

                      1                      2                      3
                      A                      A                      A
 Frequencies --     46.4583                57.7079                77.5964
 Red. masses --      2.8380                 2.3592                 2.2217
 Frc consts  --      0.0036                 0.0046                 0.0079
 IR Inten    --      0.3926                 1.5846                 2.1207

                      4                      5                      6
                      A                      A                      A
 Frequencies --    108.8604               134.6406               146.3372
 Red. masses --      2.4846                 1.2469                 1.4381
 Frc consts  --      0.0173                 0.0133                 0.0181
 IR Inten    --      1.0708                 0.7838                 0.8860

                      7                      8                      9
                      A                      A                      A
 Frequencies --    182.8250               193.8192               228.8786
 Red. masses --      1.8432                 2.2884                 2.4017
 Frc consts  --      0.0363                 0.0507                 0.0741
 IR Inten    --      0.6645                 0.9659                 2.7361

                     10                     11                     12
                      A                      A                      A
 Frequencies --    248.0465               259.8683               266.5726
 Red. masses --      1.0777                 1.2224                 1.7152
 Frc consts  --      0.0391                 0.0486                 0.0718
 IR Inten    --      0.1064                 1.8926                 0.6515

                     13                     14                     15
                      A                      A                      A
 Frequencies --    278.2142               326.6826               359.9555
 Red. masses --      2.0772                 2.0118                 3.1780
 Frc consts  --      0.0947                 0.1265                 0.2426
 IR Inten    --      5.8899                 0.6396                 0.4768

                     16                     17                     18
                      A                      A                      A
 Frequencies --    387.2084               406.6370               421.0661
 Red. masses --      3.3946                 2.7512                 2.4346
 Frc consts  --      0.2999                 0.2680                 0.2543
 IR Inten    --      3.2474                 8.8845                 0.0241

                     19                     20                     21
                      A                      A                      A
 Frequencies --    511.0342               577.5727               603.5852
 Red. masses --      3.0603                 3.5452                 4.2019
 Frc consts  --      0.4709                 0.6968                 0.9019
 IR Inten    --     13.8301                 5.8803                20.6268

                     22                     23                     24
                      A                      A                      A
 Frequencies --    630.1546               672.6496               804.1738
 Red. masses --      4.1860                 4.6790                 3.9668
 Frc consts  --      0.9794                 1.2473                 1.5114
 IR Inten    --      1.1883                15.3642                33.8630

                     25                     26                     27
                      A                      A                      A
 Frequencies --    850.6564               869.9304               912.7681
 Red. masses --      2.5911                 2.9807                 2.1641
 Frc consts  --      1.1047                 1.3291                 1.0623
 IR Inten    --      7.1056                 8.2160                29.5375

                     28                     29                     30
                      A                      A                      A
 Frequencies --    941.2620               954.6538               977.9206
 Red. masses --      1.1837                 2.0727                 1.5640
 Frc consts  --      0.6179                 1.1130                 0.8812
 IR Inten    --      2.3293                22.5270                 5.5526

                     31                     32                     33
                      A                      A                      A
 Frequencies --   1004.4463              1015.2822              1048.8545
 Red. masses --      1.9373                 2.3954                 3.4163
 Frc consts  --      1.1516                 1.4548                 2.2143
 IR Inten    --     29.7286                17.0452               103.7126

                     34                     35                     36
                      A                      A                      A
 Frequencies --   1073.4968              1119.7382              1151.3265
 Red. masses --      1.4611                 2.6353                 2.2555
 Frc consts  --      0.9920                 1.9468                 1.7616
 IR Inten    --      0.2867                18.5411                 0.5138

                     37                     38                     39
                      A                      A                      A
 Frequencies --   1162.2759              1172.9546              1184.1869
 Red. masses --      1.6586                 2.8182                 1.2687
 Frc consts  --      1.3201                 2.2845                 1.0483
 IR Inten    --      2.6418                28.6060                 2.0624

                     40                     41                     42
                      A                      A                      A
 Frequencies --   1195.5625              1205.2322              1208.3312
 Red. masses --      2.0480                 1.7756                 1.4846
 Frc consts  --      1.7248                 1.5196                 1.2771
 IR Inten    --     12.7311                 5.6913                11.1992

                     43                     44                     45
                      A                      A                      A
 Frequencies --   1232.3973              1253.3646              1298.6634
 Red. masses --      2.0732                 2.2917                 2.5347
 Frc consts  --      1.8552                 2.1211                 2.5186
 IR Inten    --      1.9079                19.7815                66.3776

                     46                     47                     48
                      A                      A                      A
 Frequencies --   1327.6245              1353.0391              1364.6217
 Red. masses --      1.6263                 1.7408                 1.5052
 Frc consts  --      1.6889                 1.8777                 1.6515
 IR Inten    --     86.1814                36.2191                11.9649

                     49                     50                     51
                      A                      A                      A
 Frequencies --   1399.2521              1407.2397              1420.9374
 Red. masses --      1.3180                 1.3689                 1.2679
 Frc consts  --      1.5204                 1.5972                 1.5083
 IR Inten    --      5.2944                61.9755                 5.3623

                     52                     53                     54
                      A                      A                      A
 Frequencies --   1441.8777              1448.8646              1467.3280
 Red. masses --      1.2521                 1.2923                 1.1838
 Frc consts  --      1.5338                 1.5983                 1.5017
 IR Inten    --      3.0217                 5.9717                 2.4023

                     55                     56                     57
                      A                      A                      A
 Frequencies --   1501.1184              1510.1929              1512.5269
 Red. masses --      1.2043                 1.0585                 1.0498
 Frc consts  --      1.5988                 1.4224                 1.4151
 IR Inten    --      3.8496                 4.4585                 6.1408

                     58                     59                     60
                      A                      A                      A
 Frequencies --   1513.8015              1517.7155              1523.5401
 Red. masses --      1.0511                 1.0546                 1.0538
 Frc consts  --      1.4191                 1.4313                 1.4412
 IR Inten    --      9.0860                 2.5704                 0.7157

                     61                     62                     63
                      A                      A                      A
 Frequencies --   1530.1272              1532.2075              1532.4199
 Red. masses --      1.0472                 1.0512                 1.0489
 Frc consts  --      1.4445                 1.4540                 1.4512
 IR Inten    --      5.5118                 3.0811                14.2823

                     64                     65                     66
                      A                      A                      A
 Frequencies --   1535.4147              1549.2087              1778.3640
 Red. masses --      1.0485                 1.0484                 8.5343
 Frc consts  --      1.4564                 1.4826                15.9022
 IR Inten    --      3.6539                14.3311               139.7511

                     67                     68                     69
                      A                      A                      A
 Frequencies --   2986.6145              3010.9102              3024.9059
 Red. masses --      1.0543                 1.0811                 1.0820
 Frc consts  --      5.5409                 5.7747                 5.8329
 IR Inten    --     53.0018                 4.2163                18.4416

                     70                     71                     72
                      A                      A                      A
 Frequencies --   3031.1360              3035.9117              3044.2145
 Red. masses --      1.0424                 1.0416                 1.0423
 Frc consts  --      5.6430                 5.6565                 5.6911
 IR Inten    --     45.1770                28.1637                71.4628

                     73                     74                     75
                      A                      A                      A
 Frequencies --   3049.6629              3079.7417              3096.7878
 Red. masses --      1.0343                 1.0958                 1.0972
 Frc consts  --      5.6677                 6.1236                 6.1994
 IR Inten    --     49.7207                27.7174                10.4955

                     76                     77                     78
                      A                      A                      A
 Frequencies --   3098.1135              3103.8028              3122.0497
 Red. masses --      1.0815                 1.0989                 1.1018
 Frc consts  --      6.1158                 6.2371                 6.3274
 IR Inten    --     29.5258                76.2708                36.9139

                     79                     80                     81
                      A                      A                      A
 Frequencies --   3122.9377              3137.0706              3138.0818
 Red. masses --      1.1001                 1.0998                 1.0979
 Frc consts  --      6.3216                 6.3768                 6.3700
 IR Inten    --     22.6002                21.0305                28.4369

                     82                     83                     84
                      A                      A                      A
 Frequencies --   3145.7099              3163.7720              3435.6600
 Red. masses --      1.1032                 1.1053                 1.0748
 Frc consts  --      6.4319                 6.5181                 7.4751
 IR Inten    --     22.4527                27.7061                 3.1042

 - Thermochemistry -
 -------------------
 Temperature   298.150 Kelvin.  Pressure   1.00000 Atm.
 Atom     1 has atomic number  6 and mass  12.00000

 Molecular mass:   170.14191 amu.
 Principal axes and moments of inertia in atomic units:
                           1         2         3
     Eigenvalues --  1304.628812687.910903391.81995
           X            0.99986  -0.01530  -0.00686
           Y            0.01529   0.99988  -0.00263
           Z            0.00690   0.00252   0.99997
 This molecule is an asymmetric top.
 Rotational symmetry number  1.
 Warning -- assumption of classical behavior for rotation
           may cause significant error
 Rotational temperatures (Kelvin)      0.06639     0.03222     0.02554
 Rotational constants (GHZ):           1.38334     0.67143     0.53209
 Zero-point vibrational energy     704351.4 (Joules/Mol)
                                  168.34402 (Kcal/Mol)
 Warning -- explicit consideration of  21 degrees of freedom as
           vibrations may cause significant error
 Vibrational temperatures:     66.84    83.03   111.64   156.63   193.72
          (Kelvin)            210.55   263.04   278.86   329.31   356.88
                              373.89   383.54   400.29   470.02   517.90
                              557.11   585.06   605.82   735.26   831.00
                              868.42   906.65   967.79  1157.03  1223.90
                             1251.64  1313.27  1354.27  1373.53  1407.01
                             1445.17  1460.76  1509.07  1544.52  1611.05
                             1656.50  1672.26  1687.62  1703.78  1720.15
                             1734.06  1738.52  1773.14  1803.31  1868.49
                             1910.16  1946.72  1963.39  2013.21  2024.70
                             2044.41  2074.54  2084.59  2111.16  2159.77
                             2172.83  2176.19  2178.02  2183.65  2192.03
                             2201.51  2204.50  2204.81  2209.12  2228.97
                             2558.67  4297.07  4332.03  4352.16  4361.13
                             4368.00  4379.95  4387.78  4431.06  4455.59
                             4457.49  4465.68  4491.93  4493.21  4513.54
                             4515.00  4525.97  4551.96  4943.15

 Zero-point correction=                           0.268273 (Hartree/Particle)
 Thermal correction to Energy=                    0.282420
 Thermal correction to Enthalpy=                  0.283364
 Thermal correction to Gibbs Free Energy=         0.227749
 Sum of electronic and zero-point Energies=           -538.238753
 Sum of electronic and thermal Energies=              -538.224606
 Sum of electronic and thermal Enthalpies=            -538.223662
 Sum of electronic and thermal Free Energies=         -538.279277

                     E (Thermal)             CV                S
                      KCal/Mol        Cal/Mol-Kelvin    Cal/Mol-Kelvin
 Total                  177.221             51.759            117.053
 Electronic               0.000              0.000              0.000
 Translational            0.889              2.981             41.302
 Rotational               0.889              2.981             30.854
 Vibrational            175.444             45.798             44.897
 Vibration     1          0.595              1.979              4.963
 Vibration     2          0.596              1.974              4.534
 Vibration     3          0.599              1.964              3.951
 Vibration     4          0.606              1.942              3.289
 Vibration     5          0.613              1.919              2.879
 Vibration     6          0.617              1.907              2.719
 Vibration     7          0.630              1.863              2.299
 Vibration     8          0.635              1.848              2.191
 Vibration     9          0.652              1.797              1.888
 Vibration    10          0.662              1.766              1.744
 Vibration    11          0.668              1.746              1.663
 Vibration    12          0.672              1.734              1.618
 Vibration    13          0.679              1.714              1.545
 Vibration    14          0.710              1.622              1.276
 Vibration    15          0.734              1.555              1.122
 Vibration    16          0.756              1.498              1.011
 Vibration    17          0.771              1.456              0.939
 Vibration    18          0.784              1.424              0.888
 Vibration    19          0.866              1.226              0.631
 Vibration    20          0.934              1.080              0.490
 Vibration    21          0.962              1.024              0.444

                           ! Non-Optimized Parameters !
 Normal termination of Gaussian 16 at Wed Dec  9 16:57:34 2020.

 ----------------------------------------------------------------------
 # B3LYP/6-311++G(d,p) empiricaldispersion=gd3bj scf=xqc pop=npa geom=c
 heck
 ----------------------------------------------------------------------

 ---------------------------------------
 CID_146393261_JID_2094_Energie_neutraal
 ---------------------------------------
 Structure from the checkpoint file:  "JID_2094.chk"
 Charge =  0 Multiplicity = 1

 SCF Done:  E(RB3LYP) =  -538.661007511     A.U. after   15 cycles
 Normal termination of Gaussian 16 at Wed Dec  9 17:00:28 2020.

 ----------------------------------------------------------------------
 # B3LYP/6-311++G(d,p) empiricaldispersion=gd3bj scf=xqc pop=npa geom=c
 heck
 ----------------------------------------------------------------------

 -------------------------------------
 CID_146393261_JID_2094_Energie_kation
 -------------------------------------
 Structure from the checkpoint file:  "JID_2094.chk"
 Charge =  1 Multiplicity = 2

 SCF Done:  E(UB3LYP) =  -538.388726490     A.U. after   21 cycles
 Normal termination of Gaussian 16 at Wed Dec  9 17:06:26 2020.
 Gaussian 16:  ES64L-G16RevA.03 25-Dec-2016

 ----------------------------------------------------------------------
 # B3LYP/6-311++G(d,p) empiricaldispersion=gd3bj scf=xqc pop=npa geom=c
 heck
 ----------------------------------------------------------------------

 ------------------------------------
 CID_146393261_JID_2094_Energie_anion
 ------------------------------------
 Structure from the checkpoint file:  "JID_2094.chk"
 Charge = -1 Multiplicity = 2

                         Standard orientation:
 ---------------------------------------------------------------------
 Center     Atomic      Atomic             Coordinates (Angstroms)
 Number     Number       Type             X           Y           Z
 ---------------------------------------------------------------------
      1          6           0       -0.384376   -2.159132    1.108631
      2          6           0       -0.299394   -0.844696    0.400096
      3          6           0       -1.291329   -0.244432   -0.270130
      4          7           0       -1.013207    1.105806   -0.626596
      5          7           0        0.253217    1.425047    0.005706
      6          6           0        0.876741    0.116788    0.394047
      7          6           0        2.028987   -0.219252   -0.580071
      8          6           0        3.114830    0.859310   -0.499045
      9          6           0        2.621931   -1.610256   -0.331395
     10          6           0       -0.037403    2.259671    1.169612
     11          8           0       -2.482783   -0.784826   -0.622661
     12          6           0       -3.630185    0.040360   -0.383488
     13          1           0       -0.053075   -2.068191    2.152344
     14          1           0        0.235033   -2.938828    0.649802
     15          1           0       -1.418795   -2.516844    1.107367
     16          1           0       -0.907144    1.221653   -1.635998
     17          1           0        1.305567    0.224448    1.401418
     18          1           0        1.597507   -0.202358   -1.591547
     19          1           0        3.596295    0.851056    0.488439
     20          1           0        3.895778    0.688772   -1.248980
     21          1           0        2.684397    1.851175   -0.662337
     22          1           0        1.907688   -2.406016   -0.558252
     23          1           0        3.506449   -1.768840   -0.958890
     24          1           0        2.935821   -1.724034    0.714705
     25          1           0       -0.680053    1.754489    1.910676
     26          1           0        0.909425    2.532470    1.646650
     27          1           0       -0.540044    3.170259    0.835053
     28          1           0       -3.704256    0.301754    0.678871
     29          1           0       -3.593941    0.960795   -0.973336
     30          1           0       -4.493263   -0.559284   -0.678009
 ---------------------------------------------------------------------

 SCF Done:  E(UB3LYP) =  -538.644082379     A.U. after   32 cycles

 The electronic state is 2-A.
 Alpha  occ. eigenvalues --  -19.04878 -14.23271 -14.22951 -10.13845 -10.11309
 Alpha  occ. eigenvalues --  -10.09786 -10.08052 -10.06988 -10.06259 -10.05776
 Alpha  occ. eigenvalues --  -10.05645 -10.05240  -0.96863  -0.88954  -0.72447
 Alpha  occ. eigenvalues --   -0.70581  -0.67085  -0.61105  -0.59870  -0.58134
 Alpha  occ. eigenvalues --   -0.55200  -0.51272  -0.46333  -0.45096  -0.42243
 Alpha  occ. eigenvalues --   -0.39126  -0.36661  -0.35912  -0.35644  -0.34577
 Alpha  occ. eigenvalues --   -0.33031  -0.31655  -0.31095  -0.29999  -0.29462
 Alpha  occ. eigenvalues --   -0.28739  -0.28217  -0.28013  -0.26475  -0.25155
 Alpha  occ. eigenvalues --   -0.23746  -0.23224  -0.22532  -0.22151  -0.17350
 Alpha  occ. eigenvalues --   -0.13340  -0.10007   0.04632
 Alpha virt. eigenvalues --    0.06616   0.07484   0.07628   0.08722   0.09392
 Alpha virt. eigenvalues --    0.09501   0.10043   0.10339   0.11520   0.11820
 Alpha virt. eigenvalues --    0.12057   0.12805   0.12885   0.13420   0.13998

  Beta  occ. eigenvalues --  -19.04873 -14.23247 -14.22938 -10.13842 -10.11258
  Beta  occ. eigenvalues --  -10.09777 -10.08028 -10.06979 -10.06238 -10.05751
  Beta  occ. eigenvalues --  -10.05639 -10.05220  -0.96851  -0.88925  -0.72419
  Beta  occ. eigenvalues --   -0.70558  -0.67054  -0.61041  -0.59832  -0.58088
  Beta  occ. eigenvalues --   -0.55147  -0.51219  -0.46286  -0.45055  -0.42189
  Beta  occ. eigenvalues --   -0.39098  -0.36631  -0.35875  -0.35607  -0.34543
  Beta  occ. eigenvalues --   -0.32993  -0.31627  -0.31061  -0.29966  -0.29431
  Beta  occ. eigenvalues --   -0.28707  -0.28191  -0.27981  -0.26445  -0.25121
  Beta  occ. eigenvalues --   -0.23713  -0.23197  -0.22507  -0.22114  -0.17318
  Beta  occ. eigenvalues --   -0.13289  -0.09965
  Beta virt. eigenvalues --    0.06715   0.07592   0.08015   0.08237   0.09273
  Beta virt. eigenvalues --    0.09774   0.10101   0.10466   0.10765   0.11981
  Beta virt. eigenvalues --    0.12335   0.12354   0.13026   0.13145   0.13685

 Mulliken charges and spin densities:
               1          2
     1  C    0.943424  -1.445885
     2  C   -0.222073   1.169072
     3  C   -0.377871  -0.342869
     4  N   -0.487582   0.146316
     5  N    0.429510  -0.090717
     6  C   -0.850979  -0.152911
     7  C   -0.689941   1.258665
     8  C    0.422425  -1.071339
     9  C    0.318422  -1.077787
    10  C    0.719671  -1.001053
    11  O   -0.233298   0.074897
    12  C    1.246423  -1.542352
    13  H   -0.128984   0.281017
    14  H    0.054442   0.076441
    15  H   -0.048062   0.224197
    16  H    0.061972   0.234069
    17  H   -0.076515   0.302395
    18  H   -0.145769   0.304303
    19  H   -0.124199   0.251712
    20  H   -0.055658   0.192447
    21  H    0.045787   0.114355
    22  H    0.008368   0.115033
    23  H   -0.207508   0.347234
    24  H   -0.096827   0.240567
    25  H   -0.021370   0.158124
    26  H   -0.166106   0.290816
    27  H   -0.177998   0.340904
    28  H   -0.373133   0.532869
    29  H   -0.349369   0.504904
    30  H   -0.417203   0.564578
 Sum of Mulliken charges =  -1.00000   1.00000

 Dipole moment (field-independent basis, Debye):
    X=              2.4954    Y=             -0.6782    Z=             -0.5085  Tot=              2.6354
 Quadrupole moment (field-independent basis, Debye-Ang):
   XX=           -147.8150   YY=           -116.9539   ZZ=           -110.9189
   XY=              2.0168   XZ=             -1.0876   YZ=             -0.4291

 Summary of Natural Population Analysis:

                                       Natural Population
                Natural  -----------------------------------------------
    Atom  No    Charge         Core      Valence    Rydberg      Total
 -----------------------------------------------------------------------
      C    1   -0.28920      0.99963     2.28475    0.00482     3.28920
      C    2   -0.07765      0.99939     2.06553    0.01273     3.07765
      C    3    0.24206      0.99925     1.74139    0.01729     2.75794
      N    4   -0.25111      0.99970     2.73815    0.01326     3.75111
      N    5   -0.19253      0.99974     2.67750    0.01529     3.69253
      C    6   -0.00349      0.99954     1.99041    0.01354     3.00349
      C    7   -0.11655      0.99959     2.10441    0.01256     3.11655
      C    8   -0.28458      0.99965     2.27977    0.00517     3.28458
      C    9   -0.28381      0.99965     2.27928    0.00488     3.28381
      C   10   -0.17402      0.99964     2.16663    0.00776     3.17402
      O   11   -0.28158      0.99985     3.27165    0.01008     4.28158
      C   12   -0.09736      0.99959     2.08882    0.00895     3.09736
      H   13    0.10024      0.00000     0.39830    0.00146     0.39976
      H   14    0.09865      0.00000     0.39984    0.00151     0.40135
      H   15    0.10825      0.00000     0.39043    0.00132     0.39175
      H   16    0.18209      0.00000     0.31525    0.00266     0.31791
      H   17    0.09418      0.00000     0.40347    0.00234     0.40582
      H   18    0.09370      0.00000     0.40427    0.00203     0.40630
      H   19    0.09375      0.00000     0.40507    0.00118     0.40625
      H   20    0.09640      0.00000     0.40262    0.00098     0.40360
      H   21    0.10669      0.00000     0.39172    0.00159     0.39331
      H   22    0.10026      0.00000     0.39859    0.00115     0.39974
      H   23    0.09859      0.00000     0.40039    0.00102     0.40141
      H   24    0.09619      0.00000     0.40270    0.00111     0.40381
      H   25    0.08505      0.00000     0.41288    0.00206     0.41495
      H   26    0.09317      0.00000     0.40549    0.00134     0.40683
      H   27    0.09857      0.00000     0.39987    0.00157     0.40143
      H   28    0.08520      0.00000     0.41259    0.00221     0.41480
      H   29    0.08873      0.00000     0.40911    0.00216     0.41127
      H   30    0.09013      0.00000     0.40813    0.00174     0.40987
 =======================================================================
   * Total *    0.00000     11.99521    34.84902    0.15577    47.00000

 Normal termination of Gaussian 16 at Wed Dec  9 17:15:22 2020.
