 Gaussian 16, Revision A.03,

 -----------------------------------------------------------
 # opt freq B3LYP/6-31G(d) empiricaldispersion=gd3bj scf=xqc
 -----------------------------------------------------------

 ------------------------------
 CID_91489620_JID_5370_neutraal
 ------------------------------
 Symbolic Z-matrix:
 Charge =  0 Multiplicity = 1

 SCF Done:  E(RB3LYP) =  -739.571648597     A.U. after   15 cycles
 SCF Done:  E(RB3LYP) =  -739.576771496     A.U. after   12 cycles
 SCF Done:  E(RB3LYP) =  -739.577419896     A.U. after   13 cycles
 SCF Done:  E(RB3LYP) =  -739.577885799     A.U. after   12 cycles
 SCF Done:  E(RB3LYP) =  -739.578093077     A.U. after   12 cycles
 SCF Done:  E(RB3LYP) =  -739.578529759     A.U. after   13 cycles
 SCF Done:  E(RB3LYP) =  -739.578870575     A.U. after   12 cycles
 SCF Done:  E(RB3LYP) =  -739.579147330     A.U. after   13 cycles
 SCF Done:  E(RB3LYP) =  -739.579177734     A.U. after   10 cycles
 SCF Done:  E(RB3LYP) =  -739.579186900     A.U. after    9 cycles
 SCF Done:  E(RB3LYP) =  -739.579197954     A.U. after   10 cycles
 SCF Done:  E(RB3LYP) =  -739.579199627     A.U. after    9 cycles
 SCF Done:  E(RB3LYP) =  -739.579199995     A.U. after    8 cycles
 SCF Done:  E(RB3LYP) =  -739.579200465     A.U. after    9 cycles
 SCF Done:  E(RB3LYP) =  -739.579200604     A.U. after    8 cycles
 SCF Done:  E(RB3LYP) =  -739.579200634     A.U. after    7 cycles
 Optimization completed.
    -- Stationary point found.
 Normal termination of Gaussian 16 at Thu Dec 10 15:55:15 2020.

 --------------------------------------------------------------------
 #N Geom=AllCheck Guess=TCheck SCRF=Check GenChk RB3LYP/6-31G(d) Freq
 --------------------------------------------------------------------

 Structure from the checkpoint file:  "JID_5370.chk"
 ------------------------------
 CID_91489620_JID_5370_neutraal
 ------------------------------
 Charge =  0 Multiplicity = 1

 SCF Done:  E(RB3LYP) =  -739.579200634     A.U. after    1 cycles

  Exact polarizability: 210.881  -4.981 120.264  -4.554   1.380  63.824
 Approx polarizability: 305.658 -25.213 201.194 -13.214   1.056  95.830

                      1                      2                      3
                      A                      A                      A
 Frequencies --     27.1984                43.6194                49.3306
 Red. masses --      3.8096                 4.0930                 5.9617
 Frc consts  --      0.0017                 0.0046                 0.0085
 IR Inten    --      1.1385                 4.7026                 2.7375

                      4                      5                      6
                      A                      A                      A
 Frequencies --     66.6463               102.6733               146.3571
 Red. masses --      8.3769                 6.1336                 5.4618
 Frc consts  --      0.0219                 0.0381                 0.0689
 IR Inten    --      2.3538                 1.6085                 1.1331

                      7                      8                      9
                      A                      A                      A
 Frequencies --    160.5020               174.2321               187.2955
 Red. masses --      1.1776                 3.4913                 1.0322
 Frc consts  --      0.0179                 0.0624                 0.0213
 IR Inten    --      0.1275                 1.0799                 0.5969

                     10                     11                     12
                      A                      A                      A
 Frequencies --    261.2848               274.8391               302.7454
 Red. masses --      5.2007                 5.2241                 1.1226
 Frc consts  --      0.2092                 0.2325                 0.0606
 IR Inten    --      0.6792                 6.2833               117.7754

                     13                     14                     15
                      A                      A                      A
 Frequencies --    318.2938               336.3337               403.4796
 Red. masses --      4.3049                 5.4459                 5.8826
 Frc consts  --      0.2570                 0.3630                 0.5642
 IR Inten    --     12.6919                 5.4142                 0.3319

                     16                     17                     18
                      A                      A                      A
 Frequencies --    436.6292               468.0225               491.3822
 Red. masses --      5.4230                 4.4605                 3.7279
 Frc consts  --      0.6091                 0.5757                 0.5303
 IR Inten    --     12.5075                 3.1856                23.8702

                     19                     20                     21
                      A                      A                      A
 Frequencies --    515.5801               521.3739               559.0856
 Red. masses --      1.6543                 3.4626                 2.0926
 Frc consts  --      0.2591                 0.5546                 0.3854
 IR Inten    --     44.0479                16.8252                 0.5435

                     22                     23                     24
                      A                      A                      A
 Frequencies --    561.3167               592.0565               615.9344
 Red. masses --      5.6237                 4.7622                 3.5242
 Frc consts  --      1.0440                 0.9835                 0.7877
 IR Inten    --      3.2734                 4.6888                10.2435

                     25                     26                     27
                      A                      A                      A
 Frequencies --    640.7123               688.1518               712.6574
 Red. masses --      2.1242                 5.7668                 1.2613
 Frc consts  --      0.5138                 1.6090                 0.3774
 IR Inten    --     74.7254                 3.3031                94.7077

                     28                     29                     30
                      A                      A                      A
 Frequencies --    750.6493               771.2550               815.3186
 Red. masses --      7.2923                 4.8546                 4.8899
 Frc consts  --      2.4210                 1.7014                 1.9152
 IR Inten    --      1.0884                 3.7685                 1.4233

                     31                     32                     33
                      A                      A                      A
 Frequencies --    869.6292               871.6623               908.5045
 Red. masses --      4.5538                 1.4289                 1.4156
 Frc consts  --      2.0290                 0.6396                 0.6884
 IR Inten    --      1.8443                25.8127                 4.2399

                     34                     35                     36
                      A                      A                      A
 Frequencies --    958.5647              1033.4889              1036.5539
 Red. masses --      4.2858                 1.7873                 1.8840
 Frc consts  --      2.3202                 1.1247                 1.1926
 IR Inten    --      1.8900                81.0689                10.7468

                     37                     38                     39
                      A                      A                      A
 Frequencies --   1041.2955              1067.4183              1072.9337
 Red. masses --      2.1277                 1.7222                 1.7287
 Frc consts  --      1.3593                 1.1561                 1.1725
 IR Inten    --      3.4896                 9.1192                 6.8417

                     40                     41                     42
                      A                      A                      A
 Frequencies --   1160.4814              1217.1840              1240.4083
 Red. masses --      2.5238                 1.5025                 2.2031
 Frc consts  --      2.0025                 1.3115                 1.9972
 IR Inten    --    159.9119                45.7782               142.2520

                     43                     44                     45
                      A                      A                      A
 Frequencies --   1313.7157              1323.5647              1340.3082
 Red. masses --      2.2610                 3.3824                 2.0989
 Frc consts  --      2.2991                 3.4911                 2.2215
 IR Inten    --    143.5843               635.7902                87.6358

                     46                     47                     48
                      A                      A                      A
 Frequencies --   1358.5511              1373.9818              1425.8097
 Red. masses --      2.3402                 2.6943                 1.3773
 Frc consts  --      2.5448                 2.9968                 1.6497
 IR Inten    --    117.4927                17.0415                96.5915

                     49                     50                     51
                      A                      A                      A
 Frequencies --   1432.2420              1468.4313              1478.0484
 Red. masses --      1.3999                 3.6609                 1.1351
 Frc consts  --      1.6919                 4.6510                 1.4610
 IR Inten    --     67.9665                50.4265                19.4389

                     52                     53                     54
                      A                      A                      A
 Frequencies --   1488.2711              1501.8831              1502.6653
 Red. masses --      1.8260                 1.0461                 1.0761
 Frc consts  --      2.3830                 1.3903                 1.4316
 IR Inten    --     12.5369                 8.6988                11.7742

                     55                     56                     57
                      A                      A                      A
 Frequencies --   1516.7130              1529.3790              1559.6687
 Red. masses --      1.0823                 2.2286                 3.9057
 Frc consts  --      1.4669                 3.0712                 5.5977
 IR Inten    --     13.1658                47.5358               531.2658

                     58                     59                     60
                      A                      A                      A
 Frequencies --   1639.5637              1671.6248              1797.2060
 Red. masses --      5.7586                 6.7067                 7.8523
 Frc consts  --      9.1206                11.0417                14.9431
 IR Inten    --     51.7625                36.0568               936.5160

                     61                     62                     63
                      A                      A                      A
 Frequencies --   1803.0692              3067.0292              3082.6247
 Red. masses --      8.0717                 1.0404                 1.0348
 Frc consts  --     15.4611                 5.7663                 5.7934
 IR Inten    --     31.8533                 4.0212                 1.8835

                     64                     65                     66
                      A                      A                      A
 Frequencies --   3135.5934              3149.8437              3176.4019
 Red. masses --      1.0963                 1.0995                 1.1033
 Frc consts  --      6.3505                 6.4275                 6.5586
 IR Inten    --      8.2672                 4.0329                 8.9073

                     67                     68                     69
                      A                      A                      A
 Frequencies --   3179.2270              3180.6098              3203.6577
 Red. masses --      1.0963                 1.1009                 1.0913
 Frc consts  --      6.5287                 6.5620                 6.5990
 IR Inten    --     28.0070                11.7258                 7.6769

                     70                     71                     72
                      A                      A                      A
 Frequencies --   3582.7034              3593.0363              3756.2388
 Red. masses --      1.0755                 1.0756                 1.0663
 Frc consts  --      8.1335                 8.1812                 8.8641
 IR Inten    --     29.9640                51.3419                53.0078

 - Thermochemistry -
 -------------------
 Temperature   298.150 Kelvin.  Pressure   1.00000 Atm.
 Atom     1 has atomic number  6 and mass  12.00000

 Molecular mass:   209.08004 amu.
 Principal axes and moments of inertia in atomic units:
                           1         2         3
     Eigenvalues --  1148.606296717.134197578.79838
           X            0.99984   0.01731   0.00466
           Y           -0.01734   0.99982   0.00702
           Z           -0.00454  -0.00710   0.99996
 This molecule is an asymmetric top.
 Rotational symmetry number  1.
 Warning -- assumption of classical behavior for rotation
           may cause significant error
 Rotational temperatures (Kelvin)      0.07541     0.01289     0.01143
 Rotational constants (GHZ):           1.57124     0.26868     0.23813
 Zero-point vibrational energy     532964.7 (Joules/Mol)
                                  127.38163 (Kcal/Mol)
 Warning -- explicit consideration of  24 degrees of freedom as
           vibrations may cause significant error
 Vibrational temperatures:     39.13    62.76    70.98    95.89   147.72
          (Kelvin)            210.58   230.93   250.68   269.48   375.93
                              395.43   435.58   457.95   483.91   580.52
                              628.21   673.38   706.99   741.80   750.14
                              804.40   807.61   851.84   886.19   921.84
                              990.10  1025.35  1080.02  1109.66  1173.06
                             1251.20  1254.13  1307.14  1379.16  1486.96
                             1491.37  1498.19  1535.78  1543.71  1669.67
                             1751.26  1784.67  1890.14  1904.31  1928.40
                             1954.65  1976.85  2051.42  2060.68  2112.75
                             2126.58  2141.29  2160.87  2162.00  2182.21
                             2200.44  2244.02  2358.97  2405.10  2585.78
                             2594.21  4412.77  4435.21  4511.42  4531.92
                             4570.13  4574.20  4576.19  4609.35  5154.71
                             5169.58  5404.39

 Zero-point correction=                           0.202996 (Hartree/Particle)
 Thermal correction to Energy=                    0.217807
 Thermal correction to Enthalpy=                  0.218751
 Thermal correction to Gibbs Free Energy=         0.159643
 Sum of electronic and zero-point Energies=           -739.376205
 Sum of electronic and thermal Energies=              -739.361393
 Sum of electronic and thermal Enthalpies=            -739.360449
 Sum of electronic and thermal Free Energies=         -739.419558

                     E (Thermal)             CV                S
                      KCal/Mol        Cal/Mol-Kelvin    Cal/Mol-Kelvin
 Total                  136.676             54.326            124.404
 Electronic               0.000              0.000              0.000
 Translational            0.889              2.981             41.916
 Rotational               0.889              2.981             32.436
 Vibrational            134.899             48.364             50.052
 Vibration     1          0.593              1.984              6.024
 Vibration     2          0.595              1.980              5.088
 Vibration     3          0.595              1.978              4.844
 Vibration     4          0.598              1.970              4.250
 Vibration     5          0.605              1.947              3.403
 Vibration     6          0.617              1.907              2.719
 Vibration     7          0.622              1.891              2.544
 Vibration     8          0.627              1.874              2.389
 Vibration     9          0.632              1.857              2.254
 Vibration    10          0.669              1.744              1.653
 Vibration    11          0.677              1.720              1.566
 Vibration    12          0.694              1.668              1.402
 Vibration    13          0.705              1.639              1.319
 Vibration    14          0.717              1.603              1.229
 Vibration    15          0.769              1.463              0.950
 Vibration    16          0.797              1.390              0.837
 Vibration    17          0.825              1.321              0.743
 Vibration    18          0.847              1.269              0.680
 Vibration    19          0.871              1.215              0.620
 Vibration    20          0.876              1.203              0.607
 Vibration    21          0.915              1.120              0.526
 Vibration    22          0.917              1.115              0.521
 Vibration    23          0.950              1.049              0.464
 Vibration    24          0.976              0.998              0.423

 Optimization completed.
    -- Stationary point found.
 Normal termination of Gaussian 16 at Thu Dec 10 16:02:27 2020.

 ----------------------------------------------------------------------
 # B3LYP/6-311++G(d,p) empiricaldispersion=gd3bj scf=xqc pop=npa geom=c
 heck
 ----------------------------------------------------------------------

 --------------------------------------
 CID_91489620_JID_5370_Energie_neutraal
 --------------------------------------
 Structure from the checkpoint file:  "JID_5370.chk"
 Charge =  0 Multiplicity = 1

 SCF Done:  E(RB3LYP) =  -739.804144589     A.U. after   15 cycles
 Normal termination of Gaussian 16 at Thu Dec 10 16:05:03 2020.

 ----------------------------------------------------------------------
 # B3LYP/6-311++G(d,p) empiricaldispersion=gd3bj scf=xqc pop=npa geom=c
 heck
 ----------------------------------------------------------------------

 ------------------------------------
 CID_91489620_JID_5370_Energie_kation
 ------------------------------------
 Structure from the checkpoint file:  "JID_5370.chk"
 Charge =  1 Multiplicity = 2

 SCF Done:  E(UB3LYP) =  -739.507748248     A.U. after   23 cycles
 Normal termination of Gaussian 16 at Thu Dec 10 16:11:45 2020.
 Gaussian 16:  ES64L-G16RevA.03 25-Dec-2016

 ----------------------------------------------------------------------
 # B3LYP/6-311++G(d,p) empiricaldispersion=gd3bj scf=xqc pop=npa geom=c
 heck
 ----------------------------------------------------------------------

 -----------------------------------
 CID_91489620_JID_5370_Energie_anion
 -----------------------------------
 Structure from the checkpoint file:  "JID_5370.chk"
 Charge = -1 Multiplicity = 2

                         Standard orientation:
 ---------------------------------------------------------------------
 Center     Atomic      Atomic             Coordinates (Angstroms)
 Number     Number       Type             X           Y           Z
 ---------------------------------------------------------------------
      1          6           0        3.709359    0.813478    1.160896
      2          6           0        3.894779   -0.296211    0.142744
      3          8           0        4.987993   -0.778627   -0.106821
      4          7           0        2.768598   -0.764390   -0.514321
      5          6           0        1.414612   -0.397892   -0.358584
      6          6           0        0.988469    0.940000   -0.426719
      7          6           0       -0.355946    1.226956   -0.283224
      8          6           0       -1.274657    0.158816   -0.111073
      9          7           0       -0.868936   -1.104589   -0.078003
     10          6           0        0.437227   -1.375479   -0.185888
     11          7           0       -2.617235    0.494532    0.017973
     12          6           0       -3.772562   -0.269659    0.192996
     13          8           0       -4.838957    0.318767    0.273532
     14          6           0       -3.653713   -1.771467    0.274644
     15          8           0       -0.885003    2.487400   -0.319256
     16          1           0        4.546128    0.759972    1.858847
     17          1           0        2.762794    0.739835    1.702486
     18          1           0        3.745739    1.791685    0.667818
     19          1           0        2.967939   -1.577095   -1.086334
     20          1           0        1.704150    1.736735   -0.605807
     21          1           0        0.719539   -2.425064   -0.135951
     22          1           0       -2.819851    1.486748   -0.024305
     23          1           0       -3.196192   -2.179165   -0.630571
     24          1           0       -3.006929   -2.069989    1.103818
     25          1           0       -4.659481   -2.171907    0.409781
     26          1           0       -0.178497    3.137794   -0.453722
 ---------------------------------------------------------------------

 SCF Done:  E(UB3LYP) =  -739.809316805     A.U. after   30 cycles

 The electronic state is 2-A.
 Alpha  occ. eigenvalues --  -19.05210 -18.98946 -18.98379 -14.24484 -14.23734
 Alpha  occ. eigenvalues --  -14.18864 -10.17513 -10.16893 -10.13186 -10.12722
 Alpha  occ. eigenvalues --  -10.10476 -10.09352 -10.07286 -10.06861 -10.06565
 Alpha  occ. eigenvalues --   -0.96384  -0.94319  -0.93802  -0.85836  -0.83263
 Alpha  occ. eigenvalues --   -0.79447  -0.68519  -0.65214  -0.64173  -0.62961
 Alpha  occ. eigenvalues --   -0.55847  -0.53864  -0.48844  -0.46576  -0.45759
 Alpha  occ. eigenvalues --   -0.44078  -0.40294  -0.39150  -0.37489  -0.36011
 Alpha  occ. eigenvalues --   -0.35327  -0.34873  -0.34125  -0.32233  -0.31372
 Alpha  occ. eigenvalues --   -0.30823  -0.30457  -0.29920  -0.29502  -0.27901
 Alpha  occ. eigenvalues --   -0.27132  -0.26762  -0.26163  -0.22259  -0.18217
 Alpha  occ. eigenvalues --   -0.16858  -0.15973  -0.15430  -0.14956  -0.10367
 Alpha  occ. eigenvalues --    0.04020
 Alpha virt. eigenvalues --    0.06369   0.07727   0.08407   0.08580   0.09312
 Alpha virt. eigenvalues --    0.10229   0.10743   0.11456   0.11720   0.12208
 Alpha virt. eigenvalues --    0.12809   0.13113   0.13607   0.14105   0.14464

  Beta  occ. eigenvalues --  -19.05150 -18.98894 -18.98277 -14.24511 -14.23775
  Beta  occ. eigenvalues --  -14.18634 -10.17448 -10.16798 -10.13229 -10.12553
  Beta  occ. eigenvalues --  -10.10377 -10.09387 -10.07263 -10.06866 -10.06344
  Beta  occ. eigenvalues --   -0.96261  -0.94221  -0.93624  -0.85583  -0.83188
  Beta  occ. eigenvalues --   -0.79295  -0.68188  -0.65034  -0.64082  -0.62881
  Beta  occ. eigenvalues --   -0.55550  -0.53750  -0.48750  -0.46407  -0.45573
  Beta  occ. eigenvalues --   -0.44006  -0.40212  -0.38998  -0.37383  -0.35900
  Beta  occ. eigenvalues --   -0.34993  -0.34715  -0.33997  -0.31893  -0.31298
  Beta  occ. eigenvalues --   -0.30734  -0.30381  -0.29881  -0.29378  -0.27785
  Beta  occ. eigenvalues --   -0.26938  -0.26624  -0.25717  -0.21699  -0.17899
  Beta  occ. eigenvalues --   -0.16683  -0.15873  -0.15084  -0.14381  -0.09914
  Beta virt. eigenvalues --    0.07326   0.08102   0.08249   0.08518   0.09169
  Beta virt. eigenvalues --    0.09351   0.10516   0.11071   0.11573   0.11895
  Beta virt. eigenvalues --    0.12358   0.12908   0.13369   0.13744   0.14386

 Mulliken charges and spin densities:
               1          2
     1  C    0.030926  -0.466492
     2  C    0.088964   0.018393
     3  O   -0.376065   0.023194
     4  N   -0.189037  -0.012643
     5  C   -0.357590  -0.166383
     6  C   -0.745691   1.360628
     7  C    0.879672  -1.059179
     8  C    0.787796  -0.937715
     9  N   -0.193861   0.128079
    10  C   -0.407449   0.383114
    11  N   -0.117409  -0.083984
    12  C    0.150626  -0.017760
    13  O   -0.362568   0.035868
    14  C   -0.409865   0.006891
    15  O   -0.289130   0.011349
    16  H    0.130369   0.028972
    17  H    0.065089   0.106617
    18  H   -0.269500   0.458374
    19  H    0.282117  -0.002231
    20  H   -0.112982   0.269393
    21  H    0.145744   0.016133
    22  H    0.374892  -0.010375
    23  H    0.162252   0.005073
    24  H    0.163475   0.004852
    25  H    0.163689  -0.002178
    26  H   -0.594462   0.902010
 Sum of Mulliken charges =  -1.00000   1.00000

 Dipole moment (field-independent basis, Debye):
    X=             -0.7151    Y=             -6.1984    Z=             -0.1300  Tot=              6.2409
 Quadrupole moment (field-independent basis, Debye-Ang):
   XX=           -180.1865   YY=           -125.3423   ZZ=            -97.5596
   XY=              2.2818   XZ=              2.1741   YZ=              0.6767

 Summary of Natural Population Analysis:

                                       Natural Population
                Natural  -----------------------------------------------
    Atom  No    Charge         Core      Valence    Rydberg      Total
 -----------------------------------------------------------------------
      C    1   -0.33613      0.99962     2.33168    0.00483     3.33613
      C    2    0.35094      0.99971     1.62660    0.02275     2.64906
      O    3   -0.32266      0.99987     3.31680    0.00599     4.32266
      N    4   -0.31943      0.99965     2.81015    0.00964     3.81943
      C    5    0.05808      0.99947     1.93126    0.01120     2.94192
      C    6   -0.09298      0.99948     2.08362    0.00988     3.09298
      C    7    0.13304      0.99936     1.85411    0.01349     2.86696
      C    8    0.19520      0.99950     1.78909    0.01621     2.80480
      N    9   -0.22298      0.99967     2.71315    0.01017     3.72298
      C   10    0.00089      0.99954     1.98670    0.01287     2.99911
      N   11   -0.31782      0.99964     2.80938    0.00880     3.81782
      C   12    0.35725      0.99972     1.62135    0.02168     2.64275
      O   13   -0.31266      0.99988     3.30665    0.00614     4.31266
      C   14   -0.33261      0.99963     2.32912    0.00386     3.33261
      O   15   -0.34949      0.99987     3.34193    0.00769     4.34949
      H   16    0.10897      0.00000     0.39030    0.00073     0.39103
      H   17    0.11140      0.00000     0.38782    0.00079     0.38860
      H   18    0.11684      0.00000     0.38133    0.00183     0.38316
      H   19    0.19512      0.00000     0.30295    0.00193     0.30488
      H   20    0.10619      0.00000     0.39220    0.00161     0.39381
      H   21    0.08459      0.00000     0.41436    0.00104     0.41541
      H   22    0.20767      0.00000     0.28969    0.00263     0.29233
      H   23    0.11591      0.00000     0.38327    0.00082     0.38409
      H   24    0.11595      0.00000     0.38324    0.00082     0.38405
      H   25    0.10188      0.00000     0.39717    0.00095     0.39812
      H   26    0.24686      0.00000     0.22954    0.02360     0.25314
 =======================================================================
   * Total *   -0.00000     14.99462    39.80343    0.20195    55.00000

 Normal termination of Gaussian 16 at Thu Dec 10 16:21:02 2020.
