 Gaussian 16, Revision A.03,

 -----------------------------------------------------------
 # opt freq B3LYP/6-31G(d) empiricaldispersion=gd3bj scf=xqc
 -----------------------------------------------------------

 -------------------------------
 CID_147541611_JID_1340_neutraal
 -------------------------------
 Symbolic Z-matrix:
 Charge =  0 Multiplicity = 1

 SCF Done:  E(RB3LYP) =  -1146.43024001     A.U. after   18 cycles
 SCF Done:  E(RB3LYP) =  -1146.45902812     A.U. after   14 cycles
 SCF Done:  E(RB3LYP) =  -1146.46868030     A.U. after   14 cycles
 SCF Done:  E(RB3LYP) =  -1146.47126698     A.U. after   13 cycles
 SCF Done:  E(RB3LYP) =  -1146.47103477     A.U. after   12 cycles
 SCF Done:  E(RB3LYP) =  -1146.47172608     A.U. after   11 cycles
 SCF Done:  E(RB3LYP) =  -1146.47181339     A.U. after   11 cycles
 SCF Done:  E(RB3LYP) =  -1146.47186840     A.U. after   11 cycles
 SCF Done:  E(RB3LYP) =  -1146.47191999     A.U. after   11 cycles
 SCF Done:  E(RB3LYP) =  -1146.47196261     A.U. after   11 cycles
 SCF Done:  E(RB3LYP) =  -1146.47196468     A.U. after   10 cycles
 SCF Done:  E(RB3LYP) =  -1146.47196500     A.U. after    8 cycles
 SCF Done:  E(RB3LYP) =  -1146.47196504     A.U. after    8 cycles
 SCF Done:  E(RB3LYP) =  -1146.47196514     A.U. after    7 cycles
 Optimization completed.
    -- Stationary point found.

 1\1\GINC-NODE108\FOpt\RB3LYP\6-31G(d)\C9H12S2\VSC10255\08-Dec-2020\0\\
 # opt freq B3LYP/6-31G(d) empiricaldispersion=gd3bj scf=xqc\\CID_14754
 1611_JID_1340_neutraal\\0,1\C,1.0354865657,-0.0436104366,-0.0400203729
 \C,0.6390883303,0.0975762352,-1.4752826405\C,0.4384541214,1.2315419355
 ,-2.171637753\C,0.2213014514,0.9520158012,-3.6239862149\C,-0.505161983
 1,-0.3778427667,-3.6770214248\S,0.4375054822,-1.4075698425,-2.46164510
 09\C,-0.6878774649,-0.6810707916,-5.1359506093\C,-0.8748555,0.42501991
 36,-5.8654056285\S,-0.7817273436,1.9897462966,-4.8517138494\C,0.043264

 Normal termination of Gaussian 16 at Tue Dec  8 19:47:17 2020.

 --------------------------------------------------------------------
 #N Geom=AllCheck Guess=TCheck SCRF=Check GenChk RB3LYP/6-31G(d) Freq
 --------------------------------------------------------------------

 Structure from the checkpoint file:  "JID_1340.chk"
 -------------------------------
 CID_147541611_JID_1340_neutraal
 -------------------------------
 Charge =  0 Multiplicity = 1

 SCF Done:  E(RB3LYP) =  -1146.47196514     A.U. after    1 cycles

  Exact polarizability: 180.083  16.605 133.509   4.742   0.706  79.065
 Approx polarizability: 257.784  49.424 225.217   8.128   0.905 131.632

                      1                      2                      3
                      A                      A                      A
 Frequencies --     85.6245                99.0771               116.6524
 Red. masses --      3.7014                 3.8338                 1.9616
 Frc consts  --      0.0160                 0.0222                 0.0157
 IR Inten    --      2.8895                 2.5569                 1.0174

                      4                      5                      6
                      A                      A                      A
 Frequencies --    129.6302               166.6912               189.7556
 Red. masses --      1.4719                 1.4319                 2.0520
 Frc consts  --      0.0146                 0.0234                 0.0435
 IR Inten    --      4.4542                 0.5370                 0.2409

                      7                      8                      9
                      A                      A                      A
 Frequencies --    201.3091               259.7667               282.2491
 Red. masses --      2.9733                 3.2066                 3.3393
 Frc consts  --      0.0710                 0.1275                 0.1567
 IR Inten    --      2.9872                 0.8927                 2.1338

                     10                     11                     12
                      A                      A                      A
 Frequencies --    323.2488               355.4657               359.8769
 Red. masses --      6.5385                 1.7622                 2.6109
 Frc consts  --      0.4025                 0.1312                 0.1992
 IR Inten    --      9.5949                33.0180                21.9066

                     13                     14                     15
                      A                      A                      A
 Frequencies --    411.1880               421.6298               485.9687
 Red. masses --      3.6666                 2.8498                 3.2709
 Frc consts  --      0.3652                 0.2985                 0.4551
 IR Inten    --     13.3026                19.6962                17.0007

                     16                     17                     18
                      A                      A                      A
 Frequencies --    489.9035               530.4262               558.8541
 Red. masses --      2.7191                 3.6977                 1.5441
 Frc consts  --      0.3845                 0.6130                 0.2841
 IR Inten    --     44.4972                 7.2577                23.4949

                     19                     20                     21
                      A                      A                      A
 Frequencies --    573.7755               616.5416               659.0813
 Red. masses --      3.7566                 5.5559                 2.3172
 Frc consts  --      0.7287                 1.2443                 0.5930
 IR Inten    --      5.9551                10.4595                 2.4566

                     22                     23                     24
                      A                      A                      A
 Frequencies --    746.7530               774.5442               802.3947
 Red. masses --      5.6965                 1.7982                 1.8190
 Frc consts  --      1.8716                 0.6356                 0.6900
 IR Inten    --      1.6921                14.1523                20.2714

                     25                     26                     27
                      A                      A                      A
 Frequencies --    838.6145               976.4756               984.5400
 Red. masses --      2.0453                 1.9143                 2.7547
 Frc consts  --      0.8475                 1.0754                 1.5732
 IR Inten    --     13.0920                41.6397                 8.7882

                     28                     29                     30
                      A                      A                      A
 Frequencies --    996.9838              1006.9433              1028.6330
 Red. masses --      2.3102                 1.8414                 1.6190
 Frc consts  --      1.3530                 1.1001                 1.0093
 IR Inten    --     27.0452                10.9254                10.1063

                     31                     32                     33
                      A                      A                      A
 Frequencies --   1073.6986              1075.0085              1087.6205
 Red. masses --      1.4582                 1.4693                 1.4991
 Frc consts  --      0.9904                 1.0004                 1.0448
 IR Inten    --      2.3292                 1.0377                11.2440

                     34                     35                     36
                      A                      A                      A
 Frequencies --   1131.1402              1156.2772              1160.4705
 Red. masses --      2.7763                 3.5524                 2.6466
 Frc consts  --      2.0929                 2.7983                 2.0999
 IR Inten    --      0.3378                15.9436                 4.9676

                     37                     38                     39
                      A                      A                      A
 Frequencies --   1191.9483              1266.6391              1280.8900
 Red. masses --      1.5018                 1.2964                 1.6178
 Frc consts  --      1.2571                 1.2254                 1.5639
 IR Inten    --      4.0531                12.4510                 8.4044

                     40                     41                     42
                      A                      A                      A
 Frequencies --   1297.7722              1324.2204              1369.5772
 Red. masses --      1.4190                 1.2409                 1.6216
 Frc consts  --      1.4081                 1.2821                 1.7922
 IR Inten    --      7.7384                48.0001                 1.6428

                     43                     44                     45
                      A                      A                      A
 Frequencies --   1431.7528              1433.5905              1440.4633
 Red. masses --      1.1832                 1.1811                 1.2534
 Frc consts  --      1.4290                 1.4302                 1.5323
 IR Inten    --      1.5514                 2.9353                 0.5274

                     46                     47                     48
                      A                      A                      A
 Frequencies --   1491.8442              1503.0463              1515.0766
 Red. masses --      1.0420                 1.0427                 1.0579
 Frc consts  --      1.3663                 1.3879                 1.4308
 IR Inten    --      9.8074                 8.4970                 9.5191

                     49                     50                     51
                      A                      A                      A
 Frequencies --   1516.5566              1669.1352              1706.1404
 Red. masses --      1.0672                 7.1334                 7.9556
 Frc consts  --      1.4462                11.7093                13.6443
 IR Inten    --      3.6013                 4.8226                 2.3514

                     52                     53                     54
                      A                      A                      A
 Frequencies --   2997.5661              3010.5850              3043.3933
 Red. masses --      1.0805                 1.0847                 1.0378
 Frc consts  --      5.7202                 5.7923                 5.6633
 IR Inten    --      1.8268                24.2214                23.1780

                     55                     56                     57
                      A                      A                      A
 Frequencies --   3045.4864              3099.9512              3101.8866
 Red. masses --      1.0361                 1.1007                 1.0970
 Frc consts  --      5.6618                 6.2319                 6.2188
 IR Inten    --     25.6393                12.9877                 8.6078

                     58                     59                     60
                      A                      A                      A
 Frequencies --   3131.3302              3135.2953              3177.3554
 Red. masses --      1.1020                 1.1029                 1.0481
 Frc consts  --      6.3663                 6.3877                 6.2341
 IR Inten    --     13.4021                 7.1550                 2.6314

                     61                     62                     63
                      A                      A                      A
 Frequencies --   3198.0194              3215.3518              3296.0883
 Red. masses --      1.0929                 1.0923                 1.1203
 Frc consts  --      6.5853                 6.6535                 7.1708
 IR Inten    --     11.3125                 9.9652                 2.0948

 - Thermochemistry -
 -------------------
 Temperature   298.150 Kelvin.  Pressure   1.00000 Atm.
 Atom     1 has atomic number  6 and mass  12.00000

 Molecular mass:   184.03804 amu.
 Principal axes and moments of inertia in atomic units:
                           1         2         3
     Eigenvalues --  1012.765173271.289454121.83563
           X            0.99956  -0.02841   0.00810
           Y            0.02829   0.99949   0.01450
           Z           -0.00851  -0.01427   0.99986
 This molecule is an asymmetric top.
 Rotational symmetry number  1.
 Warning -- assumption of classical behavior for rotation
           may cause significant error
 Rotational temperatures (Kelvin)      0.08552     0.02648     0.02101
 Rotational constants (GHZ):           1.78199     0.55169     0.43785
 Zero-point vibrational energy     484773.4 (Joules/Mol)
                                  115.86361 (Kcal/Mol)
 Warning -- explicit consideration of  20 degrees of freedom as
           vibrations may cause significant error
 Vibrational temperatures:    123.19   142.55   167.84   186.51   239.83
          (Kelvin)            273.02   289.64   373.75   406.09   465.08
                              511.44   517.78   591.61   606.63   699.20
                              704.86   763.16   804.07   825.53   887.07
                              948.27  1074.41  1114.40  1154.47  1206.58
                             1404.93  1416.53  1434.44  1448.77  1479.97
                             1544.81  1546.70  1564.84  1627.46  1663.63
                             1669.66  1714.95  1822.41  1842.91  1867.20
                             1905.26  1970.52  2059.97  2062.62  2072.51
                             2146.43  2162.55  2179.86  2181.99  2401.51
                             2454.76  4312.83  4331.56  4378.76  4381.78
                             4460.14  4462.92  4505.29  4510.99  4571.51
                             4601.24  4626.17  4742.34

 Zero-point correction=                           0.184640 (Hartree/Particle)
 Thermal correction to Energy=                    0.196786
 Thermal correction to Enthalpy=                  0.197730
 Thermal correction to Gibbs Free Energy=         0.146900
 Sum of electronic and zero-point Energies=          -1146.287325
 Sum of electronic and thermal Energies=             -1146.275179
 Sum of electronic and thermal Enthalpies=           -1146.274235
 Sum of electronic and thermal Free Energies=        -1146.325066

                     E (Thermal)             CV                S
                      KCal/Mol        Cal/Mol-Kelvin    Cal/Mol-Kelvin
 Total                  123.485             46.000            106.981
 Electronic               0.000              0.000              0.000
 Translational            0.889              2.981             41.536
 Rotational               0.889              2.981             30.991
 Vibrational            121.707             40.038             34.454
 Vibration     1          0.601              1.959              3.758
 Vibration     2          0.604              1.950              3.472
 Vibration     3          0.608              1.936              3.155
 Vibration     4          0.612              1.924              2.952
 Vibration     5          0.624              1.883              2.472
 Vibration     6          0.633              1.854              2.230
 Vibration     7          0.638              1.838              2.121
 Vibration     8          0.668              1.746              1.663
 Vibration     9          0.681              1.707              1.520
 Vibration    10          0.708              1.629              1.294
 Vibration    11          0.731              1.564              1.142
 Vibration    12          0.734              1.555              1.123
 Vibration    13          0.775              1.446              0.922
 Vibration    14          0.784              1.423              0.886
 Vibration    15          0.842              1.281              0.694
 Vibration    16          0.846              1.272              0.684
 Vibration    17          0.885              1.183              0.586
 Vibration    18          0.914              1.120              0.526
 Vibration    19          0.930              1.088              0.497
 Vibration    20          0.976              0.997              0.422

                           ! Non-Optimized Parameters !

 1\1\GINC-NODE108\Freq\RB3LYP\6-31G(d)\C9H12S2\VSC10255\08-Dec-2020\0\\
 #N Geom=AllCheck Guess=TCheck SCRF=Check GenChk RB3LYP/6-31G(d) Freq\\
 CID_147541611_JID_1340_neutraal\\0,1\C,1.0354865657,-0.0436104366,-0.0
 400203729\C,0.6390883303,0.0975762352,-1.4752826405\C,0.4384541214,1.2
 315419355,-2.171637753\C,0.2213014514,0.9520158012,-3.6239862149\C,-0.
 5051619831,-0.3778427667,-3.6770214248\S,0.4375054822,-1.4075698425,-2
 .4616451009\C,-0.6878774649,-0.6810707916,-5.1359506093\C,-0.8748555,0
 .4250199136,-5.8654056285\S,-0.7817273436,1.9897462966,-4.8517138494\C

 Normal termination of Gaussian 16 at Tue Dec  8 19:52:24 2020.

 ----------------------------------------------------------------------
 # B3LYP/6-311++G(d,p) empiricaldispersion=gd3bj scf=xqc pop=npa geom=c
 heck
 ----------------------------------------------------------------------

 ---------------------------------------
 CID_147541611_JID_1340_Energie_neutraal
 ---------------------------------------
 Structure from the checkpoint file:  "JID_1340.chk"
 Charge =  0 Multiplicity = 1

 SCF Done:  E(RB3LYP) =  -1146.62365631     A.U. after   16 cycles
 Normal termination of Gaussian 16 at Tue Dec  8 19:55:08 2020.

 ----------------------------------------------------------------------
 # B3LYP/6-311++G(d,p) empiricaldispersion=gd3bj scf=xqc pop=npa geom=c
 heck
 ----------------------------------------------------------------------

 -------------------------------------
 CID_147541611_JID_1340_Energie_kation
 -------------------------------------
 Structure from the checkpoint file:  "JID_1340.chk"
 Charge =  1 Multiplicity = 2

 SCF Done:  E(UB3LYP) =  -1146.36841388     A.U. after   24 cycles
 Normal termination of Gaussian 16 at Tue Dec  8 20:00:45 2020.
 Gaussian 16:  ES64L-G16RevA.03 25-Dec-2016

 ------------------------------------
 CID_147541611_JID_1340_Energie_anion
 ------------------------------------
 Structure from the checkpoint file:  "JID_1340.chk"
 Charge = -1 Multiplicity = 2

                         Standard orientation:
 ---------------------------------------------------------------------
 Center     Atomic      Atomic             Coordinates (Angstroms)
 Number     Number       Type             X           Y           Z
 ---------------------------------------------------------------------
      1          6           0       -3.917170    0.802052   -0.072555
      2          6           0       -2.468606    0.436202   -0.002833
      3          6           0       -1.403232    1.256226   -0.062660
      4          6           0       -0.130610    0.523055    0.215725
      5          6           0       -0.333719   -0.870308   -0.346744
      6         16           0       -2.034273   -1.304745    0.241034
      7          6           0        0.927388   -1.621467   -0.031822
      8          6           0        2.009402   -0.834969   -0.065994
      9         16           0        1.600292    0.950466   -0.425808
     10          6           0        2.521170    1.934173    0.526842
     11          6           0        3.452771   -1.170808    0.076253
     12          1           0       -4.412814    0.301158   -0.912556
     13          1           0       -4.032454    1.883643   -0.192388
     14          1           0       -4.443943    0.501083    0.841546
     15          1           0       -1.483644    2.334340   -0.154377
     16          1           0        0.035210    0.455806    1.302862
     17          1           0       -0.452781   -0.792664   -1.438005
     18          1           0        0.969870   -2.698514    0.103163
     19          1           0        2.512788    1.838522    1.606864
     20          1           0        2.817555    2.863498    0.060644
     21          1           0        3.579162   -2.173798    0.494841
     22          1           0        3.962115   -1.132305   -0.895468
     23          1           0        3.948263   -0.437242    0.721994
 ---------------------------------------------------------------------

 SCF Done:  E(UB3LYP) =  -1146.60671764     A.U. after   33 cycles
 SCF Done:  E(UB3LYP) =  -1146.60671764     a.u. after    1 cycles

 The electronic state is 2-A.
 Alpha  occ. eigenvalues --  -88.81657 -88.75531 -10.11998 -10.11730 -10.11016
 Alpha  occ. eigenvalues --  -10.10559 -10.08627 -10.08236 -10.07678 -10.07265
 Alpha  occ. eigenvalues --  -10.04794  -7.89709  -7.84094  -5.85882  -5.85827
 Alpha  occ. eigenvalues --   -5.85385  -5.80441  -5.80151  -5.79499  -0.80177
 Alpha  occ. eigenvalues --   -0.74745  -0.69092  -0.66865  -0.62822  -0.61664
 Alpha  occ. eigenvalues --   -0.56174  -0.52834  -0.48252  -0.43897  -0.42583
 Alpha  occ. eigenvalues --   -0.39595  -0.38394  -0.35070  -0.34395  -0.33373
 Alpha  occ. eigenvalues --   -0.32630  -0.32587  -0.31543  -0.30080  -0.29029
 Alpha  occ. eigenvalues --   -0.27209  -0.26613  -0.25563  -0.23653  -0.22103
 Alpha  occ. eigenvalues --   -0.18859  -0.15834  -0.12263  -0.09264   0.04733
 Alpha virt. eigenvalues --    0.05823   0.07422   0.07940   0.08225   0.08467
 Alpha virt. eigenvalues --    0.09133   0.09386   0.10075   0.10516   0.10550
 Alpha virt. eigenvalues --    0.11260   0.11627   0.12211   0.12918   0.13370

  Beta  occ. eigenvalues --  -88.81650 -88.75523 -10.11965 -10.11717 -10.11010
  Beta  occ. eigenvalues --  -10.10500 -10.08568 -10.08237 -10.07615 -10.07232
  Beta  occ. eigenvalues --  -10.04790  -7.89702  -7.84086  -5.85875  -5.85811
  Beta  occ. eigenvalues --   -5.85380  -5.80419  -5.80146  -5.79492  -0.80118
  Beta  occ. eigenvalues --   -0.74684  -0.69025  -0.66787  -0.62773  -0.61578
  Beta  occ. eigenvalues --   -0.56095  -0.52766  -0.48194  -0.43816  -0.42471
  Beta  occ. eigenvalues --   -0.39539  -0.38324  -0.35002  -0.34326  -0.33324
  Beta  occ. eigenvalues --   -0.32570  -0.32513  -0.31481  -0.30032  -0.28985
  Beta  occ. eigenvalues --   -0.27150  -0.26528  -0.25481  -0.23557  -0.22022
  Beta  occ. eigenvalues --   -0.18813  -0.15599  -0.12236  -0.09247
  Beta virt. eigenvalues --    0.06965   0.07339   0.07812   0.08193   0.08528
  Beta virt. eigenvalues --    0.08802   0.09519   0.09890   0.10398   0.10664
  Beta virt. eigenvalues --    0.10929   0.11776   0.11957   0.12460   0.13044

 Mulliken charges and spin densities:
               1          2
     1  C    2.453252  -2.466037
     2  C   -1.276610   1.635213
     3  C   -0.137927  -0.573501
     4  C   -0.286304  -0.336116
     5  C    1.369651  -1.369640
     6  S   -0.483155   0.127110
     7  C   -1.340205   0.649504
     8  C   -0.383131   0.474549
     9  S    0.579309   0.370796
    10  C   -0.878403  -0.134730
    11  C    1.514975  -1.721709
    12  H   -0.257587   0.419157
    13  H   -0.778799   0.938223
    14  H   -0.446753   0.615026
    15  H    0.156896  -0.000924
    16  H    0.275840  -0.000530
    17  H    0.255759   0.040888
    18  H   -0.792925   1.007912
    19  H    0.116088   0.025397
    20  H    0.130427   0.020279
    21  H   -0.529544   0.696570
    22  H   -0.256214   0.424080
    23  H   -0.004638   0.158482
 Sum of Mulliken charges =  -1.00000   1.00000

 Dipole moment (field-independent basis, Debye):
    X=              1.8162    Y=              2.6842    Z=             -0.1966  Tot=              3.2468
 Quadrupole moment (field-independent basis, Debye-Ang):
   XX=           -180.0858   YY=           -128.9821   ZZ=           -105.0567
   XY=             20.4812   XZ=              3.6998   YZ=             -0.9034

 Summary of Natural Population Analysis:

                                       Natural Population
                Natural  -----------------------------------------------
    Atom  No    Charge         Core      Valence    Rydberg      Total
 -----------------------------------------------------------------------
      C    1   -0.30253      0.99960     2.29496    0.00798     3.30253
      C    2   -0.05589      0.99945     2.04361    0.01283     3.05589
      C    3   -0.13842      0.99937     2.12463    0.01441     3.13842
      C    4   -0.18567      0.99947     2.17159    0.01460     3.18567
      C    5   -0.17118      0.99946     2.15751    0.01421     3.17118
      S    6    0.12165      4.99953     2.86117    0.01765     7.87835
      C    7   -0.10264      0.99937     2.08868    0.01460     3.10264
      C    8   -0.06384      0.99943     2.04876    0.01565     3.06384
      S    9    0.40708      4.99916     2.55478    0.03898     7.59292
      C   10   -0.49350      0.99969     2.48337    0.01043     3.49350
      C   11   -0.31054      0.99959     2.30218    0.00877     3.31054
      H   12    0.10902      0.00000     0.38953    0.00145     0.39098
      H   13    0.10837      0.00000     0.38961    0.00201     0.39163
      H   14    0.11138      0.00000     0.38623    0.00240     0.38862
      H   15    0.10890      0.00000     0.38965    0.00145     0.39110
      H   16    0.10419      0.00000     0.39424    0.00158     0.39581
      H   17    0.10276      0.00000     0.39534    0.00190     0.39724
      H   18    0.11214      0.00000     0.38507    0.00279     0.38786
      H   19    0.09770      0.00000     0.40122    0.00108     0.40230
      H   20    0.10496      0.00000     0.39413    0.00090     0.39504
      H   21    0.11154      0.00000     0.38649    0.00197     0.38846
      H   22    0.11073      0.00000     0.38700    0.00226     0.38927
      H   23    0.11378      0.00000     0.38476    0.00146     0.38622
 =======================================================================
   * Total *   -0.00000     18.99412    29.81451    0.19137    49.00000

 Normal termination of Gaussian 16 at Tue Dec  8 20:08:29 2020.
