 Gaussian 16, Revision A.03,

 -----------------------------------------------------------
 # opt freq B3LYP/6-31G(d) empiricaldispersion=gd3bj scf=xqc
 -----------------------------------------------------------

 ------------------------------
 CID_65920957_JID_1455_neutraal
 ------------------------------
 Symbolic Z-matrix:
 Charge =  0 Multiplicity = 1

 SCF Done:  E(RB3LYP) =  -447.292448080     A.U. after   13 cycles
 SCF Done:  E(RB3LYP) =  -447.294818857     A.U. after   11 cycles
 SCF Done:  E(RB3LYP) =  -447.294956691     A.U. after    9 cycles
 SCF Done:  E(RB3LYP) =  -447.294969952     A.U. after    9 cycles
 SCF Done:  E(RB3LYP) =  -447.294972555     A.U. after    8 cycles
 SCF Done:  E(RB3LYP) =  -447.294973510     A.U. after    8 cycles
 SCF Done:  E(RB3LYP) =  -447.294973600     A.U. after    6 cycles
 Optimization completed.
    -- Stationary point found.
 Normal termination of Gaussian 16 at Tue Dec  8 20:01:18 2020.

 --------------------------------------------------------------------
 #N Geom=AllCheck Guess=TCheck SCRF=Check GenChk RB3LYP/6-31G(d) Freq
 --------------------------------------------------------------------

 Structure from the checkpoint file:  "JID_1455.chk"
 ------------------------------
 CID_65920957_JID_1455_neutraal
 ------------------------------
 Charge =  0 Multiplicity = 1

 SCF Done:  E(RB3LYP) =  -447.294973600     A.U. after    1 cycles

  Exact polarizability: 147.000  -0.993 100.790   3.832  -0.440  92.758
 Approx polarizability: 173.991  -2.384 133.774  11.572  -1.231 149.973

                      1                      2                      3
                      A                      A                      A
 Frequencies --     36.5148                75.0730               100.3004
 Red. masses --      3.4129                 3.2156                 2.2253
 Frc consts  --      0.0027                 0.0107                 0.0132
 IR Inten    --      0.5391                 0.9572                 3.5577

                      4                      5                      6
                      A                      A                      A
 Frequencies --    116.9430               155.9217               212.5284
 Red. masses --      2.8289                 2.3079                 1.8877
 Frc consts  --      0.0228                 0.0331                 0.0502
 IR Inten    --      0.6439                 0.0872                 7.7915

                      7                      8                      9
                      A                      A                      A
 Frequencies --    241.4183               276.8751               281.3172
 Red. masses --      1.1288                 2.1138                 2.2452
 Frc consts  --      0.0388                 0.0955                 0.1047
 IR Inten    --      0.7909                 9.9259                14.2683

                     10                     11                     12
                      A                      A                      A
 Frequencies --    293.4009               319.5400               362.3142
 Red. masses --      1.8915                 1.6005                 2.1962
 Frc consts  --      0.0959                 0.0963                 0.1699
 IR Inten    --      0.3399                29.3945                 8.3953

                     13                     14                     15
                      A                      A                      A
 Frequencies --    417.0234               441.3951               470.7611
 Red. masses --      3.5152                 1.7737                 2.5589
 Frc consts  --      0.3602                 0.2036                 0.3341
 IR Inten    --      0.1805                 0.1659                 0.9883

                     16                     17                     18
                      A                      A                      A
 Frequencies --    489.3910               519.5282               588.5556
 Red. masses --      2.4783                 3.1157                 2.2514
 Frc consts  --      0.3497                 0.4955                 0.4595
 IR Inten    --      3.1062                 7.0735                 2.5155

                     19                     20                     21
                      A                      A                      A
 Frequencies --    790.8900               819.4994               856.7928
 Red. masses --      2.0279                 1.7034                 1.8571
 Frc consts  --      0.7474                 0.6740                 0.8032
 IR Inten    --      0.0257                17.0303                 8.1637

                     22                     23                     24
                      A                      A                      A
 Frequencies --    868.2889               881.0854               893.6712
 Red. masses --      1.4928                 1.3619                 1.9969
 Frc consts  --      0.6631                 0.6229                 0.9396
 IR Inten    --      1.6984               117.9981                 0.6706

                     25                     26                     27
                      A                      A                      A
 Frequencies --    919.2663               941.2063               959.0060
 Red. masses --      2.0392                 1.5432                 1.8410
 Frc consts  --      1.0153                 0.8055                 0.9976
 IR Inten    --      0.1041                11.6964                 2.1061

                     28                     29                     30
                      A                      A                      A
 Frequencies --    991.9955              1000.7942              1018.1287
 Red. masses --      1.7503                 1.4233                 1.1219
 Frc consts  --      1.0148                 0.8399                 0.6852
 IR Inten    --      1.3400                 0.3110                27.3268

                     31                     32                     33
                      A                      A                      A
 Frequencies --   1036.3795              1056.9029              1087.8837
 Red. masses --      2.9606                 1.9765                 1.9217
 Frc consts  --      1.8736                 1.3008                 1.3400
 IR Inten    --      6.2908                 2.0544                 0.4648

                     34                     35                     36
                      A                      A                      A
 Frequencies --   1101.9943              1106.2552              1132.3077
 Red. masses --      1.5318                 1.6249                 2.0177
 Frc consts  --      1.0960                 1.1717                 1.5242
 IR Inten    --      0.0449                 0.0910                 6.4697

                     37                     38                     39
                      A                      A                      A
 Frequencies --   1148.6867              1177.1847              1182.9213
 Red. masses --      2.8583                 1.2764                 2.0158
 Frc consts  --      2.2221                 1.0422                 1.6619
 IR Inten    --      0.7874                 6.2064                 1.2373

                     40                     41                     42
                      A                      A                      A
 Frequencies --   1202.8629              1243.5945              1264.7792
 Red. masses --      2.1061                 1.3734                 1.3376
 Frc consts  --      1.7954                 1.2514                 1.2607
 IR Inten    --      1.7543                 2.9328                 6.0165

                     43                     44                     45
                      A                      A                      A
 Frequencies --   1304.1712              1307.9268              1312.8060
 Red. masses --      1.3172                 1.3398                 1.1902
 Frc consts  --      1.3200                 1.3504                 1.2086
 IR Inten    --      3.7002                 1.7419                 1.2512

                     46                     47                     48
                      A                      A                      A
 Frequencies --   1329.0122              1340.2363              1353.7336
 Red. masses --      1.2184                 1.2815                 1.2687
 Frc consts  --      1.2679                 1.3562                 1.3698
 IR Inten    --      0.5842                 0.4353                 1.6489

                     49                     50                     51
                      A                      A                      A
 Frequencies --   1367.7689              1383.9896              1395.0249
 Red. masses --      1.2688                 1.3123                 1.3629
 Frc consts  --      1.3986                 1.4809                 1.5627
 IR Inten    --      1.3231                 0.3361                 0.2999

                     52                     53                     54
                      A                      A                      A
 Frequencies --   1399.2991              1409.8259              1419.2125
 Red. masses --      1.4390                 1.5564                 1.6162
 Frc consts  --      1.6601                 1.8227                 1.9180
 IR Inten    --     10.4452                 0.4587                 1.4324

                     55                     56                     57
                      A                      A                      A
 Frequencies --   1438.7165              1442.7851              1510.3943
 Red. masses --      1.2511                 1.4619                 1.0879
 Frc consts  --      1.5257                 1.7929                 1.4623
 IR Inten    --      4.5068                28.7532                 0.3315

                     58                     59                     60
                      A                      A                      A
 Frequencies --   1513.7152              1519.5920              1527.7938
 Red. masses --      1.0945                 1.0868                 1.0473
 Frc consts  --      1.4776                 1.4786                 1.4402
 IR Inten    --      1.0439                 5.1393                 5.3387

                     61                     62                     63
                      A                      A                      A
 Frequencies --   1530.5165              1532.4789              1533.0211
 Red. masses --      1.0578                 1.0889                 1.0935
 Frc consts  --      1.4599                 1.5067                 1.5142
 IR Inten    --      2.2533                 0.1726                 3.7464

                     64                     65                     66
                      A                      A                      A
 Frequencies --   1691.1816              1758.2493              2958.7481
 Red. masses --      1.0939                 6.0897                 1.0716
 Frc consts  --      1.8434                11.0919                 5.5270
 IR Inten    --     27.6054                 2.5349                73.5248

                     67                     68                     69
                      A                      A                      A
 Frequencies --   2996.2559              3007.4590              3014.4571
 Red. masses --      1.0804                 1.0705                 1.0737
 Frc consts  --      5.7145                 5.7046                 5.7486
 IR Inten    --      4.6956                 8.7378                 7.4780

                     70                     71                     72
                      A                      A                      A
 Frequencies --   3017.1360              3023.0291              3028.8330
 Red. masses --      1.0660                 1.0709                 1.0637
 Frc consts  --      5.7176                 5.7660                 5.7496
 IR Inten    --     23.9589                12.3726                63.4496

                     73                     74                     75
                      A                      A                      A
 Frequencies --   3037.6135              3037.7660              3064.4520
 Red. masses --      1.0591                 1.0655                 1.0963
 Frc consts  --      5.7576                 5.7930                 6.0659
 IR Inten    --     92.4643                 1.2371                62.0062

                     76                     77                     78
                      A                      A                      A
 Frequencies --   3068.8093              3073.4493              3079.9966
 Red. masses --      1.0972                 1.0977                 1.0996
 Frc consts  --      6.0883                 6.1091                 6.1459
 IR Inten    --     27.5334                60.5121                50.9037

                     79                     80                     81
                      A                      A                      A
 Frequencies --   3101.7015              3107.9807              3116.5712
 Red. masses --      1.1013                 1.1024                 1.0879
 Frc consts  --      6.2426                 6.2742                 6.2257
 IR Inten    --     54.1766                39.0212                30.0126

                     82                     83                     84
                      A                      A                      A
 Frequencies --   3155.0961              3460.0989              3548.9361
 Red. masses --      1.0887                 1.0494                 1.0928
 Frc consts  --      6.3854                 7.4023                 8.1094
 IR Inten    --     20.8038                 7.3536                 1.9246

 - Thermochemistry -
 -------------------
 Temperature   298.150 Kelvin.  Pressure   1.00000 Atm.
 Atom     1 has atomic number  6 and mass  12.00000

 Molecular mass:   153.15175 amu.
 Principal axes and moments of inertia in atomic units:
                           1         2         3
     Eigenvalues --   831.469654010.424694644.23730
           X            0.99999   0.00439  -0.00316
           Y           -0.00437   0.99997   0.00625
           Z            0.00319  -0.00624   0.99998
 This molecule is an asymmetric top.
 Rotational symmetry number  1.
 Warning -- assumption of classical behavior for rotation
           may cause significant error
 Rotational temperatures (Kelvin)      0.10417     0.02160     0.01865
 Rotational constants (GHZ):           2.17054     0.45001     0.38860
 Zero-point vibrational energy     731522.5 (Joules/Mol)
                                  174.83809 (Kcal/Mol)
 Warning -- explicit consideration of  18 degrees of freedom as
           vibrations may cause significant error
 Vibrational temperatures:     52.54   108.01   144.31   168.25   224.34
          (Kelvin)            305.78   347.35   398.36   404.75   422.14
                              459.75   521.29   600.00   635.07   677.32
                              704.12   747.49   846.80  1137.91  1179.08
                             1232.73  1249.27  1267.69  1285.79  1322.62
                             1354.19  1379.80  1427.26  1439.92  1464.86
                             1491.12  1520.65  1565.22  1585.52  1591.65
                             1629.14  1652.70  1693.71  1701.96  1730.65
                             1789.26  1819.74  1876.41  1881.81  1888.83
                             1912.15  1928.30  1947.72  1967.91  1991.25
                             2007.13  2013.28  2028.43  2041.93  2069.99
                             2075.85  2173.12  2177.90  2186.35  2198.15
                             2202.07  2204.90  2205.68  2433.23  2529.73
                             4256.98  4310.94  4327.06  4337.13  4340.99
                             4349.46  4357.82  4370.45  4370.67  4409.06
                             4415.33  4422.01  4431.43  4462.66  4471.69
                             4484.05  4539.48  4978.31  5106.13

 Zero-point correction=                           0.278622 (Hartree/Particle)
 Thermal correction to Energy=                    0.290751
 Thermal correction to Enthalpy=                  0.291695
 Thermal correction to Gibbs Free Energy=         0.240175
 Sum of electronic and zero-point Energies=           -447.016351
 Sum of electronic and thermal Energies=              -447.004223
 Sum of electronic and thermal Enthalpies=            -447.003278
 Sum of electronic and thermal Free Energies=         -447.054798

                     E (Thermal)             CV                S
                      KCal/Mol        Cal/Mol-Kelvin    Cal/Mol-Kelvin
 Total                  182.449             46.322            108.432
 Electronic               0.000              0.000              0.000
 Translational            0.889              2.981             40.989
 Rotational               0.889              2.981             31.116
 Vibrational            180.672             40.360             36.328
 Vibration     1          0.594              1.982              5.440
 Vibration     2          0.599              1.966              4.016
 Vibration     3          0.604              1.949              3.448
 Vibration     4          0.608              1.935              3.150
 Vibration     5          0.620              1.896              2.599
 Vibration     6          0.644              1.822              2.022
 Vibration     7          0.658              1.777              1.792
 Vibration     8          0.678              1.716              1.553
 Vibration     9          0.681              1.708              1.526
 Vibration    10          0.688              1.686              1.454
 Vibration    11          0.705              1.636              1.312
 Vibration    12          0.736              1.550              1.112
 Vibration    13          0.780              1.433              0.902
 Vibration    14          0.801              1.380              0.822
 Vibration    15          0.828              1.315              0.735
 Vibration    16          0.845              1.274              0.685
 Vibration    17          0.875              1.207              0.611
 Vibration    18          0.946              1.056              0.470

                           ! Non-Optimized Parameters !
 Normal termination of Gaussian 16 at Tue Dec  8 20:07:31 2020.

 ----------------------------------------------------------------------
 # B3LYP/6-311++G(d,p) empiricaldispersion=gd3bj scf=xqc pop=npa geom=c
 heck
 ----------------------------------------------------------------------

 --------------------------------------
 CID_65920957_JID_1455_Energie_neutraal
 --------------------------------------
 Structure from the checkpoint file:  "JID_1455.chk"
 Charge =  0 Multiplicity = 1

 SCF Done:  E(RB3LYP) =  -447.427176120     A.U. after   14 cycles
 Normal termination of Gaussian 16 at Tue Dec  8 20:10:11 2020.

 ----------------------------------------------------------------------
 # B3LYP/6-311++G(d,p) empiricaldispersion=gd3bj scf=xqc pop=npa geom=c
 heck
 ----------------------------------------------------------------------

 ------------------------------------
 CID_65920957_JID_1455_Energie_kation
 ------------------------------------
 Structure from the checkpoint file:  "JID_1455.chk"
 Charge =  1 Multiplicity = 2

 SCF Done:  E(UB3LYP) =  -447.111573072     A.U. after   22 cycles
 Normal termination of Gaussian 16 at Tue Dec  8 20:15:32 2020.
 Gaussian 16:  ES64L-G16RevA.03 25-Dec-2016

 ----------------------------------------------------------------------
 # B3LYP/6-311++G(d,p) empiricaldispersion=gd3bj scf=xqc pop=npa geom=c
 heck
 ----------------------------------------------------------------------

 -----------------------------------
 CID_65920957_JID_1455_Energie_anion
 -----------------------------------
 Structure from the checkpoint file:  "JID_1455.chk"
 Charge = -1 Multiplicity = 2

                         Standard orientation:
 ---------------------------------------------------------------------
 Center     Atomic      Atomic             Coordinates (Angstroms)
 Number     Number       Type             X           Y           Z
 ---------------------------------------------------------------------
      1          6           0        3.086256    2.059613    0.096268
      2          6           0        2.299747    0.817586   -0.329775
      3          6           0        2.998275   -0.476148    0.116217
      4          6           0        2.203414   -1.723341   -0.287902
      5          6           0        0.767387   -1.669658    0.246593
      6          6           0        0.038546   -0.385502   -0.198908
      7          6           0        0.859468    0.856482    0.204228
      8          6           0       -1.351384   -0.321346    0.368304
      9          6           0       -2.479156   -0.289064   -0.344380
     10          6           0       -3.858917   -0.217030    0.243888
     11          7           0       -4.571399    0.953275   -0.291137
     12          1           0        3.165490    2.113638    1.189658
     13          1           0        4.104182    2.045002   -0.310955
     14          1           0        2.597677    2.978700   -0.248125
     15          1           0        2.246686    0.805013   -1.430110
     16          1           0        4.012077   -0.517027   -0.302974
     17          1           0        3.112912   -0.456748    1.210917
     18          1           0        2.706601   -2.629082    0.072795
     19          1           0        2.177600   -1.795712   -1.384870
     20          1           0        0.786694   -1.702488    1.346400
     21          1           0        0.198741   -2.547370   -0.083157
     22          1           0       -0.035294   -0.401652   -1.296500
     23          1           0        0.888307    0.923820    1.303211
     24          1           0        0.349866    1.761819   -0.149302
     25          1           0       -1.415081   -0.302882    1.459610
     26          1           0       -2.435511   -0.289961   -1.433911
     27          1           0       -4.433236   -1.105280   -0.055970
     28          1           0       -3.786115   -0.244781    1.346091
     29          1           0       -5.517844    0.982489    0.085342
     30          1           0       -4.105785    1.800039    0.032608
 ---------------------------------------------------------------------

 SCF Done:  E(UB3LYP) =  -447.410083571     A.U. after   33 cycles
 SCF Done:  E(UB3LYP) =  -447.410083572     a.u. after    1 cycles

 The electronic state is 2-A.
 Alpha  occ. eigenvalues --  -14.18910 -10.09220 -10.07734 -10.07503 -10.06871
 Alpha  occ. eigenvalues --  -10.06806 -10.06800 -10.06606 -10.06579 -10.06517
 Alpha  occ. eigenvalues --  -10.06156  -0.77998  -0.74633  -0.69365  -0.66391
 Alpha  occ. eigenvalues --   -0.63748  -0.58059  -0.55930  -0.50779  -0.48794
 Alpha  occ. eigenvalues --   -0.46178  -0.44860  -0.39070  -0.37774  -0.36716
 Alpha  occ. eigenvalues --   -0.35387  -0.34734  -0.32711  -0.32278  -0.31108
 Alpha  occ. eigenvalues --   -0.29353  -0.29082  -0.27586  -0.27246  -0.26202
 Alpha  occ. eigenvalues --   -0.25166  -0.24404  -0.23606  -0.22357  -0.20935
 Alpha  occ. eigenvalues --   -0.20192  -0.15407  -0.14200   0.04542
 Alpha virt. eigenvalues --    0.05844   0.07083   0.07430   0.08319   0.08692
 Alpha virt. eigenvalues --    0.09306   0.10003   0.10044   0.10495   0.10858
 Alpha virt. eigenvalues --    0.11146   0.11853   0.12577   0.12910   0.13146

  Beta  occ. eigenvalues --  -14.18862 -10.09196 -10.07733 -10.07498 -10.06857
  Beta  occ. eigenvalues --  -10.06793 -10.06781 -10.06607 -10.06569 -10.06496
  Beta  occ. eigenvalues --  -10.06129  -0.77921  -0.74611  -0.69332  -0.66362
  Beta  occ. eigenvalues --   -0.63713  -0.58010  -0.55858  -0.50732  -0.48746
  Beta  occ. eigenvalues --   -0.46142  -0.44811  -0.39019  -0.37724  -0.36676
  Beta  occ. eigenvalues --   -0.35348  -0.34706  -0.32663  -0.32233  -0.31071
  Beta  occ. eigenvalues --   -0.29311  -0.29051  -0.27548  -0.27213  -0.26172
  Beta  occ. eigenvalues --   -0.25130  -0.24374  -0.23576  -0.22326  -0.20901
  Beta  occ. eigenvalues --   -0.20164  -0.15362  -0.14148
  Beta virt. eigenvalues --    0.06588   0.07193   0.07584   0.07672   0.08933
  Beta virt. eigenvalues --    0.09220   0.09762   0.10121   0.10259   0.10820
  Beta virt. eigenvalues --    0.11332   0.11527   0.12127   0.12691   0.13242

 Mulliken charges and spin densities:
               1          2
     1  C    0.987360  -1.664963
     2  C   -1.372008   1.953002
     3  C    0.256037  -0.691272
     4  C    0.077193  -0.449084
     5  C   -0.089940  -0.407683
     6  C   -0.719536   1.338694
     7  C    0.963300  -2.070778
     8  C    0.230442  -0.016361
     9  C   -0.311750   0.064982
    10  C    1.136048  -1.811141
    11  N   -0.380923   0.044490
    12  H   -0.030495   0.160411
    13  H   -0.291754   0.437538
    14  H   -0.165582   0.297940
    15  H    0.005168   0.147285
    16  H   -0.373245   0.545188
    17  H    0.078723   0.050586
    18  H   -0.305799   0.476997
    19  H    0.092174   0.026315
    20  H   -0.040169   0.179162
    21  H    0.011255   0.155577
    22  H    0.046330   0.109310
    23  H   -0.138114   0.292163
    24  H    0.187198  -0.030609
    25  H    0.025290   0.113893
    26  H    0.006450   0.129200
    27  H   -0.198250   0.354541
    28  H   -0.348758   0.480391
    29  H   -0.299630   0.540969
    30  H   -0.037014   0.243259
 Sum of Mulliken charges =  -1.00000   1.00000

 Dipole moment (field-independent basis, Debye):
    X=              3.2961    Y=             -1.6284    Z=             -0.8829  Tot=              3.7809
 Quadrupole moment (field-independent basis, Debye-Ang):
   XX=           -186.0067   YY=           -110.8707   ZZ=            -98.3183
   XY=              5.3900   XZ=              3.6138   YZ=              1.4181

 Summary of Natural Population Analysis:

                                       Natural Population
                Natural  -----------------------------------------------
    Atom  No    Charge         Core      Valence    Rydberg      Total
 -----------------------------------------------------------------------
      C    1   -0.28200      0.99965     2.27649    0.00586     3.28200
      C    2   -0.11130      0.99960     2.10286    0.00884     3.11130
      C    3   -0.18763      0.99961     2.17911    0.00890     3.18763
      C    4   -0.18819      0.99963     2.18002    0.00855     3.18819
      C    5   -0.18336      0.99961     2.17557    0.00818     3.18336
      C    6   -0.12535      0.99957     2.11550    0.01027     3.12535
      C    7   -0.18234      0.99959     2.17444    0.00830     3.18234
      C    8   -0.08044      0.99949     2.06979    0.01116     3.08044
      C    9   -0.09280      0.99950     2.08360    0.00970     3.09280
      C   10   -0.10298      0.99962     2.09056    0.01280     3.10298
      N   11   -0.42101      0.99977     2.91041    0.01082     3.92101
      H   12    0.09610      0.00000     0.40292    0.00098     0.40390
      H   13    0.10001      0.00000     0.39891    0.00109     0.39999
      H   14    0.09843      0.00000     0.40066    0.00090     0.40157
      H   15    0.09038      0.00000     0.40788    0.00174     0.40962
      H   16    0.10045      0.00000     0.39819    0.00136     0.39955
      H   17    0.09257      0.00000     0.40607    0.00136     0.40743
      H   18    0.09849      0.00000     0.40053    0.00098     0.40151
      H   19    0.09163      0.00000     0.40706    0.00131     0.40837
      H   20    0.09333      0.00000     0.40534    0.00133     0.40667
      H   21    0.10051      0.00000     0.39860    0.00090     0.39949
      H   22    0.09362      0.00000     0.40426    0.00213     0.40638
      H   23    0.09349      0.00000     0.40510    0.00141     0.40651
      H   24    0.10161      0.00000     0.39737    0.00103     0.39839
      H   25    0.09059      0.00000     0.40801    0.00139     0.40941
      H   26    0.09246      0.00000     0.40610    0.00144     0.40754
      H   27    0.09232      0.00000     0.40629    0.00139     0.40768
      H   28    0.08111      0.00000     0.41652    0.00237     0.41889
      H   29    0.17734      0.00000     0.31798    0.00468     0.32266
      H   30    0.17299      0.00000     0.32465    0.00235     0.32701
 =======================================================================
   * Total *   -0.00000     10.99566    31.87081    0.13354    43.00000

 Normal termination of Gaussian 16 at Tue Dec  8 20:23:43 2020.
