 Gaussian 16, Revision A.03,

 -----------------------------------------------------------
 # opt freq B3LYP/6-31G(d) empiricaldispersion=gd3bj scf=xqc
 -----------------------------------------------------------

 -------------------------------
 CID_128420510_JID_9028_neutraal
 -------------------------------
 Symbolic Z-matrix:
 Charge =  0 Multiplicity = 1

 SCF Done:  E(RB3LYP) =  -1206.12675494     A.U. after   14 cycles
 SCF Done:  E(RB3LYP) =  -1206.13286561     A.U. after   12 cycles
 SCF Done:  E(RB3LYP) =  -1206.13275710     A.U. after   12 cycles
 SCF Done:  E(RB3LYP) =  -1206.13494613     A.U. after   11 cycles
 SCF Done:  E(RB3LYP) =  -1206.13526619     A.U. after   12 cycles
 SCF Done:  E(RB3LYP) =  -1206.13586275     A.U. after   11 cycles
 SCF Done:  E(RB3LYP) =  -1206.13612541     A.U. after   11 cycles
 SCF Done:  E(RB3LYP) =  -1206.13664302     A.U. after   12 cycles
 SCF Done:  E(RB3LYP) =  -1206.11459921     A.U. after   13 cycles
 SCF Done:  E(RB3LYP) =  -1206.13770967     A.U. after   13 cycles
 SCF Done:  E(RB3LYP) =  -1206.13894085     A.U. after   10 cycles
 SCF Done:  E(RB3LYP) =  -1206.13895667     A.U. after   10 cycles
 SCF Done:  E(RB3LYP) =  -1206.13896045     A.U. after    8 cycles
 SCF Done:  E(RB3LYP) =  -1206.13896075     A.U. after    7 cycles
 SCF Done:  E(RB3LYP) =  -1206.13896088     A.U. after    7 cycles
 Optimization completed.
    -- Stationary point found.
 Normal termination of Gaussian 16 at Mon Dec 14 17:11:33 2020.

 --------------------------------------------------------------------
 #N Geom=AllCheck Guess=TCheck SCRF=Check GenChk RB3LYP/6-31G(d) Freq
 --------------------------------------------------------------------

 Structure from the checkpoint file:  "JID_9028.chk"
 -------------------------------
 CID_128420510_JID_9028_neutraal
 -------------------------------
 Charge =  0 Multiplicity = 1

 SCF Done:  E(RB3LYP) =  -1206.13896088     A.U. after    1 cycles

  Exact polarizability: 207.650  -3.055 166.530  -8.178  -0.452 151.632
 Approx polarizability: 265.111  -6.065 240.396 -19.235   7.784 248.245

                      1                      2                      3
                      A                      A                      A
 Frequencies --     22.5090                28.5063                52.2125
 Red. masses --      5.5982                 3.9396                 4.1399
 Frc consts  --      0.0017                 0.0019                 0.0066
 IR Inten    --      0.1756                 0.1526                 0.4582

                      4                      5                      6
                      A                      A                      A
 Frequencies --     67.2018                70.5345               101.1736
 Red. masses --      3.9578                 4.1320                 5.6464
 Frc consts  --      0.0105                 0.0121                 0.0341
 IR Inten    --      0.7753                 1.6239                 0.9111

                      7                      8                      9
                      A                      A                      A
 Frequencies --    110.7577               154.7420               184.6995
 Red. masses --      4.2539                 3.1046                 4.3293
 Frc consts  --      0.0307                 0.0438                 0.0870
 IR Inten    --      0.6906                 0.3461                 8.4164

                     10                     11                     12
                      A                      A                      A
 Frequencies --    199.2538               213.8708               238.1568
 Red. masses --      2.8756                 2.6290                 1.4373
 Frc consts  --      0.0673                 0.0708                 0.0480
 IR Inten    --      0.7978                 5.0230                 1.9729

                     13                     14                     15
                      A                      A                      A
 Frequencies --    246.6369               265.4563               275.6134
 Red. masses --      2.2432                 2.6831                 4.6588
 Frc consts  --      0.0804                 0.1114                 0.2085
 IR Inten    --      3.0708                 7.2033                 6.6947

                     16                     17                     18
                      A                      A                      A
 Frequencies --    303.4233               306.1902               334.7771
 Red. masses --      2.2729                 2.2880                 3.1846
 Frc consts  --      0.1233                 0.1264                 0.2103
 IR Inten    --      3.0510                 1.1201                 0.6937

                     19                     20                     21
                      A                      A                      A
 Frequencies --    357.6947               400.1233               411.6762
 Red. masses --      2.8627                 2.2295                 2.2562
 Frc consts  --      0.2158                 0.2103                 0.2253
 IR Inten    --      1.4066                 2.3115                 0.3575

                     22                     23                     24
                      A                      A                      A
 Frequencies --    432.6364               441.9880               462.2111
 Red. masses --      2.7145                 2.0339                 2.8032
 Frc consts  --      0.2993                 0.2341                 0.3528
 IR Inten    --      2.3857                 2.6320                 3.5675

                     25                     26                     27
                      A                      A                      A
 Frequencies --    482.1207               505.9619               539.7172
 Red. masses --      2.7234                 3.1152                 4.2069
 Frc consts  --      0.3730                 0.4699                 0.7220
 IR Inten    --      4.2857                 0.3176                 6.4156

                     28                     29                     30
                      A                      A                      A
 Frequencies --    573.8693               586.3123               654.5581
 Red. masses --      2.2469                 2.5470                 4.7740
 Frc consts  --      0.4360                 0.5159                 1.2051
 IR Inten    --     17.2057                10.3118                 2.8985

                     31                     32                     33
                      A                      A                      A
 Frequencies --    683.2900               699.6504               717.6332
 Red. masses --      4.1351                 3.4537                 3.1833
 Frc consts  --      1.1375                 0.9961                 0.9659
 IR Inten    --      0.2260                 0.3712                 8.5131

                     34                     35                     36
                      A                      A                      A
 Frequencies --    754.0245               801.4175               828.4524
 Red. masses --      2.7916                 3.6603                 1.6228
 Frc consts  --      0.9351                 1.3851                 0.6562
 IR Inten    --      5.3235                 4.8932                 0.9082

                     37                     38                     39
                      A                      A                      A
 Frequencies --    856.4438               884.5155               890.7742
 Red. masses --      2.5621                 2.6441                 1.7465
 Frc consts  --      1.1073                 1.2188                 0.8165
 IR Inten    --      4.5585                11.5192                 3.9784

                     40                     41                     42
                      A                      A                      A
 Frequencies --    903.7525               913.4217               931.2947
 Red. masses --      2.3466                 1.9672                 2.3709
 Frc consts  --      1.1292                 0.9670                 1.2115
 IR Inten    --      6.0153                 1.7059                11.2723

                     43                     44                     45
                      A                      A                      A
 Frequencies --    956.5745               970.3970               974.9581
 Red. masses --      2.2791                 2.0115                 1.4051
 Frc consts  --      1.2287                 1.1160                 0.7869
 IR Inten    --      0.2083                 6.3713                 4.0992

                     46                     47                     48
                      A                      A                      A
 Frequencies --    988.4676              1002.6659              1005.0630
 Red. masses --      2.1614                 2.5831                 1.5958
 Frc consts  --      1.2443                 1.5301                 0.9498
 IR Inten    --     25.0684                11.8580                 4.2910

                     49                     50                     51
                      A                      A                      A
 Frequencies --   1019.0758              1032.3521              1050.4497
 Red. masses --      2.7885                 2.3298                 1.9669
 Frc consts  --      1.7062                 1.4630                 1.2788
 IR Inten    --      9.0860                 5.2795                20.1300

                     52                     53                     54
                      A                      A                      A
 Frequencies --   1053.3230              1058.6508              1092.5151
 Red. masses --      1.7137                 1.8632                 1.5563
 Frc consts  --      1.1202                 1.2303                 1.0945
 IR Inten    --      1.0689                 7.2109                 6.2214

                     55                     56                     57
                      A                      A                      A
 Frequencies --   1115.4031              1127.5369              1136.6550
 Red. masses --      2.7793                 3.0821                 4.4639
 Frc consts  --      2.0373                 2.3086                 3.3980
 IR Inten    --      1.1523                61.7577                72.3735

                     58                     59                     60
                      A                      A                      A
 Frequencies --   1144.8541              1155.5286              1169.0082
 Red. masses --      1.1364                 1.7281                 1.3550
 Frc consts  --      0.8775                 1.3595                 1.0910
 IR Inten    --      6.2246                33.5337                 6.6532

                     61                     62                     63
                      A                      A                      A
 Frequencies --   1193.4647              1200.8383              1210.2303
 Red. masses --      1.5774                 2.0529                 1.7109
 Frc consts  --      1.3238                 1.7442                 1.4764
 IR Inten    --      1.7422                 4.7487                38.3503

                     64                     65                     66
                      A                      A                      A
 Frequencies --   1214.3664              1234.4945              1244.5902
 Red. masses --      1.9245                 2.1106                 1.2484
 Frc consts  --      1.6721                 1.8951                 1.1394
 IR Inten    --     15.0766                30.3687                11.6377

                     67                     68                     69
                      A                      A                      A
 Frequencies --   1252.1211              1273.9862              1298.7152
 Red. masses --      1.5288                 1.5930                 1.3426
 Frc consts  --      1.4122                 1.5233                 1.3342
 IR Inten    --     14.0754                 2.3569                 4.5171

                     70                     71                     72
                      A                      A                      A
 Frequencies --   1311.8552              1324.5230              1329.3409
 Red. masses --      1.4447                 1.6831                 1.3887
 Frc consts  --      1.4648                 1.7398                 1.4459
 IR Inten    --      6.4862                 4.0859                 3.2901

                     73                     74                     75
                      A                      A                      A
 Frequencies --   1334.4886              1344.1815              1348.0907
 Red. masses --      1.2367                 1.2874                 1.6014
 Frc consts  --      1.2977                 1.3705                 1.7147
 IR Inten    --     34.9282                 2.1567                53.4470

                     76                     77                     78
                      A                      A                      A
 Frequencies --   1364.2056              1377.4990              1395.2895
 Red. masses --      1.5532                 1.5328                 1.4031
 Frc consts  --      1.7031                 1.7136                 1.6094
 IR Inten    --      0.5073                 0.7470                 0.1061

                     79                     80                     81
                      A                      A                      A
 Frequencies --   1401.7554              1407.6957              1414.8206
 Red. masses --      1.2186                 1.4156                 1.4350
 Frc consts  --      1.4108                 1.6527                 1.6924
 IR Inten    --     14.2715                34.7599                16.2040

                     82                     83                     84
                      A                      A                      A
 Frequencies --   1418.2792              1424.5074              1431.5092
 Red. masses --      1.3094                 1.3096                 1.3529
 Frc consts  --      1.5518                 1.5657                 1.6334
 IR Inten    --      6.8035                33.2482                 3.9303

                     85                     86                     87
                      A                      A                      A
 Frequencies --   1437.1229              1480.9796              1492.5406
 Red. masses --      1.3572                 3.6981                 1.1130
 Frc consts  --      1.6516                 4.7789                 1.4609
 IR Inten    --     12.4006               213.1644                13.1033

                     88                     89                     90
                      A                      A                      A
 Frequencies --   1495.0356              1501.6141              1508.2489
 Red. masses --      1.0918                 1.1290                 1.0925
 Frc consts  --      1.4378                 1.4999                 1.4642
 IR Inten    --      2.3178                22.0533                 8.8186

                     91                     92                     93
                      A                      A                      A
 Frequencies --   1509.2177              1516.1073              1517.7162
 Red. masses --      1.0884                 1.0502                 1.0994
 Frc consts  --      1.4607                 1.4223                 1.4921
 IR Inten    --      7.0881                10.6414                 4.4565

                     94                     95                     96
                      A                      A                      A
 Frequencies --   1519.4356              1530.4728              1536.4051
 Red. masses --      1.0838                 1.0868                 1.0928
 Frc consts  --      1.4742                 1.4999                 1.5199
 IR Inten    --      0.9764                 2.5316                 4.8732

                     97                     98                     99
                      A                      A                      A
 Frequencies --   1537.6606              1552.8549              1742.9695
 Red. masses --      1.0624                 1.1048                 9.9141
 Frc consts  --      1.4800                 1.5696                17.7453
 IR Inten    --      5.8654                 9.6656               272.1528

                    100                    101                    102
                      A                      A                      A
 Frequencies --   2975.4834              2982.4647              3024.1207
 Red. masses --      1.0714                 1.0718                 1.0598
 Frc consts  --      5.5886                 5.6172                 5.7106
 IR Inten    --     17.9567                92.8087                33.1139

                    103                    104                    105
                      A                      A                      A
 Frequencies --   3029.3812              3031.7019              3041.1286
 Red. masses --      1.0639                 1.0698                 1.0599
 Frc consts  --      5.7525                 5.7932                 5.7752
 IR Inten    --     27.0748                59.3767                24.4447

                    106                    107                    108
                      A                      A                      A
 Frequencies --   3047.0178              3051.9207              3055.4792
 Red. masses --      1.0625                 1.0580                 1.0819
 Frc consts  --      5.8121                 5.8063                 5.9513
 IR Inten    --     24.1639                32.0133                22.6454

                    109                    110                    111
                      A                      A                      A
 Frequencies --   3064.9802              3066.1225              3076.1920
 Red. masses --      1.0518                 1.0742                 1.0975
 Frc consts  --      5.8213                 5.9502                 6.1188
 IR Inten    --      7.7494                29.6091                29.8280

                    112                    113                    114
                      A                      A                      A
 Frequencies --   3078.2157              3086.1344              3092.5532
 Red. masses --      1.0728                 1.0638                 1.1034
 Frc consts  --      5.9893                 5.9694                 6.2178
 IR Inten    --     55.4349                29.6456                54.0617

                    115                    116                    117
                      A                      A                      A
 Frequencies --   3093.5236              3097.8264              3103.9516
 Red. masses --      1.1101                 1.1026                 1.0961
 Frc consts  --      6.2592                 6.2341                 6.2220
 IR Inten    --     20.0225                12.1550                52.0901

                    118                    119                    120
                      A                      A                      A
 Frequencies --   3116.4910              3119.3986              3126.7949
 Red. masses --      1.0933                 1.0939                 1.1069
 Frc consts  --      6.2566                 6.2713                 6.3760
 IR Inten    --     39.1977                20.0868                18.9845

                    121                    122                    123
                      A                      A                      A
 Frequencies --   3132.4081              3158.5364              3159.1768
 Red. masses --      1.0993                 1.1020                 1.1026
 Frc consts  --      6.3550                 6.4775                 6.4834
 IR Inten    --     24.7937                 4.7179                 9.5948

 - Thermochemistry -
 -------------------
 Temperature   298.150 Kelvin.  Pressure   1.00000 Atm.
 Atom     1 has atomic number  6 and mass  12.00000

 Molecular mass:   284.15585 amu.
 Principal axes and moments of inertia in atomic units:
                           1         2         3
     Eigenvalues --  3053.209188666.656879991.29262
           X            0.99996  -0.00813   0.00477
           Y            0.00819   0.99987  -0.01373
           Z           -0.00465   0.01377   0.99989
 This molecule is an asymmetric top.
 Rotational symmetry number  1.
 Warning -- assumption of classical behavior for rotation
           may cause significant error
 Rotational temperatures (Kelvin)      0.02837     0.00999     0.00867
 Rotational constants (GHZ):           0.59110     0.20824     0.18063
 Zero-point vibrational energy     995191.1 (Joules/Mol)
                                  237.85639 (Kcal/Mol)
 Warning -- explicit consideration of  29 degrees of freedom as
           vibrations may cause significant error
 Vibrational temperatures:     32.39    41.01    75.12    96.69   101.48
          (Kelvin)            145.57   159.36   222.64   265.74   286.68
                              307.71   342.65   354.86   381.93   396.55
                              436.56   440.54   481.67   514.64   575.69
                              592.31   622.47   635.92   665.02   693.66
                              727.97   776.53   825.67   843.57   941.76
                              983.10  1006.64  1032.51  1084.87  1153.06
                             1191.96  1232.23  1272.62  1281.63  1300.30
                             1314.21  1339.93  1376.30  1396.18  1402.75
                             1422.18  1442.61  1446.06  1466.22  1485.32
                             1511.36  1515.50  1523.16  1571.89  1604.82
                             1622.27  1635.39  1647.19  1662.55  1681.94
                             1717.13  1727.74  1741.25  1747.20  1776.16
                             1790.69  1801.52  1832.98  1868.56  1887.47
                             1905.69  1912.63  1920.03  1933.98  1939.60
                             1962.79  1981.91  2007.51  2016.81  2025.36
                             2035.61  2040.59  2049.55  2059.62  2067.70
                             2130.80  2147.43  2151.02  2160.49  2170.03
                             2171.43  2181.34  2183.66  2186.13  2202.01
                             2210.54  2212.35  2234.21  2507.74  4281.06
                             4291.10  4351.04  4358.60  4361.94  4375.51
                             4383.98  4391.03  4396.15  4409.82  4411.47
                             4425.95  4428.87  4440.26  4449.49  4450.89
                             4457.08  4465.89  4483.94  4488.12  4498.76
                             4506.84  4544.43  4545.35

 Zero-point correction=                           0.379048 (Hartree/Particle)
 Thermal correction to Energy=                    0.397635
 Thermal correction to Enthalpy=                  0.398580
 Thermal correction to Gibbs Free Energy=         0.331120
 Sum of electronic and zero-point Energies=          -1205.759913
 Sum of electronic and thermal Energies=             -1205.741325
 Sum of electronic and thermal Enthalpies=           -1205.740381
 Sum of electronic and thermal Free Energies=        -1205.807840

                     E (Thermal)             CV                S
                      KCal/Mol        Cal/Mol-Kelvin    Cal/Mol-Kelvin
 Total                  249.520             72.194            141.980
 Electronic               0.000              0.000              0.000
 Translational            0.889              2.981             42.831
 Rotational               0.889              2.981             33.935
 Vibrational            247.743             66.233             65.213
 Vibration     1          0.593              1.985              6.400
 Vibration     2          0.593              1.984              5.931
 Vibration     3          0.596              1.977              4.732
 Vibration     4          0.598              1.970              4.234
 Vibration     5          0.598              1.968              4.138
 Vibration     6          0.604              1.948              3.432
 Vibration     7          0.607              1.941              3.256
 Vibration     8          0.620              1.897              2.613
 Vibration     9          0.631              1.861              2.280
 Vibration    10          0.637              1.841              2.140
 Vibration    11          0.644              1.820              2.010
 Vibration    12          0.656              1.782              1.817
 Vibration    13          0.661              1.768              1.754
 Vibration    14          0.671              1.736              1.626
 Vibration    15          0.677              1.718              1.561
 Vibration    16          0.695              1.667              1.398
 Vibration    17          0.697              1.662              1.383
 Vibration    18          0.716              1.606              1.237
 Vibration    19          0.733              1.559              1.132
 Vibration    20          0.766              1.470              0.962
 Vibration    21          0.776              1.445              0.921
 Vibration    22          0.794              1.399              0.850
 Vibration    23          0.802              1.379              0.820
 Vibration    24          0.820              1.334              0.760
 Vibration    25          0.838              1.290              0.704
 Vibration    26          0.861              1.237              0.643
 Vibration    27          0.895              1.162              0.566
 Vibration    28          0.930              1.088              0.497
 Vibration    29          0.943              1.061              0.474

                           ! Non-Optimized Parameters !
 Normal termination of Gaussian 16 at Mon Dec 14 17:39:38 2020.

 ----------------------------------------------------------------------
 # B3LYP/6-311++G(d,p) empiricaldispersion=gd3bj scf=xqc pop=npa geom=c
 heck
 ----------------------------------------------------------------------

 ---------------------------------------
 CID_128420510_JID_9028_Energie_neutraal
 ---------------------------------------
 Structure from the checkpoint file:  "JID_9028.chk"
 Charge =  0 Multiplicity = 1

 SCF Done:  E(RB3LYP) =  -1206.38705599     A.U. after   16 cycles
 Normal termination of Gaussian 16 at Mon Dec 14 17:54:23 2020.

 ----------------------------------------------------------------------
 # B3LYP/6-311++G(d,p) empiricaldispersion=gd3bj scf=xqc pop=npa geom=c
 heck
 ----------------------------------------------------------------------

 -------------------------------------
 CID_128420510_JID_9028_Energie_kation
 -------------------------------------
 Structure from the checkpoint file:  "JID_9028.chk"
 Charge =  1 Multiplicity = 2

 SCF Done:  E(UB3LYP) =  -1206.12212630     A.U. after   24 cycles
 Normal termination of Gaussian 16 at Mon Dec 14 18:25:40 2020.
 Gaussian 16:  ES64L-G16RevA.03 25-Dec-2016

 ----------------------------------------------------------------------
 # B3LYP/6-311++G(d,p) empiricaldispersion=gd3bj scf=xqc pop=npa geom=c
 heck
 ----------------------------------------------------------------------

 ------------------------------------
 CID_128420510_JID_9028_Energie_anion
 ------------------------------------
 Structure from the checkpoint file:  "JID_9028.chk"
 Charge = -1 Multiplicity = 2

                         Standard orientation:
 ---------------------------------------------------------------------
 Center     Atomic      Atomic             Coordinates (Angstroms)
 Number     Number       Type             X           Y           Z
 ---------------------------------------------------------------------
      1          6           0       -2.319926    2.880516   -0.877912
      2          6           0       -1.609428    1.525404   -0.829391
      3          6           0       -0.858095    1.406220    0.510752
      4          8           0       -1.383451    1.681513    1.589908
      5          7           0        0.406854    0.923394    0.454771
      6          6           0        1.384980    0.638378   -0.601065
      7          6           0        2.400769    0.254222    0.519474
      8          6           0        1.333311    0.697609    1.561801
      9          6           0        3.717266    1.028564    0.506193
     10          6           0        4.614466    0.522195   -0.632059
     11          6           0        4.750004   -0.999476   -0.559416
     12          8           0        3.477714   -1.639460   -0.564744
     13          6           0        2.688938   -1.245994    0.546117
     14          7           0       -2.528860    0.416606   -1.099633
     15          6           0       -1.949120   -0.813126   -1.620487
     16          6           0       -1.441559   -1.811745   -0.570327
     17         16           0       -2.797159   -2.365581    0.533312
     18          6           0       -3.405990   -0.699189    1.011709
     19          6           0       -3.666089    0.195805   -0.208743
     20          1           0       -2.944163    3.027439    0.006327
     21          1           0       -2.936163    2.943006   -1.779060
     22          1           0       -1.582264    3.690493   -0.892172
     23          1           0       -0.877618    1.495056   -1.645024
     24          1           0        1.665241    1.520295   -1.190934
     25          1           0        1.110526   -0.175188   -1.280483
     26          1           0        0.996978   -0.069323    2.269644
     27          1           0        1.574509    1.611009    2.118342
     28          1           0        4.224763    0.879796    1.470295
     29          1           0        3.527392    2.104653    0.409758
     30          1           0        5.605891    0.988596   -0.585455
     31          1           0        4.173128    0.791504   -1.600386
     32          1           0        5.290201   -1.395909   -1.423486
     33          1           0        5.303559   -1.284369    0.352197
     34          1           0        3.196523   -1.506783    1.491617
     35          1           0        1.761948   -1.825258    0.487634
     36          1           0       -2.716373   -1.318434   -2.223311
     37          1           0       -1.127408   -0.543286   -2.296544
     38          1           0       -0.638957   -1.373664    0.030413
     39          1           0       -1.055435   -2.713337   -1.056820
     40          1           0       -2.697955   -0.225972    1.693616
     41          1           0       -4.342997   -0.870793    1.551218
     42          1           0       -4.027642    1.166337    0.141224
     43          1           0       -4.466355   -0.259294   -0.808746
 ---------------------------------------------------------------------

 SCF Done:  E(UB3LYP) =  -1206.37889429     A.U. after   33 cycles
 SCF Done:  E(UB3LYP) =  -1206.37889429     a.u. after    1 cycles

 The electronic state is 2-A.
 Alpha  occ. eigenvalues --  -88.75255 -19.03794 -18.99769 -14.25351 -14.22576
 Alpha  occ. eigenvalues --  -10.17665 -10.13161 -10.12549 -10.12342 -10.12111
 Alpha  occ. eigenvalues --  -10.12068 -10.11869 -10.11701 -10.11259 -10.10754
 Alpha  occ. eigenvalues --  -10.10477 -10.07929 -10.07446 -10.07373  -7.83878
 Alpha  occ. eigenvalues --   -5.80255  -5.79927  -5.79245  -0.95329  -0.94967
 Alpha  occ. eigenvalues --   -0.87142  -0.84936  -0.72991  -0.72050  -0.68813
 Alpha  occ. eigenvalues --   -0.68474  -0.67184  -0.62531  -0.61527  -0.57703
 Alpha  occ. eigenvalues --   -0.56288  -0.55690  -0.53820  -0.51792  -0.47838
 Alpha  occ. eigenvalues --   -0.45780  -0.45579  -0.43355  -0.41212  -0.40596
 Alpha  occ. eigenvalues --   -0.40528  -0.38954  -0.37959  -0.37198  -0.36881
 Alpha  occ. eigenvalues --   -0.35293  -0.34833  -0.34404  -0.34100  -0.32799
 Alpha  occ. eigenvalues --   -0.32492  -0.32028  -0.31736  -0.31127  -0.30383
 Alpha  occ. eigenvalues --   -0.29449  -0.28856  -0.28325  -0.28105  -0.26870
 Alpha  occ. eigenvalues --   -0.26276  -0.25855  -0.24899  -0.24250  -0.23381
 Alpha  occ. eigenvalues --   -0.22402  -0.21681  -0.18130  -0.17096  -0.16031
 Alpha  occ. eigenvalues --   -0.14681  -0.11976   0.03889
 Alpha virt. eigenvalues --    0.05948   0.06795   0.06897   0.07327   0.08020
 Alpha virt. eigenvalues --    0.08299   0.08499   0.09149   0.09506   0.09820
 Alpha virt. eigenvalues --    0.09828   0.09920   0.10833   0.11025   0.11370

  Beta  occ. eigenvalues --  -88.75254 -19.03787 -18.99758 -14.25351 -14.22576
  Beta  occ. eigenvalues --  -10.17660 -10.13146 -10.12540 -10.12320 -10.12074
  Beta  occ. eigenvalues --  -10.12057 -10.11859 -10.11695 -10.11252 -10.10752
  Beta  occ. eigenvalues --  -10.10479 -10.07898 -10.07414 -10.07355  -7.83877
  Beta  occ. eigenvalues --   -5.80254  -5.79926  -5.79244  -0.95315  -0.94951
  Beta  occ. eigenvalues --   -0.87128  -0.84928  -0.72973  -0.72032  -0.68772
  Beta  occ. eigenvalues --   -0.68462  -0.67162  -0.62503  -0.61477  -0.57681
  Beta  occ. eigenvalues --   -0.56228  -0.55670  -0.53791  -0.51745  -0.47809
  Beta  occ. eigenvalues --   -0.45733  -0.45521  -0.43335  -0.41178  -0.40574
  Beta  occ. eigenvalues --   -0.40490  -0.38913  -0.37946  -0.37185  -0.36861
  Beta  occ. eigenvalues --   -0.35256  -0.34815  -0.34385  -0.34078  -0.32775
  Beta  occ. eigenvalues --   -0.32470  -0.31997  -0.31704  -0.31108  -0.30352
  Beta  occ. eigenvalues --   -0.29406  -0.28822  -0.28304  -0.28087  -0.26848
  Beta  occ. eigenvalues --   -0.26248  -0.25812  -0.24885  -0.24217  -0.23340
  Beta  occ. eigenvalues --   -0.22395  -0.21644  -0.18117  -0.17058  -0.16003
  Beta  occ. eigenvalues --   -0.14673  -0.11969
  Beta virt. eigenvalues --    0.05972   0.06563   0.07159   0.07392   0.07825
  Beta virt. eigenvalues --    0.08287   0.08574   0.08854   0.09352   0.09701
  Beta virt. eigenvalues --    0.09977   0.10059   0.10308   0.10997   0.11358

 Mulliken charges and spin densities:
               1          2
     1  C    0.454189  -1.111578
     2  C   -1.182502   0.570599
     3  C   -0.001866  -0.326236
     4  O   -0.266255   0.010518
     5  N    0.166574   0.104473
     6  C    0.641218  -1.234998
     7  C   -1.015862   1.745476
     8  C    0.197908  -0.568427
     9  C    1.006793  -1.296407
    10  C    0.097156  -0.427531
    11  C    0.620106  -0.923318
    12  O   -0.103341   0.049051
    13  C   -0.246975  -0.489053
    14  N    0.265327   0.081982
    15  C   -0.003944  -0.242445
    16  C   -0.120069  -0.007052
    17  S   -0.121171  -0.015823
    18  C   -0.391219   0.018419
    19  C   -0.033558  -0.170156
    20  H    0.142951   0.031291
    21  H    0.007783   0.164199
    22  H   -0.087705   0.244662
    23  H   -0.216777   0.431637
    24  H   -0.573878   0.776959
    25  H    0.323756  -0.126865
    26  H    0.166412   0.013380
    27  H   -0.093259   0.303457
    28  H   -0.270717   0.443913
    29  H   -0.296941   0.472115
    30  H   -0.779393   0.969371
    31  H   -0.039267   0.183143
    32  H   -0.302566   0.501830
    33  H    0.043520   0.073793
    34  H   -0.138387   0.290649
    35  H    0.100340   0.069011
    36  H    0.128761   0.041918
    37  H   -0.117045   0.296452
    38  H    0.307289  -0.247616
    39  H    0.054533   0.193480
    40  H    0.220154   0.029621
    41  H    0.204097   0.028666
    42  H    0.155228  -0.003397
    43  H    0.098605   0.050838
 Sum of Mulliken charges =  -1.00000   1.00000

 Dipole moment (field-independent basis, Debye):
    X=             -8.2605    Y=             -3.6179    Z=              1.5795  Tot=              9.1553
 Quadrupole moment (field-independent basis, Debye-Ang):
   XX=           -221.9368   YY=           -178.9236   ZZ=           -166.0407
   XY=            -10.3798   XZ=              5.7777   YZ=              1.6533

 Summary of Natural Population Analysis:

                                       Natural Population
                Natural  -----------------------------------------------
    Atom  No    Charge         Core      Valence    Rydberg      Total
 -----------------------------------------------------------------------
      C    1   -0.28870      0.99965     2.28228    0.00677     3.28870
      C    2   -0.03750      0.99954     2.02337    0.01458     3.03750
      C    3    0.33959      0.99959     1.63670    0.02411     2.66041
      O    4   -0.33234      0.99988     3.32744    0.00501     4.33234
      N    5   -0.25759      0.99964     2.74584    0.01212     3.75759
      C    6   -0.07305      0.99958     2.06193    0.01154     3.07305
      C    7   -0.05788      0.99953     2.04401    0.01434     3.05788
      C    8   -0.06875      0.99960     2.05853    0.01063     3.06875
      C    9   -0.19014      0.99958     2.17900    0.01156     3.19014
      C   10   -0.20450      0.99963     2.19585    0.00903     3.20450
      C   11   -0.00827      0.99958     1.99552    0.01317     3.00827
      O   12   -0.29935      0.99989     3.29029    0.00916     4.29935
      C   13   -0.00373      0.99950     1.99237    0.01186     3.00373
      N   14   -0.28084      0.99971     2.76629    0.01484     3.78084
      C   15   -0.08777      0.99960     2.07519    0.01298     3.08777
      C   16   -0.26335      0.99959     2.25328    0.01049     3.26335
      S   17    0.07702      4.99964     2.90631    0.01703     7.92298
      C   18   -0.26138      0.99958     2.25325    0.00855     3.26138
      C   19   -0.08928      0.99960     2.07865    0.01103     3.08928
      H   20    0.10424      0.00000     0.39471    0.00105     0.39576
      H   21    0.10176      0.00000     0.39707    0.00117     0.39824
      H   22    0.10537      0.00000     0.39371    0.00092     0.39463
      H   23    0.10263      0.00000     0.39489    0.00248     0.39737
      H   24    0.10344      0.00000     0.39398    0.00258     0.39656
      H   25    0.09732      0.00000     0.40066    0.00202     0.40268
      H   26    0.09696      0.00000     0.40200    0.00104     0.40304
      H   27    0.10219      0.00000     0.39669    0.00112     0.39781
      H   28    0.09983      0.00000     0.39838    0.00179     0.40017
      H   29    0.10744      0.00000     0.39028    0.00228     0.39256
      H   30    0.10613      0.00000     0.39142    0.00245     0.39387
      H   31    0.09964      0.00000     0.39838    0.00198     0.40036
      H   32    0.09324      0.00000     0.40539    0.00137     0.40676
      H   33    0.07648      0.00000     0.42203    0.00149     0.42352
      H   34    0.08130      0.00000     0.41731    0.00139     0.41870
      H   35    0.09201      0.00000     0.40615    0.00184     0.40799
      H   36    0.09439      0.00000     0.40400    0.00161     0.40561
      H   37    0.10017      0.00000     0.39846    0.00137     0.39983
      H   38    0.10246      0.00000     0.39540    0.00214     0.39754
      H   39    0.10707      0.00000     0.39193    0.00100     0.39293
      H   40    0.11539      0.00000     0.38297    0.00164     0.38461
      H   41    0.10287      0.00000     0.39611    0.00102     0.39713
      H   42    0.10342      0.00000     0.39542    0.00115     0.39658
      H   43    0.09202      0.00000     0.40647    0.00151     0.40798
 =======================================================================
   * Total *    0.00000     22.99289    53.73990    0.26721    77.00000

 Normal termination of Gaussian 16 at Mon Dec 14 19:07:56 2020.
