 Gaussian 16, Revision A.03,

 -----------------------------------------------------------
 # opt freq B3LYP/6-31G(d) empiricaldispersion=gd3bj scf=xqc
 -----------------------------------------------------------

 ------------------------------
 CID_61315816_JID_6622_neutraal
 ------------------------------
 Symbolic Z-matrix:
 Charge =  0 Multiplicity = 1

 SCF Done:  E(RB3LYP) =  -1122.90992916     A.U. after   15 cycles
 SCF Done:  E(RB3LYP) =  -1122.91597083     A.U. after   13 cycles
 SCF Done:  E(RB3LYP) =  -1122.91458317     A.U. after   13 cycles
 SCF Done:  E(RB3LYP) =  -1122.91768354     A.U. after   13 cycles
 SCF Done:  E(RB3LYP) =  -1122.91836256     A.U. after   12 cycles
 SCF Done:  E(RB3LYP) =  -1122.91893166     A.U. after   12 cycles
 SCF Done:  E(RB3LYP) =  -1122.91966294     A.U. after   11 cycles
 SCF Done:  E(RB3LYP) =  -1122.91983246     A.U. after   12 cycles
 SCF Done:  E(RB3LYP) =  -1122.91977360     A.U. after   11 cycles
 SCF Done:  E(RB3LYP) =  -1122.91989269     A.U. after   11 cycles
 SCF Done:  E(RB3LYP) =  -1122.91993204     A.U. after    7 cycles
 SCF Done:  E(RB3LYP) =  -1122.91993209     A.U. after    7 cycles
 SCF Done:  E(RB3LYP) =  -1122.91993215     A.U. after    7 cycles
 SCF Done:  E(RB3LYP) =  -1122.91993219     A.U. after    7 cycles
 SCF Done:  E(RB3LYP) =  -1122.91993221     A.U. after    6 cycles
 Optimization completed.
    -- Stationary point found.
 Normal termination of Gaussian 16 at Fri Dec 11 00:07:20 2020.

 --------------------------------------------------------------------
 #N Geom=AllCheck Guess=TCheck SCRF=Check GenChk RB3LYP/6-31G(d) Freq
 --------------------------------------------------------------------

 Structure from the checkpoint file:  "JID_6622.chk"
 ------------------------------
 CID_61315816_JID_6622_neutraal
 ------------------------------
 Charge =  0 Multiplicity = 1

 SCF Done:  E(RB3LYP) =  -1122.91993221     A.U. after    1 cycles

  Exact polarizability: 193.191 -14.029 134.696 -16.301  -9.899 109.658
 Approx polarizability: 264.591 -36.123 243.334 -33.363 -27.240 167.339

                      1                      2                      3
                      A                      A                      A
 Frequencies --     21.2125                31.3082                48.0903
 Red. masses --      4.9500                 4.0635                 3.7461
 Frc consts  --      0.0013                 0.0023                 0.0051
 IR Inten    --      0.8466                 1.4008                 1.6307

                      4                      5                      6
                      A                      A                      A
 Frequencies --     56.2836                72.3638                87.6095
 Red. masses --      1.0987                 3.7682                 2.2373
 Frc consts  --      0.0021                 0.0116                 0.0101
 IR Inten    --      1.3898                 1.8624                 0.2529

                      7                      8                      9
                      A                      A                      A
 Frequencies --    108.9815               117.8694               129.1836
 Red. masses --      3.0566                 4.3530                 2.9357
 Frc consts  --      0.0214                 0.0356                 0.0289
 IR Inten    --      0.3777                 0.6184                 0.1658

                     10                     11                     12
                      A                      A                      A
 Frequencies --    144.0181               193.7736               227.7015
 Red. masses --      1.2095                 2.1636                 2.5824
 Frc consts  --      0.0148                 0.0479                 0.0789
 IR Inten    --      0.9236                 7.2994                 0.8363

                     13                     14                     15
                      A                      A                      A
 Frequencies --    236.6585               250.4946               272.4433
 Red. masses --      1.7339                 2.3070                 4.0687
 Frc consts  --      0.0572                 0.0853                 0.1779
 IR Inten    --     12.3126                 7.0682                 5.1824

                     16                     17                     18
                      A                      A                      A
 Frequencies --    281.1454               290.3799               302.3041
 Red. masses --      4.5297                 2.4361                 4.6532
 Frc consts  --      0.2110                 0.1210                 0.2505
 IR Inten    --      8.0889                 6.0412                 8.7303

                     19                     20                     21
                      A                      A                      A
 Frequencies --    355.8117               375.0227               412.1300
 Red. masses --      5.1098                 4.7555                 2.5562
 Frc consts  --      0.3811                 0.3941                 0.2558
 IR Inten    --      8.1585                15.2807                 5.2905

                     22                     23                     24
                      A                      A                      A
 Frequencies --    466.7498               477.4474               509.2457
 Red. masses --      6.0388                 5.7063                 5.3110
 Frc consts  --      0.7751                 0.7664                 0.8115
 IR Inten    --      1.5001                 0.2677                15.5051

                     25                     26                     27
                      A                      A                      A
 Frequencies --    547.1603               569.7135               628.1037
 Red. masses --      8.7515                 3.8882                 2.5539
 Frc consts  --      1.5437                 0.7435                 0.5936
 IR Inten    --      1.9832                10.4863                68.3134

                     28                     29                     30
                      A                      A                      A
 Frequencies --    673.9890               688.0252               721.4660
 Red. masses --      4.4403                 5.5526                 2.2238
 Frc consts  --      1.1884                 1.5487                 0.6820
 IR Inten    --     13.6508                11.0404               138.3724

                     31                     32                     33
                      A                      A                      A
 Frequencies --    725.7006               739.8763               754.4905
 Red. masses --      3.0542                 4.6456                 6.0894
 Frc consts  --      0.9477                 1.4983                 2.0424
 IR Inten    --     51.4934                 6.9895                75.9171

                     34                     35                     36
                      A                      A                      A
 Frequencies --    808.9840               854.4767               923.2627
 Red. masses --      5.5584                 1.5176                 2.1704
 Frc consts  --      2.1433                 0.6529                 1.0901
 IR Inten    --      5.2364                14.0922                 9.6377

                     37                     38                     39
                      A                      A                      A
 Frequencies --    966.5019              1005.6214              1034.7977
 Red. masses --      5.4653                 2.8101                 2.2524
 Frc consts  --      3.0079                 1.6743                 1.4211
 IR Inten    --     20.6453                29.6227                13.9746

                     40                     41                     42
                      A                      A                      A
 Frequencies --   1056.7639              1088.1825              1095.5865
 Red. masses --      1.3824                 1.6015                 1.3929
 Frc consts  --      0.9096                 1.1173                 0.9851
 IR Inten    --      1.0767                52.0003                 6.4084

                     43                     44                     45
                      A                      A                      A
 Frequencies --   1106.9666              1141.9302              1182.0371
 Red. masses --      5.6353                 1.2241                 2.3953
 Frc consts  --      4.0685                 0.9405                 1.9718
 IR Inten    --    238.4692                 1.9376                46.8962

                     46                     47                     48
                      A                      A                      A
 Frequencies --   1182.7506              1208.9276              1235.1528
 Red. masses --      1.4213                 2.3201                 3.0974
 Frc consts  --      1.1714                 1.9978                 2.7841
 IR Inten    --      2.2753                47.5121                56.9546

                     49                     50                     51
                      A                      A                      A
 Frequencies --   1250.4831              1294.1198              1305.7391
 Red. masses --      1.5684                 4.6903                 1.1689
 Frc consts  --      1.4450                 4.6281                 1.1742
 IR Inten    --     80.6956               120.7411                33.8910

                     52                     53                     54
                      A                      A                      A
 Frequencies --   1310.1429              1395.2600              1440.6283
 Red. masses --      5.8530                 1.3996                 1.3275
 Frc consts  --      5.9193                 1.6053                 1.6233
 IR Inten    --    329.7545                16.4117                 1.9236

                     55                     56                     57
                      A                      A                      A
 Frequencies --   1448.8829              1459.8639              1469.1155
 Red. masses --      1.8671                 1.3947                 3.5580
 Frc consts  --      2.3093                 1.7513                 4.5244
 IR Inten    --     79.0816                32.8371                92.4508

                     58                     59                     60
                      A                      A                      A
 Frequencies --   1493.4483              1503.9839              1508.0082
 Red. masses --      1.1291                 1.1674                 1.2006
 Frc consts  --      1.4837                 1.5558                 1.6087
 IR Inten    --      8.2315                21.3564                29.0719

                     61                     62                     63
                      A                      A                      A
 Frequencies --   1512.5556              1517.8967              1524.0555
 Red. masses --      1.1199                 2.7006                 1.1443
 Frc consts  --      1.5096                 3.6660                 1.5661
 IR Inten    --     34.6596               134.3113                17.1974

                     64                     65                     66
                      A                      A                      A
 Frequencies --   1524.4468              1535.9791              1566.2442
 Red. masses --      1.0758                 1.0513                 1.2657
 Frc consts  --      1.4729                 1.4613                 1.8294
 IR Inten    --      9.6142                11.4986                35.6533

                     67                     68                     69
                      A                      A                      A
 Frequencies --   1633.3202              1695.4361              1769.6731
 Red. masses --      5.0593                 1.1694                 9.7974
 Frc consts  --      7.9521                 1.9805                18.0779
 IR Inten    --     47.6158                78.6537               251.1276

                     70                     71                     72
                      A                      A                      A
 Frequencies --   1795.8954              3025.4662              3031.4389
 Red. masses --     12.1394                 1.0416                 1.0408
 Frc consts  --     23.0679                 5.6175                 5.6353
 IR Inten    --    317.7914                42.3251                33.9438

                     73                     74                     75
                      A                      A                      A
 Frequencies --   3038.5107              3073.2028              3082.6886
 Red. masses --      1.0425                 1.0993                 1.1027
 Frc consts  --      5.6707                 6.1174                 6.1738
 IR Inten    --     68.5319                19.2678                70.6180

                     76                     77                     78
                      A                      A                      A
 Frequencies --   3086.8735              3100.7980              3132.8699
 Red. masses --      1.1028                 1.0612                 1.0973
 Frc consts  --      6.1913                 6.0116                 6.3455
 IR Inten    --      7.9903                22.7640                 7.2594

                     79                     80                     81
                      A                      A                      A
 Frequencies --   3170.7206              3193.7594              3196.1728
 Red. masses --      1.1052                 1.0964                 1.0947
 Frc consts  --      6.5463                 6.5891                 6.5888
 IR Inten    --      2.9316                 0.4245                 9.3172

                     82                     83                     84
                      A                      A                      A
 Frequencies --   3234.0900              3531.2883              3626.7567
 Red. masses --      1.0931                 1.0484                 1.0967
 Frc consts  --      6.7359                 7.7024                 8.4992
 IR Inten    --      1.7172                 5.7443                 7.2116

 - Thermochemistry -
 -------------------
 Temperature   298.150 Kelvin.  Pressure   1.00000 Atm.
 Atom     1 has atomic number  6 and mass  12.00000

 Molecular mass:   242.07251 amu.
 Principal axes and moments of inertia in atomic units:
                           1         2         3
     Eigenvalues --  1761.465207772.636208073.93558
           X            0.99997   0.00389   0.00625
           Y           -0.00388   0.99999  -0.00180
           Z           -0.00626   0.00178   0.99998
 This molecule is an asymmetric top.
 Rotational symmetry number  1.
 Warning -- assumption of classical behavior for rotation
           may cause significant error
 Rotational temperatures (Kelvin)      0.04917     0.01114     0.01073
 Rotational constants (GHZ):           1.02457     0.23219     0.22353
 Zero-point vibrational energy     627372.6 (Joules/Mol)
                                  149.94565 (Kcal/Mol)
 Warning -- explicit consideration of  26 degrees of freedom as
           vibrations may cause significant error
 Vibrational temperatures:     30.52    45.05    69.19    80.98   104.12
          (Kelvin)            126.05   156.80   169.59   185.87   207.21
                              278.80   327.61   340.50   360.41   391.99
                              404.51   417.79   434.95   511.93   539.57
                              592.96   671.55   686.94   732.69   787.24
                              819.69   903.70   969.72   989.91  1038.03
                             1044.12  1064.52  1085.54  1163.95  1229.40
                             1328.37  1390.58  1446.86  1488.84  1520.45
                             1565.65  1576.30  1592.68  1642.98  1700.69
                             1701.71  1739.38  1777.11  1799.17  1861.95
                             1878.67  1885.00  2007.47  2072.74  2084.62
                             2100.42  2113.73  2148.74  2163.90  2169.69
                             2176.23  2183.91  2192.78  2193.34  2209.93
                             2253.48  2349.98  2439.35  2546.16  2583.89
                             4352.97  4361.56  4371.74  4421.65  4435.30
                             4441.32  4461.36  4507.50  4561.96  4595.11
                             4598.58  4653.13  5080.74  5218.09

 Zero-point correction=                           0.238954 (Hartree/Particle)
 Thermal correction to Energy=                    0.256816
 Thermal correction to Enthalpy=                  0.257760
 Thermal correction to Gibbs Free Energy=         0.190916
 Sum of electronic and zero-point Energies=          -1122.680979
 Sum of electronic and thermal Energies=             -1122.663116
 Sum of electronic and thermal Enthalpies=           -1122.662172
 Sum of electronic and thermal Free Energies=        -1122.729016

                     E (Thermal)             CV                S
                      KCal/Mol        Cal/Mol-Kelvin    Cal/Mol-Kelvin
 Total                  161.154             62.756            140.685
 Electronic               0.000              0.000              0.000
 Translational            0.889              2.981             42.353
 Rotational               0.889              2.981             33.069
 Vibrational            159.377             56.795             65.263
 Vibration     1          0.593              1.985              6.517
 Vibration     2          0.594              1.983              5.745
 Vibration     3          0.595              1.978              4.894
 Vibration     4          0.596              1.975              4.583
 Vibration     5          0.598              1.967              4.088
 Vibration     6          0.601              1.958              3.713
 Vibration     7          0.606              1.942              3.287
 Vibration     8          0.608              1.934              3.135
 Vibration     9          0.612              1.924              2.958
 Vibration    10          0.616              1.909              2.750
 Vibration    11          0.635              1.849              2.191
 Vibration    12          0.651              1.799              1.897
 Vibration    13          0.656              1.785              1.828
 Vibration    14          0.663              1.762              1.727
 Vibration    15          0.675              1.724              1.581
 Vibration    16          0.681              1.709              1.527
 Vibration    17          0.686              1.692              1.472
 Vibration    18          0.694              1.669              1.404
 Vibration    19          0.731              1.563              1.140
 Vibration    20          0.746              1.523              1.059
 Vibration    21          0.776              1.444              0.919
 Vibration    22          0.824              1.324              0.747
 Vibration    23          0.834              1.300              0.717
 Vibration    24          0.864              1.230              0.635
 Vibration    25          0.902              1.146              0.550
 Vibration    26          0.926              1.097              0.505

 Optimization completed.
    -- Stationary point found.
 Normal termination of Gaussian 16 at Fri Dec 11 00:16:03 2020.

 ----------------------------------------------------------------------
 # B3LYP/6-311++G(d,p) empiricaldispersion=gd3bj scf=xqc pop=npa geom=c
 heck
 ----------------------------------------------------------------------

 --------------------------------------
 CID_61315816_JID_6622_Energie_neutraal
 --------------------------------------
 Structure from the checkpoint file:  "JID_6622.chk"
 Charge =  0 Multiplicity = 1

 SCF Done:  E(RB3LYP) =  -1123.16095079     A.U. after   16 cycles
 Normal termination of Gaussian 16 at Fri Dec 11 00:19:55 2020.

 ----------------------------------------------------------------------
 # B3LYP/6-311++G(d,p) empiricaldispersion=gd3bj scf=xqc pop=npa geom=c
 heck
 ----------------------------------------------------------------------

 ------------------------------------
 CID_61315816_JID_6622_Energie_kation
 ------------------------------------
 Structure from the checkpoint file:  "JID_6622.chk"
 Charge =  1 Multiplicity = 2

 SCF Done:  E(UB3LYP) =  -1122.87755845     A.U. after   27 cycles
 Normal termination of Gaussian 16 at Fri Dec 11 00:28:49 2020.
 Gaussian 16:  ES64L-G16RevA.03 25-Dec-2016

 ----------------------------------------------------------------------
 # B3LYP/6-311++G(d,p) empiricaldispersion=gd3bj scf=xqc pop=npa geom=c
 heck
 ----------------------------------------------------------------------

 -----------------------------------
 CID_61315816_JID_6622_Energie_anion
 -----------------------------------
 Structure from the checkpoint file:  "JID_6622.chk"
 Charge = -1 Multiplicity = 2

                         Standard orientation:
 ---------------------------------------------------------------------
 Center     Atomic      Atomic             Coordinates (Angstroms)
 Number     Number       Type             X           Y           Z
 ---------------------------------------------------------------------
      1          6           0       -4.690716   -0.608588    0.987977
      2          6           0       -3.359653   -0.290641    0.379844
      3          6           0       -3.005968    0.885991   -0.257928
      4          6           0       -1.655127    0.876581   -0.706399
      5          6           0       -0.999985   -0.297092   -0.409665
      6         16           0       -2.031750   -1.411354    0.435744
      7          6           0        0.380071   -0.682291   -0.693010
      8          8           0        0.888773   -1.742161   -0.385631
      9          8           0        1.048772    0.311606   -1.341614
     10          6           0        2.442171    0.055118   -1.578543
     11          6           0        3.329025   -0.105746   -0.336059
     12          8           0        4.271802   -0.884946   -0.408126
     13          7           0        3.056541    0.637621    0.779380
     14          6           0        2.122951    1.750124    0.862697
     15          6           0        3.810872    0.361096    1.992293
     16          7           0       -3.854344    1.996925   -0.385576
     17          1           0       -4.734682   -1.639619    1.349239
     18          1           0       -5.501946   -0.485932    0.256358
     19          1           0       -4.910478    0.052449    1.836685
     20          1           0       -1.178182    1.699347   -1.226104
     21          1           0        2.565717   -0.867847   -2.145358
     22          1           0        2.779971    0.902891   -2.180749
     23          1           0        1.215277    1.476496    1.417300
     24          1           0        2.609474    2.580936    1.387936
     25          1           0        1.826308    2.094340   -0.125485
     26          1           0        3.121673    0.219884    2.833706
     27          1           0        4.397233   -0.542974    1.836559
     28          1           0        4.487440    1.192770    2.230802
     29          1           0       -4.839489    1.758861   -0.353732
     30          1           0       -3.662315    2.554935   -1.209967
 ---------------------------------------------------------------------

 SCF Done:  E(UB3LYP) =  -1123.16738340     A.U. after   33 cycles
 SCF Done:  E(UB3LYP) =  -1123.16738340     a.u. after    1 cycles

 The electronic state is 2-A.
 Alpha  occ. eigenvalues --  -88.72263 -19.03278 -18.98622 -18.95013 -14.24982
 Alpha  occ. eigenvalues --  -14.19561 -10.17238 -10.13732 -10.12644 -10.10972
 Alpha  occ. eigenvalues --  -10.10962 -10.07024 -10.05985 -10.04804 -10.04527
 Alpha  occ. eigenvalues --  -10.02355  -7.80900  -5.77203  -5.76849  -5.76485
 Alpha  occ. eigenvalues --   -0.97076  -0.93849  -0.87346  -0.84135  -0.79373
 Alpha  occ. eigenvalues --   -0.72477  -0.65512  -0.63618  -0.62602  -0.59498
 Alpha  occ. eigenvalues --   -0.58041  -0.55141  -0.48641  -0.45564  -0.44021
 Alpha  occ. eigenvalues --   -0.41721  -0.39739  -0.39317  -0.38147  -0.36758
 Alpha  occ. eigenvalues --   -0.36010  -0.34592  -0.33429  -0.32565  -0.31467
 Alpha  occ. eigenvalues --   -0.31356  -0.31052  -0.30708  -0.29756  -0.29362
 Alpha  occ. eigenvalues --   -0.28244  -0.26468  -0.25035  -0.24638  -0.23665
 Alpha  occ. eigenvalues --   -0.23390  -0.20341  -0.19044  -0.17927  -0.15487
 Alpha  occ. eigenvalues --   -0.14912  -0.13686  -0.10761  -0.07312   0.04445
 Alpha virt. eigenvalues --    0.06551   0.06853   0.08369   0.08918   0.09476
 Alpha virt. eigenvalues --    0.10135   0.10797   0.11438   0.11678   0.12292
 Alpha virt. eigenvalues --    0.12811   0.13075   0.13403   0.13771   0.14426

  Beta  occ. eigenvalues --  -88.72220 -19.03219 -18.98619 -18.94716 -14.24982
  Beta  occ. eigenvalues --  -14.19536 -10.17231 -10.13471 -10.12647 -10.10971
  Beta  occ. eigenvalues --  -10.10961 -10.07128 -10.05993 -10.04525 -10.04398
  Beta  occ. eigenvalues --  -10.02078  -7.80862  -5.77186  -5.76832  -5.76340
  Beta  occ. eigenvalues --   -0.96839  -0.93823  -0.86890  -0.84129  -0.79300
  Beta  occ. eigenvalues --   -0.72196  -0.65345  -0.63426  -0.62529  -0.59421
  Beta  occ. eigenvalues --   -0.57721  -0.54865  -0.48280  -0.45486  -0.43839
  Beta  occ. eigenvalues --   -0.41582  -0.39657  -0.39248  -0.38031  -0.36573
  Beta  occ. eigenvalues --   -0.35937  -0.34447  -0.33065  -0.32284  -0.31463
  Beta  occ. eigenvalues --   -0.31252  -0.30846  -0.30571  -0.29647  -0.29319
  Beta  occ. eigenvalues --   -0.27559  -0.26268  -0.24854  -0.24416  -0.23364
  Beta  occ. eigenvalues --   -0.23126  -0.20079  -0.18559  -0.17233  -0.15267
  Beta  occ. eigenvalues --   -0.14893  -0.13400  -0.09264  -0.06317
  Beta virt. eigenvalues --    0.06612   0.07177   0.08441   0.09096   0.09423
  Beta virt. eigenvalues --    0.09711   0.10364   0.11079   0.11433   0.11826
  Beta virt. eigenvalues --    0.12241   0.12782   0.13051   0.13416   0.13909

 Mulliken charges and spin densities:
               1          2
     1  C    0.062655  -0.819408
     2  C   -0.179409   0.706148
     3  C   -0.131041  -0.118332
     4  C   -0.002037   0.120159
     5  C    0.420684  -0.173873
     6  S   -0.625700   0.102152
     7  C   -0.022630   0.119030
     8  O   -0.302013   0.102312
     9  O    0.025911   0.008287
    10  C   -0.360264  -0.006720
    11  C    0.140904   0.003167
    12  O   -0.343944   0.000698
    13  N    0.018989  -0.000940
    14  C   -0.440425  -0.001667
    15  C   -0.292905  -0.006116
    16  N   -0.322533  -0.040321
    17  H    0.072478   0.064012
    18  H   -0.159979   0.302601
    19  H    0.126115   0.028536
    20  H    0.004120   0.097242
    21  H    0.227947   0.001158
    22  H    0.162467   0.002415
    23  H    0.198361   0.003136
    24  H    0.133798  -0.001887
    25  H    0.172875   0.000872
    26  H    0.136636   0.005174
    27  H    0.172535   0.000042
    28  H    0.135950   0.002548
    29  H    0.007464   0.225815
    30  H   -0.037010   0.273757
 Sum of Mulliken charges =  -1.00000   1.00000

 Dipole moment (field-independent basis, Debye):
    X=              4.4713    Y=              4.0986    Z=              2.1536  Tot=              6.4365
 Quadrupole moment (field-independent basis, Debye-Ang):
   XX=           -170.4614   YY=           -126.9279   ZZ=           -111.5621
   XY=             18.3449   XZ=              0.8704   YZ=             -0.1564

 Summary of Natural Population Analysis:

                                       Natural Population
                Natural  -----------------------------------------------
    Atom  No    Charge         Core      Valence    Rydberg      Total
 -----------------------------------------------------------------------
      C    1   -0.30262      0.99963     2.29621    0.00678     3.30262
      C    2   -0.08154      0.99946     2.06943    0.01265     3.08154
      C    3    0.02559      0.99938     1.96264    0.01239     2.97441
      C    4   -0.06446      0.99945     2.05402    0.01099     3.06446
      C    5   -0.13690      0.99945     2.12482    0.01263     3.13690
      S    6    0.22549      4.99940     2.75325    0.02186     7.77451
      C    7    0.41014      0.99956     1.56504    0.02526     2.58986
      O    8   -0.28905      0.99987     3.28436    0.00481     4.28905
      O    9   -0.28739      0.99987     3.27910    0.00842     4.28739
      C   10   -0.05501      0.99953     2.04416    0.01131     3.05501
      C   11    0.34075      0.99965     1.63800    0.02160     2.65925
      O   12   -0.32875      0.99988     3.32238    0.00649     4.32875
      N   13   -0.25316      0.99964     2.74443    0.00909     3.75316
      C   14   -0.17636      0.99965     2.17021    0.00650     3.17636
      C   15   -0.17789      0.99966     2.17177    0.00647     3.17789
      N   16   -0.40752      0.99972     2.89682    0.01099     3.90752
      H   17    0.10318      0.00000     0.39618    0.00065     0.39682
      H   18    0.10103      0.00000     0.39701    0.00196     0.39897
      H   19    0.10047      0.00000     0.39839    0.00115     0.39953
      H   20    0.09988      0.00000     0.39875    0.00137     0.40012
      H   21    0.10782      0.00000     0.39090    0.00128     0.39218
      H   22    0.09394      0.00000     0.40513    0.00094     0.40606
      H   23    0.10235      0.00000     0.39668    0.00098     0.39765
      H   24    0.08555      0.00000     0.41340    0.00105     0.41445
      H   25    0.10954      0.00000     0.38952    0.00094     0.39046
      H   26    0.09260      0.00000     0.40635    0.00104     0.40740
      H   27    0.11546      0.00000     0.38344    0.00110     0.38454
      H   28    0.08538      0.00000     0.41348    0.00114     0.41462
      H   29    0.18040      0.00000     0.31794    0.00166     0.31960
      H   30    0.18110      0.00000     0.31701    0.00189     0.31890
 =======================================================================
   * Total *   -0.00000     19.99380    43.80081    0.20540    64.00000

 Normal termination of Gaussian 16 at Fri Dec 11 00:39:35 2020.
