 Gaussian 16, Revision A.03,

 -----------------------------------------------------------
 # opt freq B3LYP/6-31G(d) empiricaldispersion=gd3bj scf=xqc
 -----------------------------------------------------------

 ------------------------------
 CID_76026870_JID_9493_neutraal
 ------------------------------
 Symbolic Z-matrix:
 Charge =  0 Multiplicity = 1

 SCF Done:  E(RB3LYP) =  -867.050830250     A.U. after   19 cycles
 SCF Done:  E(RB3LYP) =  -867.061852032     A.U. after   14 cycles
 SCF Done:  E(RB3LYP) =  -867.063684332     A.U. after   13 cycles
 SCF Done:  E(RB3LYP) =  -867.064499391     A.U. after   13 cycles
 SCF Done:  E(RB3LYP) =  -867.064986846     A.U. after   13 cycles
 SCF Done:  E(RB3LYP) =  -867.065259722     A.U. after   13 cycles
 SCF Done:  E(RB3LYP) =  -867.065477980     A.U. after   13 cycles
 SCF Done:  E(RB3LYP) =  -867.065681290     A.U. after   14 cycles
 SCF Done:  E(RB3LYP) =  -867.065757607     A.U. after   14 cycles
 SCF Done:  E(RB3LYP) =  -867.065794747     A.U. after   11 cycles
 SCF Done:  E(RB3LYP) =  -867.065810284     A.U. after   10 cycles
 SCF Done:  E(RB3LYP) =  -867.065818667     A.U. after   11 cycles
 SCF Done:  E(RB3LYP) =  -867.065820150     A.U. after    9 cycles
 SCF Done:  E(RB3LYP) =  -867.065820739     A.U. after   10 cycles
 SCF Done:  E(RB3LYP) =  -867.065820816     A.U. after    7 cycles
 SCF Done:  E(RB3LYP) =  -867.065820867     A.U. after    7 cycles
 Optimization completed.
    -- Stationary point found.
 Normal termination of Gaussian 16 at Mon Dec 14 13:23:11 2020.

 --------------------------------------------------------------------
 #N Geom=AllCheck Guess=TCheck SCRF=Check GenChk RB3LYP/6-31G(d) Freq
 --------------------------------------------------------------------

 Structure from the checkpoint file:  "JID_9493.chk"
 ------------------------------
 CID_76026870_JID_9493_neutraal
 ------------------------------
 Charge =  0 Multiplicity = 1

 SCF Done:  E(RB3LYP) =  -867.065820867     A.U. after    1 cycles

  Exact polarizability: 331.625   4.757 161.671   1.617  -7.659  72.201
 Approx polarizability: 473.034  11.868 315.156   7.679 -18.669 120.835

                      1                      2                      3
                      A                      A                      A
 Frequencies --     18.7669                33.8934                55.2760
 Red. masses --      6.2197                 3.9477                 7.1801
 Frc consts  --      0.0013                 0.0027                 0.0129
 IR Inten    --      3.4910                 0.8946                 2.2040

                      4                      5                      6
                      A                      A                      A
 Frequencies --     98.4420               131.4356               160.9216
 Red. masses --      6.4160                 6.5424                 9.0305
 Frc consts  --      0.0366                 0.0666                 0.1378
 IR Inten    --      2.5842                 0.2731                 1.1163

                      7                      8                      9
                      A                      A                      A
 Frequencies --    165.4642               244.3359               255.5849
 Red. masses --      4.9252                 6.2485                 5.7014
 Frc consts  --      0.0794                 0.2198                 0.2194
 IR Inten    --      9.6508                 0.3757                 0.7567

                     10                     11                     12
                      A                      A                      A
 Frequencies --    265.2875               317.0022               347.1142
 Red. masses --      6.9280                 1.2583                 1.3978
 Frc consts  --      0.2873                 0.0745                 0.0992
 IR Inten    --      0.7564               285.5563                18.3581

                     13                     14                     15
                      A                      A                      A
 Frequencies --    350.5433               361.0193               382.9020
 Red. masses --      2.3725                 3.4501                 4.0350
 Frc consts  --      0.1718                 0.2649                 0.3485
 IR Inten    --      2.2830                 3.8228                 2.0031

                     16                     17                     18
                      A                      A                      A
 Frequencies --    417.1205               428.5329               447.7177
 Red. masses --      3.2166                 4.4564                 6.7021
 Frc consts  --      0.3297                 0.4822                 0.7915
 IR Inten    --      0.8651                14.8348                28.0299

                     19                     20                     21
                      A                      A                      A
 Frequencies --    483.5214               498.4913               510.9928
 Red. masses --      5.0740                 2.1519                 4.2507
 Frc consts  --      0.6989                 0.3150                 0.6539
 IR Inten    --     72.2943               182.0988               107.7084

                     22                     23                     24
                      A                      A                      A
 Frequencies --    533.5933               566.4325               581.5337
 Red. masses --      2.3238                 6.8308                 3.2952
 Frc consts  --      0.3898                 1.2913                 0.6566
 IR Inten    --    220.9397                13.2265                 4.7929

                     25                     26                     27
                      A                      A                      A
 Frequencies --    608.0090               612.8778               645.1692
 Red. masses --      2.1633                 1.6117                 5.8966
 Frc consts  --      0.4712                 0.3567                 1.4461
 IR Inten    --      6.6959                 3.9797                 7.3435

                     28                     29                     30
                      A                      A                      A
 Frequencies --    656.7852               663.6460               689.1194
 Red. masses --      6.5386                 4.0338                 5.6726
 Frc consts  --      1.6618                 1.0467                 1.5872
 IR Inten    --      2.1506                 5.5781                11.5810

                     31                     32                     33
                      A                      A                      A
 Frequencies --    740.0224               753.6687               778.2018
 Red. masses --      4.4140                 8.6941                 7.7018
 Frc consts  --      1.4242                 2.9096                 2.7481
 IR Inten    --      1.9025                14.2880                10.8843

                     34                     35                     36
                      A                      A                      A
 Frequencies --    819.2814               845.7328               851.5607
 Red. masses --      1.3454                 1.7587                 4.1872
 Frc consts  --      0.5321                 0.7411                 1.7890
 IR Inten    --     10.9789                29.0049                 8.9150

                     37                     38                     39
                      A                      A                      A
 Frequencies --    873.8766               906.4848               936.1333
 Red. masses --      6.2241                 6.9496                 1.3279
 Frc consts  --      2.8004                 3.3646                 0.6857
 IR Inten    --      8.5847                 7.3426                 0.1022

                     40                     41                     42
                      A                      A                      A
 Frequencies --    953.9736               990.8278              1004.6377
 Red. masses --      1.8155                 1.3844                 4.4355
 Frc consts  --      0.9735                 0.8008                 2.6376
 IR Inten    --      1.0475                 2.5015                12.9148

                     43                     44                     45
                      A                      A                      A
 Frequencies --   1012.7244              1029.0636              1051.2788
 Red. masses --      4.4101                 3.7150                 3.2829
 Frc consts  --      2.6649                 2.3179                 2.1377
 IR Inten    --     46.6256                12.1930                 3.8425

                     46                     47                     48
                      A                      A                      A
 Frequencies --   1084.2706              1090.9223              1126.4762
 Red. masses --      2.0681                 1.5596                 2.7075
 Frc consts  --      1.4325                 1.0936                 2.0243
 IR Inten    --     64.8159                 5.1590                 7.4890

                     49                     50                     51
                      A                      A                      A
 Frequencies --   1160.1539              1172.5611              1220.6203
 Red. masses --      1.5403                 1.2290                 1.1678
 Frc consts  --      1.2215                 0.9956                 1.0252
 IR Inten    --      1.9788                 8.8742               125.0064

                     52                     53                     54
                      A                      A                      A
 Frequencies --   1241.4022              1280.3919              1302.8441
 Red. masses --      1.8990                 5.0121                 2.4183
 Frc consts  --      1.7243                 4.8413                 2.4185
 IR Inten    --     16.1685               167.8317                46.4830

                     55                     56                     57
                      A                      A                      A
 Frequencies --   1324.6086              1344.9797              1351.3368
 Red. masses --      3.4744                 3.0335                 1.6929
 Frc consts  --      3.5918                 3.2331                 1.8214
 IR Inten    --     97.1803                92.4550                12.3521

                     58                     59                     60
                      A                      A                      A
 Frequencies --   1387.4043              1422.7219              1455.9115
 Red. masses --      3.4827                 2.5980                 2.1796
 Frc consts  --      3.9498                 3.0983                 2.7221
 IR Inten    --      0.8044               474.5211                15.5999

                     61                     62                     63
                      A                      A                      A
 Frequencies --   1492.2196              1553.8981              1573.0066
 Red. masses --      3.0914                 3.0642                 2.7248
 Frc consts  --      4.0558                 4.3593                 3.9724
 IR Inten    --     41.8305               150.9745                45.8575

                     64                     65                     66
                      A                      A                      A
 Frequencies --   1609.0193              1628.0751              1657.7334
 Red. masses --      7.2764                 6.2339                 2.3478
 Frc consts  --     11.0991                 9.7355                 3.8013
 IR Inten    --    221.1056                16.3746               187.6748

                     67                     68                     69
                      A                      A                      A
 Frequencies --   1672.5245              1689.4329              1694.0484
 Red. masses --      3.2322                 5.5194                 1.5752
 Frc consts  --      5.3271                 9.2817                 2.6634
 IR Inten    --    104.3402               678.9787               502.9750

                     70                     71                     72
                      A                      A                      A
 Frequencies --   1702.8567              1820.7267              2969.4961
 Red. masses --      5.3083                12.3928                 1.0791
 Frc consts  --      9.0690                24.2052                 5.6062
 IR Inten    --     18.4892               222.1637                 9.4832

                     73                     74                     75
                      A                      A                      A
 Frequencies --   3164.5300              3183.2050              3183.5583
 Red. masses --      1.0899                 1.0893                 1.0889
 Frc consts  --      6.4304                 6.5031                 6.5024
 IR Inten    --     19.8972                 9.8246                28.7004

                     76                     77                     78
                      A                      A                      A
 Frequencies --   3210.3116              3229.2851              3570.4757
 Red. masses --      1.0918                 1.0924                 1.0472
 Frc consts  --      6.6294                 6.7117                 7.8659
 IR Inten    --     16.0940                 2.1660                55.1221

                     79                     80                     81
                      A                      A                      A
 Frequencies --   3607.4935              3673.1729              3739.0379
 Red. masses --      1.0445                 1.0999                 1.1062
 Frc consts  --      8.0090                 8.7437                 9.1117
 IR Inten    --    158.1363                14.8011                60.1332

 - Thermochemistry -
 -------------------
 Temperature   298.150 Kelvin.  Pressure   1.00000 Atm.
 Atom     1 has atomic number  6 and mass  12.00000

 Molecular mass:   254.09161 amu.
 Principal axes and moments of inertia in atomic units:
                           1         2         3
     Eigenvalues --  1583.34946********************
           X            1.00000   0.00290  -0.00050
           Y           -0.00290   0.99993  -0.01133
           Z            0.00047   0.01133   0.99994
 This molecule is an asymmetric top.
 Rotational symmetry number  1.
 Warning -- assumption of classical behavior for rotation
           may cause significant error
 Rotational temperatures (Kelvin)      0.05470     0.00844     0.00751
 Rotational constants (GHZ):           1.13982     0.17584     0.15642
 Zero-point vibrational energy     572232.0 (Joules/Mol)
                                  136.76672 (Kcal/Mol)
 Warning -- explicit consideration of  26 degrees of freedom as
           vibrations may cause significant error
 Vibrational temperatures:     27.00    48.76    79.53   141.64   189.11
          (Kelvin)            231.53   238.07   351.54   367.73   381.69
                              456.10   499.42   504.35   519.43   550.91
                              600.14   616.56   644.17   695.68   717.22
                              735.20   767.72   814.97   836.70   874.79
                              881.79   928.25   944.97   954.84   991.49
                             1064.73  1084.36  1119.66  1178.76  1216.82
                             1225.21  1257.31  1304.23  1346.89  1372.56
                             1425.58  1445.45  1457.08  1480.59  1512.56
                             1560.02  1569.59  1620.75  1669.20  1687.05
                             1756.20  1786.10  1842.20  1874.50  1905.82
                             1935.13  1944.27  1996.17  2046.98  2094.73
                             2146.97  2235.71  2263.21  2315.02  2342.44
                             2385.11  2406.39  2430.72  2437.36  2450.03
                             2619.62  4272.44  4553.05  4579.92  4580.43
                             4618.92  4646.22  5137.12  5190.38  5284.88
                             5379.64

 Zero-point correction=                           0.217952 (Hartree/Particle)
 Thermal correction to Energy=                    0.233266
 Thermal correction to Enthalpy=                  0.234210
 Thermal correction to Gibbs Free Energy=         0.174038
 Sum of electronic and zero-point Energies=           -866.847869
 Sum of electronic and thermal Energies=              -866.832555
 Sum of electronic and thermal Enthalpies=            -866.831611
 Sum of electronic and thermal Free Energies=         -866.891783

                     E (Thermal)             CV                S
                      KCal/Mol        Cal/Mol-Kelvin    Cal/Mol-Kelvin
 Total                  146.377             60.430            126.644
 Electronic               0.000              0.000              0.000
 Translational            0.889              2.981             42.498
 Rotational               0.889              2.981             33.594
 Vibrational            144.599             54.469             50.553
 Vibration     1          0.593              1.986              6.761
 Vibration     2          0.594              1.983              5.587
 Vibration     3          0.596              1.975              4.619
 Vibration     4          0.604              1.950              3.485
 Vibration     5          0.612              1.922              2.925
 Vibration     6          0.622              1.890              2.539
 Vibration     7          0.624              1.885              2.486
 Vibration     8          0.660              1.772              1.771
 Vibration     9          0.666              1.753              1.692
 Vibration    10          0.671              1.737              1.627
 Vibration    11          0.704              1.641              1.326
 Vibration    12          0.725              1.581              1.179
 Vibration    13          0.727              1.574              1.164
 Vibration    14          0.735              1.553              1.118
 Vibration    15          0.752              1.507              1.028
 Vibration    16          0.780              1.433              0.902
 Vibration    17          0.790              1.408              0.863
 Vibration    18          0.807              1.366              0.803
 Vibration    19          0.840              1.287              0.701
 Vibration    20          0.854              1.253              0.662
 Vibration    21          0.866              1.226              0.631
 Vibration    22          0.889              1.176              0.579
 Vibration    23          0.922              1.104              0.511
 Vibration    24          0.938              1.071              0.483
 Vibration    25          0.967              1.015              0.436
 Vibration    26          0.972              1.005              0.428

                           ! Non-Optimized Parameters !
 Normal termination of Gaussian 16 at Mon Dec 14 13:35:23 2020.

 ----------------------------------------------------------------------
 # B3LYP/6-311++G(d,p) empiricaldispersion=gd3bj scf=xqc pop=npa geom=c
 heck
 ----------------------------------------------------------------------

 --------------------------------------
 CID_76026870_JID_9493_Energie_neutraal
 --------------------------------------
 Structure from the checkpoint file:  "JID_9493.chk"
 Charge =  0 Multiplicity = 1

 SCF Done:  E(RB3LYP) =  -867.307507127     A.U. after   18 cycles
 Normal termination of Gaussian 16 at Mon Dec 14 13:41:12 2020.

 ----------------------------------------------------------------------
 # B3LYP/6-311++G(d,p) empiricaldispersion=gd3bj scf=xqc pop=npa geom=c
 heck
 ----------------------------------------------------------------------

 ------------------------------------
 CID_76026870_JID_9493_Energie_kation
 ------------------------------------
 Structure from the checkpoint file:  "JID_9493.chk"
 Charge =  1 Multiplicity = 2

 SCF Done:  E(UB3LYP) =  -867.026118752     A.U. after   27 cycles
 Normal termination of Gaussian 16 at Mon Dec 14 13:53:15 2020.
 Gaussian 16:  ES64L-G16RevA.03 25-Dec-2016

 ----------------------------------------------------------------------
 # B3LYP/6-311++G(d,p) empiricaldispersion=gd3bj scf=xqc pop=npa geom=c
 heck
 ----------------------------------------------------------------------

 -----------------------------------
 CID_76026870_JID_9493_Energie_anion
 -----------------------------------
 Structure from the checkpoint file:  "JID_9493.chk"
 Charge = -1 Multiplicity = 2

                         Standard orientation:
 ---------------------------------------------------------------------
 Center     Atomic      Atomic             Coordinates (Angstroms)
 Number     Number       Type             X           Y           Z
 ---------------------------------------------------------------------
      1          6           0        2.807540   -1.283484    0.239817
      2          6           0        4.163062   -1.063844    0.444343
      3          6           0        4.712338    0.218161    0.271494
      4          6           0        3.853425    1.271513   -0.104515
      5          6           0        2.504516    1.044340   -0.303423
      6          6           0        1.949887   -0.239991   -0.144777
      7          6           0        0.506698   -0.436010   -0.356679
      8          7           0       -0.262517    0.583681   -0.542742
      9          6           0       -1.679160    0.363422   -0.700219
     10          6           0       -2.171642   -0.991740   -0.276444
     11          7           0       -3.359558   -1.210403    0.181381
     12          6           0       -4.145347   -0.067968    0.380736
     13          7           0       -3.793335    1.196408    0.360788
     14          6           0       -2.515805    1.519144   -0.034200
     15          8           0       -2.048700    2.635372    0.027623
     16          7           0       -5.422649   -0.378478    0.681820
     17          7           0       -1.310253   -2.078139   -0.398199
     18          6           0       -0.051672   -1.807145   -0.443073
     19          7           0        6.054135    0.456591    0.518674
     20          1           0        2.422615   -2.284738    0.404246
     21          1           0        4.805332   -1.885672    0.750194
     22          1           0        4.260514    2.271513   -0.232403
     23          1           0        1.844440    1.857338   -0.585435
     24          1           0       -1.918631    0.495884   -1.771247
     25          1           0       -5.660888   -1.341794    0.861268
     26          1           0       -6.050543    0.364248    0.951024
     27          1           0        0.623457   -2.644860   -0.613856
     28          1           0        6.449373    1.283087    0.090744
     29          1           0        6.670130   -0.343987    0.474054
 ---------------------------------------------------------------------

 SCF Done:  E(UB3LYP) =  -867.369860607     A.U. after   24 cycles

 The electronic state is 2-A.
 Alpha  occ. eigenvalues --  -18.94838 -14.24116 -14.21839 -14.16181 -14.16038
 Alpha  occ. eigenvalues --  -14.15673 -14.15158 -10.14790 -10.12504 -10.12035
 Alpha  occ. eigenvalues --  -10.10042 -10.07547 -10.07509 -10.07371 -10.07283
 Alpha  occ. eigenvalues --  -10.07165 -10.06545 -10.06328 -10.06251  -0.89911
 Alpha  occ. eigenvalues --   -0.86353  -0.84125  -0.82723  -0.77762  -0.75753
 Alpha  occ. eigenvalues --   -0.73999  -0.72997  -0.65166  -0.64888  -0.60416
 Alpha  occ. eigenvalues --   -0.54079  -0.53484  -0.51481  -0.50238  -0.47364
 Alpha  occ. eigenvalues --   -0.44182  -0.43219  -0.42918  -0.40019  -0.38626
 Alpha  occ. eigenvalues --   -0.37879  -0.36039  -0.35401  -0.34213  -0.33082
 Alpha  occ. eigenvalues --   -0.32807  -0.32011  -0.29743  -0.29224  -0.28977
 Alpha  occ. eigenvalues --   -0.28307  -0.26174  -0.25379  -0.24166  -0.23753
 Alpha  occ. eigenvalues --   -0.21842  -0.19950  -0.18023  -0.16198  -0.15767
 Alpha  occ. eigenvalues --   -0.14671  -0.12922  -0.12218  -0.11656  -0.10210
 Alpha  occ. eigenvalues --   -0.08620  -0.00520
 Alpha virt. eigenvalues --    0.05227   0.07280   0.07744   0.08207   0.08566
 Alpha virt. eigenvalues --    0.08984   0.10755   0.10947   0.11503   0.11792
 Alpha virt. eigenvalues --    0.12777   0.13701   0.13970   0.14166   0.14943

  Beta  occ. eigenvalues --  -18.94778 -14.24110 -14.21791 -14.16048 -14.15914
  Beta  occ. eigenvalues --  -14.15115 -14.15106 -10.14719 -10.12438 -10.12008
  Beta  occ. eigenvalues --  -10.09817 -10.07600 -10.07559 -10.07374 -10.07278
  Beta  occ. eigenvalues --  -10.07170 -10.06548 -10.06297 -10.05804  -0.89771
  Beta  occ. eigenvalues --   -0.86122  -0.84100  -0.82174  -0.77299  -0.75447
  Beta  occ. eigenvalues --   -0.73868  -0.72655  -0.65016  -0.64835  -0.60134
  Beta  occ. eigenvalues --   -0.53545  -0.53227  -0.51325  -0.50075  -0.47032
  Beta  occ. eigenvalues --   -0.43948  -0.43153  -0.42869  -0.39843  -0.38478
  Beta  occ. eigenvalues --   -0.37664  -0.35701  -0.34967  -0.33946  -0.32946
  Beta  occ. eigenvalues --   -0.32710  -0.31935  -0.29630  -0.28800  -0.28495
  Beta  occ. eigenvalues --   -0.28118  -0.26009  -0.24654  -0.24096  -0.23390
  Beta  occ. eigenvalues --   -0.20840  -0.19190  -0.17488  -0.15785  -0.15595
  Beta  occ. eigenvalues --   -0.13733  -0.12719  -0.11565  -0.11241  -0.09551
  Beta  occ. eigenvalues --   -0.08160
  Beta virt. eigenvalues --    0.05223   0.05664   0.07743   0.08044   0.08404
  Beta virt. eigenvalues --    0.08676   0.08989   0.10966   0.11566   0.11688
  Beta virt. eigenvalues --    0.11791   0.12824   0.13715   0.14062   0.14580

 Mulliken charges and spin densities:
               1          2
     1  C   -0.327601  -0.026454
     2  C   -0.588911   0.007185
     3  C   -0.154768   0.011691
     4  C   -0.380590   0.010091
     5  C   -0.270231   0.052351
     6  C    0.932041  -0.067780
     7  C   -0.072225  -0.025281
     8  N    0.161729   0.294973
     9  C    0.046156  -0.065504
    10  C   -0.469960   0.150582
    11  N   -0.210918   0.049975
    12  C    0.082719   0.034288
    13  N   -0.266119   0.028415
    14  C   -0.012268   0.046627
    15  O   -0.337505   0.020471
    16  N   -0.291981   0.023825
    17  N   -0.081814   0.049784
    18  C   -0.307566   0.339403
    19  N   -0.332081   0.002589
    20  H    0.116819   0.006345
    21  H    0.120899  -0.000207
    22  H    0.125239   0.000868
    23  H    0.215657  -0.006691
    24  H    0.181148   0.089520
    25  H    0.263015  -0.001859
    26  H    0.270080  -0.000860
    27  H    0.135258  -0.024475
    28  H    0.227472  -0.000137
    29  H    0.226308   0.000266
 Sum of Mulliken charges =  -1.00000   1.00000

 Dipole moment (field-independent basis, Debye):
    X=              7.0869    Y=             -2.3419    Z=             -0.4067  Tot=              7.4749
 Quadrupole moment (field-independent basis, Debye-Ang):
   XX=           -121.4736   YY=           -139.7681   ZZ=           -117.6876
   XY=              6.3033   XZ=             -5.3108   YZ=             -4.6477

 Summary of Natural Population Analysis:

                                       Natural Population
                Natural  -----------------------------------------------
    Atom  No    Charge         Core      Valence    Rydberg      Total
 -----------------------------------------------------------------------
      C    1   -0.08486      0.99954     2.07773    0.00759     3.08486
      C    2   -0.13532      0.99953     2.12734    0.00844     3.13532
      C    3    0.08129      0.99951     1.90943    0.00977     2.91871
      C    4   -0.13004      0.99953     2.12229    0.00823     3.13004
      C    5   -0.06642      0.99954     2.05821    0.00866     3.06642
      C    6   -0.04646      0.99949     2.03767    0.00930     3.04646
      C    7    0.06621      0.99953     1.92128    0.01298     2.93379
      N    8   -0.11289      0.99966     2.60065    0.01259     3.61289
      C    9   -0.11208      0.99950     2.09838    0.01420     3.11208
      C   10    0.27796      0.99954     1.70448    0.01801     2.72204
      N   11   -0.27960      0.99962     2.76580    0.01418     3.77960
      C   12    0.32125      0.99964     1.66048    0.01863     2.67875
      N   13   -0.33133      0.99962     2.81754    0.01416     3.83133
      C   14    0.34953      0.99967     1.62528    0.02553     2.65047
      O   15   -0.29438      0.99987     3.28750    0.00701     4.29438
      N   16   -0.37897      0.99968     2.87102    0.00826     3.87897
      N   17   -0.22910      0.99966     2.71487    0.01457     3.72910
      C   18    0.14459      0.99960     1.84274    0.01306     2.85541
      N   19   -0.39975      0.99971     2.89113    0.00891     3.89975
      H   20    0.10122      0.00000     0.39741    0.00136     0.39878
      H   21    0.09216      0.00000     0.40628    0.00156     0.40784
      H   22    0.09300      0.00000     0.40553    0.00148     0.40700
      H   23    0.11728      0.00000     0.38152    0.00120     0.38272
      H   24    0.13166      0.00000     0.36695    0.00139     0.36834
      H   25    0.19541      0.00000     0.30344    0.00115     0.30459
      H   26    0.19242      0.00000     0.30638    0.00120     0.30758
      H   27    0.07250      0.00000     0.42570    0.00180     0.42750
      H   28    0.18265      0.00000     0.31599    0.00137     0.31735
      H   29    0.18208      0.00000     0.31657    0.00136     0.31792
 =======================================================================
   * Total *    0.00000     18.99247    46.75959    0.24794    66.00000

 Normal termination of Gaussian 16 at Mon Dec 14 14:03:56 2020.
