 Gaussian 16, Revision A.03,

 -----------------------------------------------------------
 # opt freq B3LYP/6-31G(d) empiricaldispersion=gd3bj scf=xqc
 -----------------------------------------------------------

 ------------------------------
 CID_59800448_JID_2860_neutraal
 ------------------------------
 Symbolic Z-matrix:
 Charge =  0 Multiplicity = 1

 SCF Done:  E(RB3LYP) =  -529.894436020     A.U. after   14 cycles
 SCF Done:  E(RB3LYP) =  -529.897114849     A.U. after   13 cycles
 SCF Done:  E(RB3LYP) =  -529.897767074     A.U. after   12 cycles
 SCF Done:  E(RB3LYP) =  -529.898667778     A.U. after   12 cycles
 SCF Done:  E(RB3LYP) =  -529.898753895     A.U. after   10 cycles
 SCF Done:  E(RB3LYP) =  -529.898788667     A.U. after   10 cycles
 SCF Done:  E(RB3LYP) =  -529.898807834     A.U. after    9 cycles
 SCF Done:  E(RB3LYP) =  -529.898828999     A.U. after   10 cycles
 SCF Done:  E(RB3LYP) =  -529.898837451     A.U. after    9 cycles
 SCF Done:  E(RB3LYP) =  -529.898842594     A.U. after    9 cycles
 SCF Done:  E(RB3LYP) =  -529.898844751     A.U. after    8 cycles
 SCF Done:  E(RB3LYP) =  -529.898846430     A.U. after    8 cycles
 SCF Done:  E(RB3LYP) =  -529.898846954     A.U. after    7 cycles
 SCF Done:  E(RB3LYP) =  -529.898847215     A.U. after    7 cycles
 SCF Done:  E(RB3LYP) =  -529.898847388     A.U. after    7 cycles
 Optimization completed.
    -- Stationary point found.

 1\1\GINC-NODE352\FOpt\RB3LYP\6-31G(d)\C8H10N4\VSC10255\09-Dec-2020\0\\
 # opt freq B3LYP/6-31G(d) empiricaldispersion=gd3bj scf=xqc\\CID_59800
 448_JID_2860_neutraal\\0,1\C,2.3237039261,-0.0576273403,-0.0620034036\
 C,0.8359956338,0.1019110623,0.0372574387\C,0.0783985423,1.2745304974,0
 .0606787862\N,-1.2122167669,0.8801385982,0.2662579176\N,-1.3584982305,
 -0.4496303357,0.3841285184\C,-0.1203863522,-0.9234900784,0.2357784044\
 C,0.373992897,2.6952225058,-0.0130567761\N,-0.2698920825,3.6125357558,
 0.7004052824\C,0.2566131305,4.8190676752,0.3137133275\C,1.2240923508,4

 Normal termination of Gaussian 16 at Wed Dec  9 18:07:33 2020.

 --------------------------------------------------------------------
 #N Geom=AllCheck Guess=TCheck SCRF=Check GenChk RB3LYP/6-31G(d) Freq
 --------------------------------------------------------------------

 Structure from the checkpoint file:  "JID_2860.chk"
 ------------------------------
 CID_59800448_JID_2860_neutraal
 ------------------------------
 Charge =  0 Multiplicity = 1

 SCF Done:  E(RB3LYP) =  -529.898847388     A.U. after    1 cycles

  Exact polarizability: 148.062  -3.235 107.970  -1.244   0.871  57.425
 Approx polarizability: 221.446  -0.366 180.455  -4.312   1.385  89.474

                      1                      2                      3
                      A                      A                      A
 Frequencies --     51.4693               109.5125               139.0844
 Red. masses --      3.6508                 4.8973                 1.9969
 Frc consts  --      0.0057                 0.0346                 0.0228
 IR Inten    --      1.8963                 0.4423                 0.9025

                      4                      5                      6
                      A                      A                      A
 Frequencies --    148.1058               192.5480               210.2732
 Red. masses --      1.5361                 1.3099                 1.9280
 Frc consts  --      0.0199                 0.0286                 0.0502
 IR Inten    --      1.1179                 0.2437                 0.3603

                      7                      8                      9
                      A                      A                      A
 Frequencies --    244.8153               274.6652               298.8921
 Red. masses --      3.1614                 3.3637                 4.0121
 Frc consts  --      0.1116                 0.1495                 0.2112
 IR Inten    --      2.5357                 2.3306                 0.9054

                     10                     11                     12
                      A                      A                      A
 Frequencies --    374.0035               458.3539               491.0295
 Red. masses --      5.7839                 4.0323                 3.9637
 Frc consts  --      0.4767                 0.4991                 0.5631
 IR Inten    --      2.5436                 0.7261                 3.7078

                     13                     14                     15
                      A                      A                      A
 Frequencies --    541.5163               631.5390               672.1102
 Red. masses --      1.5463                 3.8472                 5.0107
 Frc consts  --      0.2672                 0.9041                 1.3336
 IR Inten    --     49.9969                 0.7566                 2.8666

                     16                     17                     18
                      A                      A                      A
 Frequencies --    684.1385               697.3049               718.3125
 Red. masses --      4.6004                 2.6621                 2.7613
 Frc consts  --      1.2686                 0.7626                 0.8394
 IR Inten    --      1.8828                39.3899                13.5860

                     19                     20                     21
                      A                      A                      A
 Frequencies --    721.0521               748.6014               849.0126
 Red. masses --      1.8668                 4.5598                 1.2928
 Frc consts  --      0.5718                 1.5056                 0.5490
 IR Inten    --     23.4596                 1.2728                 5.6949

                     22                     23                     24
                      A                      A                      A
 Frequencies --    864.7817               932.9348               961.2044
 Red. masses --      1.2662                 6.4996                 4.6793
 Frc consts  --      0.5579                 3.3330                 2.5472
 IR Inten    --     16.6240                 9.1095                38.5253

                     25                     26                     27
                      A                      A                      A
 Frequencies --   1015.1322              1059.4500              1080.4626
 Red. masses --      1.5648                 3.1343                 1.4514
 Frc consts  --      0.9501                 2.0727                 0.9983
 IR Inten    --     14.1536                 4.5772                 2.0200

                     28                     29                     30
                      A                      A                      A
 Frequencies --   1089.9118              1114.5392              1152.3072
 Red. masses --      2.0012                 1.2400                 2.5029
 Frc consts  --      1.4006                 0.9076                 1.9581
 IR Inten    --      1.7402                 4.1006                44.5924

                     31                     32                     33
                      A                      A                      A
 Frequencies --   1162.0219              1179.5721              1234.7017
 Red. masses --      1.3141                 2.2287                 4.4780
 Frc consts  --      1.0455                 1.8271                 4.0222
 IR Inten    --      0.9596                 9.3258                 5.9868

                     34                     35                     36
                      A                      A                      A
 Frequencies --   1254.9315              1301.9151              1322.8211
 Red. masses --      1.7873                 2.8975                 2.7817
 Frc consts  --      1.6584                 2.8936                 2.8679
 IR Inten    --      6.9108                24.3245                26.4048

                     37                     38                     39
                      A                      A                      A
 Frequencies --   1385.3761              1393.1958              1411.9881
 Red. masses --      5.4252                 5.1356                 4.8349
 Frc consts  --      6.1348                 5.8730                 5.6793
 IR Inten    --      0.4945                10.3333                 7.0574

                     40                     41                     42
                      A                      A                      A
 Frequencies --   1449.0371              1458.0740              1485.9085
 Red. masses --      1.4098                 1.7662                 1.8280
 Frc consts  --      1.7440                 2.2124                 2.3780
 IR Inten    --      8.1529                31.1632                 3.8046

                     43                     44                     45
                      A                      A                      A
 Frequencies --   1511.4200              1517.5255              1524.4280
 Red. masses --      1.6683                 1.1449                 1.3864
 Frc consts  --      2.2455                 1.5534                 1.8982
 IR Inten    --     28.4821                 3.9005                13.1286

                     46                     47                     48
                      A                      A                      A
 Frequencies --   1528.5276              1538.5273              1542.2434
 Red. masses --      1.1402                 2.9735                 1.1252
 Frc consts  --      1.5695                 4.1469                 1.5769
 IR Inten    --     12.3902                11.7229                 2.9358

                     49                     50                     51
                      A                      A                      A
 Frequencies --   1567.9766              1654.0180              3039.2784
 Red. masses --      3.3962                 6.4973                 1.0418
 Frc consts  --      4.9196                10.4727                 5.6698
 IR Inten    --     19.0288                 0.0323                30.2345

                     52                     53                     54
                      A                      A                      A
 Frequencies --   3072.1288              3096.0943              3122.9226
 Red. masses --      1.0350                 1.0947                 1.1018
 Frc consts  --      5.7551                 6.1824                 6.3313
 IR Inten    --     42.4626                18.4338                19.9877

                     55                     56                     57
                      A                      A                      A
 Frequencies --   3139.5412              3172.7641              3250.4080
 Red. masses --      1.1041                 1.1036                 1.0960
 Frc consts  --      6.4121                 6.5457                 6.8224
 IR Inten    --     16.0708                 4.2402                11.7465

                     58                     59                     60
                      A                      A                      A
 Frequencies --   3260.5525              3287.8589              3655.8405
 Red. masses --      1.0916                 1.1039                 1.0814
 Frc consts  --      6.8375                 7.0308                 8.5153
 IR Inten    --      8.5961                 4.0341                82.7566

 - Thermochemistry -
 -------------------
 Temperature   298.150 Kelvin.  Pressure   1.00000 Atm.
 Atom     1 has atomic number  6 and mass  12.00000

 Molecular mass:   162.09055 amu.
 Principal axes and moments of inertia in atomic units:
                           1         2         3
     Eigenvalues --  1018.667932402.562543150.41988
           X            0.99987  -0.01280   0.01005
           Y            0.01281   0.99992  -0.00108
           Z           -0.01003   0.00121   0.99995
 This molecule is an asymmetric top.
 Rotational symmetry number  1.
 Warning -- assumption of classical behavior for rotation
           may cause significant error
 Rotational temperatures (Kelvin)      0.08503     0.03605     0.02749
 Rotational constants (GHZ):           1.77167     0.75117     0.57286
 Zero-point vibrational energy     472816.0 (Joules/Mol)
                                  113.00574 (Kcal/Mol)
 Warning -- explicit consideration of  13 degrees of freedom as
           vibrations may cause significant error
 Vibrational temperatures:     74.05   157.56   200.11   213.09   277.03
          (Kelvin)            302.54   352.23   395.18   430.04   538.11
                              659.47   706.48   779.12   908.64   967.02
                              984.32  1003.27  1033.49  1037.43  1077.07
                             1221.54  1244.23  1342.29  1382.96  1460.55
                             1524.31  1554.54  1568.14  1603.57  1657.91
                             1671.89  1697.14  1776.46  1805.57  1873.17
                             1903.24  1993.25  2004.50  2031.54  2084.84
                             2097.84  2137.89  2174.60  2183.38  2193.31
                             2199.21  2213.60  2218.94  2255.97  2379.76
                             4372.84  4420.11  4454.59  4493.19  4517.10
                             4564.90  4676.61  4691.21  4730.50  5259.94

 Zero-point correction=                           0.180086 (Hartree/Particle)
 Thermal correction to Energy=                    0.190623
 Thermal correction to Enthalpy=                  0.191567
 Thermal correction to Gibbs Free Energy=         0.143693
 Sum of electronic and zero-point Energies=           -529.718761
 Sum of electronic and thermal Energies=              -529.708225
 Sum of electronic and thermal Enthalpies=            -529.707280
 Sum of electronic and thermal Free Energies=         -529.755154

                     E (Thermal)             CV                S
                      KCal/Mol        Cal/Mol-Kelvin    Cal/Mol-Kelvin
 Total                  119.618             39.652            100.759
 Electronic               0.000              0.000              0.000
 Translational            0.889              2.981             41.158
 Rotational               0.889              2.981             30.423
 Vibrational            117.840             33.691             29.179
 Vibration     1          0.596              1.977              4.760
 Vibration     2          0.606              1.942              3.278
 Vibration     3          0.615              1.914              2.816
 Vibration     4          0.617              1.905              2.696
 Vibration     5          0.635              1.850              2.203
 Vibration     6          0.642              1.825              2.041
 Vibration     7          0.660              1.771              1.768
 Vibration     8          0.677              1.720              1.567
 Vibration     9          0.692              1.676              1.423
 Vibration    10          0.745              1.525              1.063
 Vibration    11          0.816              1.342              0.771
 Vibration    12          0.847              1.270              0.681
 Vibration    13          0.897              1.158              0.562

 Optimization completed.
    -- Stationary point found.

 1\1\GINC-NODE352\Freq\RB3LYP\6-31G(d)\C8H10N4\VSC10255\09-Dec-2020\0\\
 #N Geom=AllCheck Guess=TCheck SCRF=Check GenChk RB3LYP/6-31G(d) Freq\\
 CID_59800448_JID_2860_neutraal\\0,1\C,2.3237039261,-0.0576273403,-0.06
 20034036\C,0.8359956338,0.1019110623,0.0372574387\C,0.0783985423,1.274
 5304974,0.0606787862\N,-1.2122167669,0.8801385982,0.2662579176\N,-1.35
 84982305,-0.4496303357,0.3841285184\C,-0.1203863522,-0.9234900784,0.23
 57784044\C,0.373992897,2.6952225058,-0.0130567761\N,-0.2698920825,3.61
 25357558,0.7004052824\C,0.2566131305,4.8190676752,0.3137133275\C,1.224

 Normal termination of Gaussian 16 at Wed Dec  9 18:12:36 2020.

 ----------------------------------------------------------------------
 # B3LYP/6-311++G(d,p) empiricaldispersion=gd3bj scf=xqc pop=npa geom=c
 heck
 ----------------------------------------------------------------------

 --------------------------------------
 CID_59800448_JID_2860_Energie_neutraal
 --------------------------------------
 Structure from the checkpoint file:  "JID_2860.chk"
 Charge =  0 Multiplicity = 1

 SCF Done:  E(RB3LYP) =  -530.040815032     A.U. after   15 cycles
 Normal termination of Gaussian 16 at Wed Dec  9 18:14:59 2020.

 ----------------------------------------------------------------------
 # B3LYP/6-311++G(d,p) empiricaldispersion=gd3bj scf=xqc pop=npa geom=c
 heck
 ----------------------------------------------------------------------

 ------------------------------------
 CID_59800448_JID_2860_Energie_kation
 ------------------------------------
 Structure from the checkpoint file:  "JID_2860.chk"
 Charge =  1 Multiplicity = 2

 SCF Done:  E(UB3LYP) =  -529.751122134     A.U. after   22 cycles
 Normal termination of Gaussian 16 at Wed Dec  9 18:19:22 2020.
 Gaussian 16:  ES64L-G16RevA.03 25-Dec-2016

 -----------------------------------
 CID_59800448_JID_2860_Energie_anion
 -----------------------------------
 Structure from the checkpoint file:  "JID_2860.chk"
 Charge = -1 Multiplicity = 2

                         Standard orientation:
 ---------------------------------------------------------------------
 Center     Atomic      Atomic             Coordinates (Angstroms)
 Number     Number       Type             X           Y           Z
 ---------------------------------------------------------------------
      1          6           0       -1.508239    1.987331   -0.807098
      2          6           0       -1.671329    0.605154   -0.248914
      3          6           0       -0.693532   -0.355731    0.015946
      4          7           0       -1.368106   -1.473651    0.414318
      5          7           0       -2.702646   -1.323853    0.426095
      6          6           0       -2.887845   -0.062262    0.034224
      7          6           0        0.753200   -0.415679   -0.104686
      8          7           0        1.408193   -1.502294   -0.498809
      9          6           0        2.739388   -1.176960   -0.431463
     10          6           0        2.897083    0.113962    0.010181
     11          7           0        1.622451    0.598758    0.227853
     12          6           0        1.303598    1.877854    0.840617
     13          1           0       -2.365871    2.246279   -1.436485
     14          1           0       -1.436855    2.758442   -0.029105
     15          1           0       -0.610161    2.061542   -1.429336
     16          1           0       -0.947150   -2.372390    0.601975
     17          1           0       -3.892684    0.331667   -0.051577
     18          1           0        3.507576   -1.885845   -0.708528
     19          1           0        3.768986    0.724440    0.191773
     20          1           0        2.068758    2.120634    1.581888
     21          1           0        1.256291    2.680477    0.098466
     22          1           0        0.337922    1.800020    1.341890
 ---------------------------------------------------------------------

 SCF Done:  E(UB3LYP) =  -530.029804197     A.U. after   32 cycles

 The electronic state is 2-A.
 Alpha  occ. eigenvalues --  -14.29091 -14.27909 -14.24051 -14.20223 -10.14099
 Alpha  occ. eigenvalues --  -10.12322 -10.10589 -10.10137 -10.09528 -10.09074
 Alpha  occ. eigenvalues --  -10.08462 -10.07228  -0.95765  -0.92524  -0.79404
 Alpha  occ. eigenvalues --   -0.73513  -0.71347  -0.65322  -0.62408  -0.60393
 Alpha  occ. eigenvalues --   -0.52414  -0.51495  -0.50341  -0.46462  -0.44208
 Alpha  occ. eigenvalues --   -0.39976  -0.37749  -0.36215  -0.35509  -0.34023
 Alpha  occ. eigenvalues --   -0.33552  -0.31753  -0.31608  -0.31142  -0.30117
 Alpha  occ. eigenvalues --   -0.29667  -0.27883  -0.20604  -0.18750  -0.18497
 Alpha  occ. eigenvalues --   -0.17556  -0.15963  -0.12185   0.04479
 Alpha virt. eigenvalues --    0.06847   0.07149   0.07910   0.08601   0.09114
 Alpha virt. eigenvalues --    0.09780   0.10762   0.11277   0.11655   0.12239
 Alpha virt. eigenvalues --    0.13364   0.14052   0.14277   0.14506   0.15741

  Beta  occ. eigenvalues --  -14.29088 -14.27907 -14.24049 -14.20221 -10.14094
  Beta  occ. eigenvalues --  -10.12322 -10.10510 -10.10110 -10.09522 -10.09071
  Beta  occ. eigenvalues --  -10.08459 -10.07180  -0.95760  -0.92513  -0.79391
  Beta  occ. eigenvalues --   -0.73508  -0.71331  -0.65291  -0.62330  -0.60331
  Beta  occ. eigenvalues --   -0.52400  -0.51462  -0.50320  -0.46420  -0.44137
  Beta  occ. eigenvalues --   -0.39948  -0.37712  -0.36163  -0.35492  -0.33997
  Beta  occ. eigenvalues --   -0.33492  -0.31731  -0.31560  -0.31090  -0.30077
  Beta  occ. eigenvalues --   -0.29611  -0.27850  -0.20593  -0.18741  -0.18481
  Beta  occ. eigenvalues --   -0.17545  -0.15948  -0.12170
  Beta virt. eigenvalues --    0.07076   0.07189   0.07805   0.08634   0.09081
  Beta virt. eigenvalues --    0.09772   0.10365   0.11525   0.11977   0.12135
  Beta virt. eigenvalues --    0.12711   0.13430   0.14101   0.14642   0.15090

 Mulliken charges and spin densities:
               1          2
     1  C    2.287518  -3.106027
     2  C   -1.225252   2.043537
     3  C    0.220435  -0.662591
     4  N   -0.008002   0.039965
     5  N   -0.227699  -0.013169
     6  C   -0.508056   0.359416
     7  C    0.224351  -0.859739
     8  N   -0.175670   0.069043
     9  C    0.237029  -0.323837
    10  C    0.369989  -0.329154
    11  N   -0.280035   0.358009
    12  C    1.539224  -1.900836
    13  H   -0.108240   0.257093
    14  H   -0.383012   0.558025
    15  H   -0.233092   0.405590
    16  H    0.284697   0.029899
    17  H   -0.161437   0.328250
    18  H   -0.059471   0.211578
    19  H   -1.136427   1.329161
    20  H   -0.892333   1.079525
    21  H   -0.542020   0.751745
    22  H   -0.222497   0.374517
 Sum of Mulliken charges =  -1.00000   1.00000

 Dipole moment (field-independent basis, Debye):
    X=             -3.8354    Y=             -7.0167    Z=             -1.4666  Tot=              8.1299
 Quadrupole moment (field-independent basis, Debye-Ang):
   XX=           -132.7159   YY=           -124.8526   ZZ=           -102.6415
   XY=            -13.9010   XZ=             -5.7888   YZ=             -6.0086

 Summary of Natural Population Analysis:

                                       Natural Population
                Natural  -----------------------------------------------
    Atom  No    Charge         Core      Valence    Rydberg      Total
 -----------------------------------------------------------------------
      C    1   -0.29579      0.99964     2.29017    0.00598     3.29579
      C    2   -0.05774      0.99950     2.04854    0.00970     3.05774
      C    3    0.04892      0.99947     1.93823    0.01338     2.95108
      N    4   -0.15646      0.99966     2.64628    0.01052     3.65646
      N    5   -0.15227      0.99974     2.63966    0.01286     3.65227
      C    6   -0.01443      0.99958     1.99965    0.01520     3.01443
      C    7    0.16941      0.99955     1.81354    0.01750     2.83059
      N    8   -0.25971      0.99971     2.75072    0.00928     3.75971
      C    9   -0.03443      0.99959     2.02094    0.01390     3.03443
      C   10   -0.02319      0.99954     2.01140    0.01225     3.02319
      N   11   -0.19487      0.99964     2.68356    0.01167     3.69487
      C   12   -0.17651      0.99963     2.16787    0.00902     3.17651
      H   13    0.10500      0.00000     0.39396    0.00104     0.39500
      H   14    0.10881      0.00000     0.38923    0.00196     0.39119
      H   15    0.10736      0.00000     0.39123    0.00141     0.39264
      H   16    0.20281      0.00000     0.29500    0.00219     0.29719
      H   17    0.09697      0.00000     0.40195    0.00108     0.40303
      H   18    0.09585      0.00000     0.40321    0.00093     0.40415
      H   19    0.10964      0.00000     0.38765    0.00272     0.39036
      H   20    0.10883      0.00000     0.38545    0.00572     0.39117
      H   21    0.10519      0.00000     0.39050    0.00431     0.39481
      H   22    0.10660      0.00000     0.39121    0.00219     0.39340
 =======================================================================
   * Total *   -0.00000     11.99523    30.83995    0.16482    43.00000

 Normal termination of Gaussian 16 at Wed Dec  9 18:25:48 2020.
