 Gaussian 16, Revision A.03,

 ----------------------------------------------------------------------
 # opt=(cartesian,calcfc) freq B3LYP/6-31G(d) empiricaldispersion=gd3bj
  scf=xqc
 ----------------------------------------------------------------------

 -------------------------------
 CID_115528056_JID_6993_neutraal
 -------------------------------
 Symbolic Z-matrix:
 Charge =  0 Multiplicity = 1

 SCF Done:  E(RB3LYP) =  -692.237174157     A.U. after   14 cycles
 SCF Done:  E(RB3LYP) =  -692.238913475     A.U. after   11 cycles
 SCF Done:  E(RB3LYP) =  -692.240243181     A.U. after   11 cycles
 SCF Done:  E(RB3LYP) =  -692.241194799     A.U. after   12 cycles
 SCF Done:  E(RB3LYP) =  -692.241447468     A.U. after   11 cycles
 SCF Done:  E(RB3LYP) =  -692.241452934     A.U. after   11 cycles
 SCF Done:  E(RB3LYP) =  -692.241461064     A.U. after   12 cycles
 SCF Done:  E(RB3LYP) =  -692.241486409     A.U. after   11 cycles
 SCF Done:  E(RB3LYP) =  -692.241478366     A.U. after   10 cycles
 SCF Done:  E(RB3LYP) =  -692.241537639     A.U. after    9 cycles
 SCF Done:  E(RB3LYP) =  -692.241707292     A.U. after    9 cycles
 SCF Done:  E(RB3LYP) =  -692.241707422     A.U. after    8 cycles
 SCF Done:  E(RB3LYP) =  -692.241707468     A.U. after    8 cycles
 SCF Done:  E(RB3LYP) =  -692.241707254     A.U. after    8 cycles
 SCF Done:  E(RB3LYP) =  -692.241707522     A.U. after    7 cycles
 Optimization completed.
    -- Stationary point found.
 Normal termination of Gaussian 16 at Thu Dec 17 21:12:23 2020.

 --------------------------------------------------------------------
 #N Geom=AllCheck Guess=TCheck SCRF=Check GenChk RB3LYP/6-31G(d) Freq
 --------------------------------------------------------------------

 Structure from the checkpoint file:  "JID_6993.chk"
 -------------------------------
 CID_115528056_JID_6993_neutraal
 -------------------------------
 Charge =  0 Multiplicity = 1

 SCF Done:  E(RB3LYP) =  -692.241707522     A.U. after    1 cycles

  Exact polarizability: 173.232   9.897 142.456  14.421 -11.733 124.087
 Approx polarizability: 222.965  21.225 215.430  31.043 -23.731 203.645

                      1                      2                      3
                      A                      A                      A
 Frequencies --     12.4954                28.7337                42.7666
 Red. masses --      1.0355                 3.5049                 3.5190
 Frc consts  --      0.0001                 0.0017                 0.0038
 IR Inten    --      0.4082                 0.1847                 0.1188

                      4                      5                      6
                      A                      A                      A
 Frequencies --     67.6827               114.2988               155.3870
 Red. masses --      5.1540                 2.9942                 2.3464
 Frc consts  --      0.0139                 0.0230                 0.0334
 IR Inten    --      0.0599                 1.0297                 0.2242

                      7                      8                      9
                      A                      A                      A
 Frequencies --    173.9617               188.3618               192.1657
 Red. masses --      4.3424                 3.6476                 3.9050
 Frc consts  --      0.0774                 0.0763                 0.0850
 IR Inten    --      1.4747                 3.8420                 1.6654

                     10                     11                     12
                      A                      A                      A
 Frequencies --    239.2983               249.8572               285.6528
 Red. masses --      1.0584                 4.0449                 2.1390
 Frc consts  --      0.0357                 0.1488                 0.1028
 IR Inten    --      0.0259                 0.1976                 0.4503

                     13                     14                     15
                      A                      A                      A
 Frequencies --    302.8086               353.0710               376.5712
 Red. masses --      3.4664                 3.4213                 2.8189
 Frc consts  --      0.1873                 0.2513                 0.2355
 IR Inten    --      2.3172                 0.7818                12.1464

                     16                     17                     18
                      A                      A                      A
 Frequencies --    403.4948               412.0525               442.8980
 Red. masses --      3.2111                 3.2775                 1.9379
 Frc consts  --      0.3080                 0.3279                 0.2240
 IR Inten    --      4.4955                 0.4290                 3.5694

                     19                     20                     21
                      A                      A                      A
 Frequencies --    450.0443               454.7654               490.8340
 Red. masses --      2.7405                 2.8456                 1.1935
 Frc consts  --      0.3270                 0.3467                 0.1694
 IR Inten    --      0.7325                 6.4791               109.2701

                     22                     23                     24
                      A                      A                      A
 Frequencies --    505.0054               583.2387               601.8544
 Red. masses --      2.3508                 3.3600                 3.9092
 Frc consts  --      0.3532                 0.6734                 0.8343
 IR Inten    --      1.0397                 4.9050                 8.0167

                     25                     26                     27
                      A                      A                      A
 Frequencies --    651.0821               666.6836               780.9974
 Red. masses --      3.6346                 4.8889                 4.8312
 Frc consts  --      0.9078                 1.2803                 1.7362
 IR Inten    --     10.1070                10.9629                 9.0571

                     28                     29                     30
                      A                      A                      A
 Frequencies --    792.1721               808.4154               846.6886
 Red. masses --      2.3223                 3.5319                 1.6780
 Frc consts  --      0.8586                 1.3599                 0.7088
 IR Inten    --      2.4636                 2.0384                 2.2771

                     31                     32                     33
                      A                      A                      A
 Frequencies --    864.5266               871.7460               902.0298
 Red. masses --      1.4464                 1.4731                 2.1686
 Frc consts  --      0.6369                 0.6596                 1.0396
 IR Inten    --     12.2520                 0.8724                 1.2580

                     34                     35                     36
                      A                      A                      A
 Frequencies --    916.6851               953.1079               969.6598
 Red. masses --      2.1569                 1.8424                 2.6597
 Frc consts  --      1.0679                 0.9861                 1.4734
 IR Inten    --      1.3468                 7.8077                 4.1561

                     37                     38                     39
                      A                      A                      A
 Frequencies --    995.5970               999.4161              1002.8445
 Red. masses --      1.7095                 1.4019                 1.4022
 Frc consts  --      0.9984                 0.8250                 0.8309
 IR Inten    --      2.7309                 0.5213                 1.7865

                     40                     41                     42
                      A                      A                      A
 Frequencies --   1019.0530              1033.4551              1051.0703
 Red. masses --      8.6331                 2.0690                 2.4774
 Frc consts  --      5.2821                 1.3019                 1.6125
 IR Inten    --      2.6333                 2.1320                 2.1575

                     43                     44                     45
                      A                      A                      A
 Frequencies --   1067.4704              1079.7669              1093.2252
 Red. masses --      1.8789                 1.6649                 2.7744
 Frc consts  --      1.2615                 1.1437                 1.9536
 IR Inten    --      8.6021                 5.8378                62.6319

                     46                     47                     48
                      A                      A                      A
 Frequencies --   1107.5719              1121.8192              1129.1518
 Red. masses --      1.2655                 2.3931                 2.7344
 Frc consts  --      0.9147                 1.7744                 2.0541
 IR Inten    --      5.6906                 9.4393                 4.9498

                     49                     50                     51
                      A                      A                      A
 Frequencies --   1139.5832              1170.1568              1188.6389
 Red. masses --      1.4742                 1.9343                 2.0246
 Frc consts  --      1.1280                 1.5605                 1.6854
 IR Inten    --      1.2586                 2.5584                 1.6783

                     52                     53                     54
                      A                      A                      A
 Frequencies --   1233.5518              1245.2922              1256.5070
 Red. masses --      1.7801                 1.4982                 3.2074
 Frc consts  --      1.5959                 1.3688                 2.9836
 IR Inten    --      7.1431                 7.3425                 1.8217

                     55                     56                     57
                      A                      A                      A
 Frequencies --   1271.2195              1303.8334              1311.7986
 Red. masses --      1.4201                 1.3332                 1.4142
 Frc consts  --      1.3521                 1.3353                 1.4338
 IR Inten    --     15.4358                 2.0861                 9.1946

                     58                     59                     60
                      A                      A                      A
 Frequencies --   1321.2617              1328.4989              1341.4875
 Red. masses --      1.6281                 1.2805                 2.1301
 Frc consts  --      1.6746                 1.3316                 2.2585
 IR Inten    --      3.9448                 0.7554                10.6463

                     61                     62                     63
                      A                      A                      A
 Frequencies --   1354.9386              1373.2652              1388.5752
 Red. masses --      1.2681                 1.3289                 1.3837
 Frc consts  --      1.3717                 1.4766                 1.5719
 IR Inten    --      1.4783                 0.2529                 1.5826

                     64                     65                     66
                      A                      A                      A
 Frequencies --   1395.9920              1402.8437              1407.2846
 Red. masses --      1.3718                 1.4306                 1.5488
 Frc consts  --      1.5751                 1.6588                 1.8072
 IR Inten    --      0.6318                 7.6294                 4.9145

                     67                     68                     69
                      A                      A                      A
 Frequencies --   1418.6345              1421.7205              1439.3143
 Red. masses --      1.6725                 1.6330                 1.2419
 Frc consts  --      1.9831                 1.9448                 1.5158
 IR Inten    --     31.9124                 0.7779                 3.3905

                     70                     71                     72
                      A                      A                      A
 Frequencies --   1450.0871              1470.6103              1488.8151
 Red. masses --      2.1646                 1.3260                 2.0303
 Frc consts  --      2.6817                 1.6896                 2.6515
 IR Inten    --     54.0276                95.5534               101.8557

                     73                     74                     75
                      A                      A                      A
 Frequencies --   1506.7806              1512.0360              1515.1155
 Red. masses --      1.0913                 1.0882                 1.1981
 Frc consts  --      1.4598                 1.4659                 1.6204
 IR Inten    --      9.2628                 1.5053                16.1647

                     76                     77                     78
                      A                      A                      A
 Frequencies --   1516.3888              1520.2686              1527.9755
 Red. masses --      1.0939                 1.0895                 1.0462
 Frc consts  --      1.4820                 1.4835                 1.4392
 IR Inten    --      0.9461                 3.5332                 5.1167

                     79                     80                     81
                      A                      A                      A
 Frequencies --   1530.7628              1535.2709              1623.8021
 Red. masses --      1.0581                 1.0943                 6.6993
 Frc consts  --      1.4608                 1.5197                10.4075
 IR Inten    --      2.8647                 3.0248                99.3953

                     82                     83                     84
                      A                      A                      A
 Frequencies --   1632.4295              2995.1275              3000.6955
 Red. masses --      5.8506                 1.0759                 1.0765
 Frc consts  --      9.1858                 5.6867                 5.7110
 IR Inten    --    153.2724                 2.6970                 7.3171

                     85                     86                     87
                      A                      A                      A
 Frequencies --   3007.9054              3015.5513              3018.1597
 Red. masses --      1.0746                 1.0698                 1.0719
 Frc consts  --      5.7285                 5.7317                 5.7527
 IR Inten    --      7.8752                 9.8126                29.3910

                     88                     89                     90
                      A                      A                      A
 Frequencies --   3028.6369              3037.5754              3050.7354
 Red. masses --      1.0640                 1.0367                 1.0854
 Frc consts  --      5.7501                 5.6359                 5.9518
 IR Inten    --     50.1364                42.3769                45.1329

                     91                     92                     93
                      A                      A                      A
 Frequencies --   3061.5457              3065.7128              3074.4865
 Red. masses --      1.0417                 1.0958                 1.0971
 Frc consts  --      5.7525                 6.0680                 6.1098
 IR Inten    --      8.5584                65.1493                 7.9896

                     94                     95                     96
                      A                      A                      A
 Frequencies --   3075.4886              3101.5340              3108.5413
 Red. masses --      1.0971                 1.1013                 1.1023
 Frc consts  --      6.1143                 6.2417                 6.2758
 IR Inten    --     89.2605                53.0901                40.3278

                     97                     98                     99
                      A                      A                      A
 Frequencies --   3118.9523              3125.9212              3169.1951
 Red. masses --      1.0913                 1.0941                 1.1040
 Frc consts  --      6.2546                 6.2989                 6.5329
 IR Inten    --     20.4306                 9.1687                10.2128

                    100                    101                    102
                      A                      A                      A
 Frequencies --   3174.1502              3222.5507              3633.7515
 Red. masses --      1.0906                 1.0941                 1.0647
 Frc consts  --      6.4737                 6.6945                 8.2829
 IR Inten    --     24.1129                 7.2588                78.7797

 - Thermochemistry -
 -------------------
 Temperature   298.150 Kelvin.  Pressure   1.00000 Atm.
 Atom     1 has atomic number  6 and mass  12.00000

 Molecular mass:   220.15756 amu.
 Principal axes and moments of inertia in atomic units:
                           1         2         3
     Eigenvalues --  2008.421216049.707696984.63413
           X            0.99991  -0.01220   0.00602
           Y            0.01233   0.99969  -0.02171
           Z           -0.00576   0.02179   0.99975
 This molecule is an asymmetric top.
 Rotational symmetry number  1.
 Warning -- assumption of classical behavior for rotation
           may cause significant error
 Rotational temperatures (Kelvin)      0.04313     0.01432     0.01240
 Rotational constants (GHZ):           0.89859     0.29832     0.25839
 Zero-point vibrational energy     834290.6 (Joules/Mol)
                                  199.40024 (Kcal/Mol)
 Warning -- explicit consideration of  24 degrees of freedom as
           vibrations may cause significant error
 Vibrational temperatures:     17.98    41.34    61.53    97.38   164.45
          (Kelvin)            223.57   250.29   271.01   276.48   344.30
                              359.49   410.99   435.67   507.99   541.80
                              580.54   592.85   637.23   647.51   654.31
                              706.20   726.59   839.15   865.93   936.76
                              959.21  1123.68  1139.76  1163.13  1218.20
                             1243.86  1254.25  1297.82  1318.91  1371.31
                             1395.12  1432.44  1437.94  1442.87  1466.19
                             1486.91  1512.26  1535.85  1553.54  1572.91
                             1593.55  1614.05  1624.60  1639.61  1683.59
                             1710.19  1774.81  1791.70  1807.83  1829.00
                             1875.93  1887.39  1901.00  1911.41  1930.10
                             1949.45  1975.82  1997.85  2008.52  2018.38
                             2024.77  2041.10  2045.54  2070.85  2086.35
                             2115.88  2142.07  2167.92  2175.48  2179.91
                             2181.75  2187.33  2198.42  2202.43  2208.91
                             2336.29  2348.70  4309.32  4317.33  4327.71
                             4338.71  4342.46  4357.53  4370.39  4389.33
                             4404.88  4410.88  4423.50  4424.94  4462.42
                             4472.50  4487.48  4497.50  4559.76  4566.89
                             4636.53  5228.16

 Zero-point correction=                           0.317765 (Hartree/Particle)
 Thermal correction to Energy=                    0.333376
 Thermal correction to Enthalpy=                  0.334320
 Thermal correction to Gibbs Free Energy=         0.272814
 Sum of electronic and zero-point Energies=           -691.923943
 Sum of electronic and thermal Energies=              -691.908332
 Sum of electronic and thermal Enthalpies=            -691.907387
 Sum of electronic and thermal Free Energies=         -691.968894

                     E (Thermal)             CV                S
                      KCal/Mol        Cal/Mol-Kelvin    Cal/Mol-Kelvin
 Total                  209.197             59.957            129.451
 Electronic               0.000              0.000              0.000
 Translational            0.889              2.981             42.070
 Rotational               0.889              2.981             32.806
 Vibrational            207.419             53.996             54.574
 Vibration     1          0.593              1.987              7.568
 Vibration     2          0.593              1.984              5.915
 Vibration     3          0.595              1.980              5.127
 Vibration     4          0.598              1.970              4.220
 Vibration     5          0.607              1.938              3.195
 Vibration     6          0.620              1.897              2.605
 Vibration     7          0.627              1.875              2.392
 Vibration     8          0.633              1.856              2.244
 Vibration     9          0.634              1.851              2.207
 Vibration    10          0.657              1.780              1.808
 Vibration    11          0.663              1.763              1.732
 Vibration    12          0.683              1.700              1.500
 Vibration    13          0.694              1.668              1.401
 Vibration    14          0.729              1.569              1.152
 Vibration    15          0.747              1.520              1.053
 Vibration    16          0.769              1.463              0.950
 Vibration    17          0.776              1.444              0.919
 Vibration    18          0.803              1.377              0.818
 Vibration    19          0.809              1.361              0.796
 Vibration    20          0.813              1.350              0.781
 Vibration    21          0.847              1.270              0.681
 Vibration    22          0.860              1.239              0.646
 Vibration    23          0.940              1.068              0.479
 Vibration    24          0.960              1.028              0.446

 Normal termination of Gaussian 16 at Thu Dec 17 21:24:01 2020.

 ----------------------------------------------------------------------
 # B3LYP/6-311++G(d,p) empiricaldispersion=gd3bj scf=xqc pop=npa geom=c
 heck
 ----------------------------------------------------------------------

 ---------------------------------------
 CID_115528056_JID_6993_Energie_neutraal
 ---------------------------------------
 Structure from the checkpoint file:  "JID_6993.chk"
 Charge =  0 Multiplicity = 1

 SCF Done:  E(RB3LYP) =  -692.434116075     A.U. after   14 cycles
 Normal termination of Gaussian 16 at Thu Dec 17 21:28:56 2020.

 ----------------------------------------------------------------------
 # B3LYP/6-311++G(d,p) empiricaldispersion=gd3bj scf=xqc pop=npa geom=c
 heck
 ----------------------------------------------------------------------

 -------------------------------------
 CID_115528056_JID_6993_Energie_kation
 -------------------------------------
 Structure from the checkpoint file:  "JID_6993.chk"
 Charge =  1 Multiplicity = 2

 SCF Done:  E(UB3LYP) =  -692.108148287     A.U. after   30 cycles
 Normal termination of Gaussian 16 at Thu Dec 17 21:43:03 2020.
 Gaussian 16:  ES64L-G16RevA.03 25-Dec-2016

 ----------------------------------------------------------------------
 # B3LYP/6-311++G(d,p) empiricaldispersion=gd3bj scf=xqc pop=npa geom=c
 heck
 ----------------------------------------------------------------------

 ------------------------------------
 CID_115528056_JID_6993_Energie_anion
 ------------------------------------
 Structure from the checkpoint file:  "JID_6993.chk"
 Charge = -1 Multiplicity = 2

                         Standard orientation:
 ---------------------------------------------------------------------
 Center     Atomic      Atomic             Coordinates (Angstroms)
 Number     Number       Type             X           Y           Z
 ---------------------------------------------------------------------
      1          6           0       -3.145715    2.578361    0.346660
      2          6           0       -2.704395    1.135990    0.606184
      3          6           0       -3.854421    0.141641    0.389227
      4          6           0       -3.404304   -1.305114    0.620538
      5          6           0       -2.199693   -1.661946   -0.256693
      6          6           0       -1.032003   -0.688122   -0.038005
      7          6           0       -1.493267    0.759966   -0.263851
      8          6           0        0.168899   -1.089624   -0.931350
      9          6           0        1.374948   -0.209748   -0.659736
     10          7           0        2.171165   -0.642972    0.329043
     11          6           0        3.240666    0.099726    0.646460
     12          7           0        3.585208    1.253145    0.051108
     13          6           0        2.788624    1.670663   -0.937602
     14          6           0        1.654773    0.971764   -1.342557
     15          6           0        4.139373   -0.402708    1.740945
     16          8           0        0.522889   -2.448045   -0.734869
     17          1           0       -3.468010    2.705147   -0.694889
     18          1           0       -3.986810    2.858641    0.991455
     19          1           0       -2.328409    3.285646    0.531466
     20          1           0       -2.390300    1.056838    1.659033
     21          1           0       -4.694651    0.393795    1.049161
     22          1           0       -4.223813    0.247103   -0.642427
     23          1           0       -4.231633   -1.997734    0.422501
     24          1           0       -3.133867   -1.435513    1.678478
     25          1           0       -2.498132   -1.620339   -1.315801
     26          1           0       -1.861096   -2.683668   -0.065802
     27          1           0       -0.689959   -0.784067    1.004460
     28          1           0       -1.764770    0.889917   -1.324164
     29          1           0       -0.675649    1.462582   -0.063403
     30          1           0       -0.127958   -0.982887   -1.982947
     31          1           0        3.074472    2.601449   -1.425015
     32          1           0        1.022904    1.325838   -2.149714
     33          1           0        5.059897   -0.814714    1.309467
     34          1           0        4.431263    0.419725    2.399939
     35          1           0        3.642362   -1.187344    2.314330
     36          1           0        1.165532   -2.432353    0.000453
 ---------------------------------------------------------------------

 SCF Done:  E(UB3LYP) =  -692.430575108     A.U. after   33 cycles
 SCF Done:  E(UB3LYP) =  -692.430575108     a.u. after    1 cycles

 The electronic state is 2-A.
 Alpha  occ. eigenvalues --  -18.99330 -14.16564 -14.15833 -10.11010 -10.09958
 Alpha  occ. eigenvalues --  -10.06957 -10.06350 -10.06225 -10.06078 -10.06018
 Alpha  occ. eigenvalues --  -10.05940 -10.05636 -10.05402 -10.05368 -10.05058
 Alpha  occ. eigenvalues --  -10.04551  -0.90346  -0.84178  -0.74477  -0.73336
 Alpha  occ. eigenvalues --   -0.67604  -0.66287  -0.64391  -0.59816  -0.57455
 Alpha  occ. eigenvalues --   -0.56688  -0.51014  -0.49361  -0.48367  -0.46745
 Alpha  occ. eigenvalues --   -0.45025  -0.39298  -0.38329  -0.37035  -0.35188
 Alpha  occ. eigenvalues --   -0.34234  -0.34097  -0.32533  -0.32288  -0.31485
 Alpha  occ. eigenvalues --   -0.31045  -0.30042  -0.28932  -0.28569  -0.27732
 Alpha  occ. eigenvalues --   -0.26615  -0.26111  -0.25969  -0.24740  -0.23634
 Alpha  occ. eigenvalues --   -0.23150  -0.21714  -0.21363  -0.20535  -0.19018
 Alpha  occ. eigenvalues --   -0.17496  -0.16880  -0.15327  -0.13931  -0.11463
 Alpha  occ. eigenvalues --    0.04884
 Alpha virt. eigenvalues --    0.06355   0.07785   0.08017   0.08362   0.09326
 Alpha virt. eigenvalues --    0.09937   0.10028   0.10457   0.10976   0.11110
 Alpha virt. eigenvalues --    0.11596   0.12320   0.12530   0.12837   0.13440

  Beta  occ. eigenvalues --  -18.99312 -14.16306 -14.15533 -10.11068 -10.09989
  Beta  occ. eigenvalues --  -10.06955 -10.06064 -10.06008 -10.05934 -10.05922
  Beta  occ. eigenvalues --  -10.05881 -10.05604 -10.05401 -10.05357 -10.05050
  Beta  occ. eigenvalues --  -10.04673  -0.90285  -0.83714  -0.73843  -0.73249
  Beta  occ. eigenvalues --   -0.67356  -0.66201  -0.64334  -0.59708  -0.57423
  Beta  occ. eigenvalues --   -0.56445  -0.50667  -0.49183  -0.48192  -0.46642
  Beta  occ. eigenvalues --   -0.44991  -0.39168  -0.38081  -0.36957  -0.35137
  Beta  occ. eigenvalues --   -0.34183  -0.34018  -0.32375  -0.31974  -0.31460
  Beta  occ. eigenvalues --   -0.30911  -0.29967  -0.28733  -0.28543  -0.27589
  Beta  occ. eigenvalues --   -0.26552  -0.25960  -0.25483  -0.24430  -0.23600
  Beta  occ. eigenvalues --   -0.23104  -0.21656  -0.21218  -0.20413  -0.18950
  Beta  occ. eigenvalues --   -0.16512  -0.15537  -0.15146  -0.13111  -0.11139
  Beta virt. eigenvalues --    0.06908   0.08030   0.08186   0.08377   0.09331
  Beta virt. eigenvalues --    0.10044   0.10131   0.10518   0.10961   0.11046
  Beta virt. eigenvalues --    0.11186   0.11690   0.12376   0.12611   0.12964

 Mulliken charges and spin densities:
               1          2
     1  C    0.038942  -0.700334
     2  C   -0.742623   1.204094
     3  C    0.269232  -0.731323
     4  C   -0.256497  -0.178627
     5  C   -0.361475  -0.014770
     6  C    0.903667   0.087944
     7  C   -0.123928  -0.884410
     8  C   -0.975991  -0.216565
     9  C    0.619349   0.155703
    10  N   -0.004170   0.138201
    11  C   -0.168992  -0.013100
    12  N   -0.114481   0.129543
    13  C   -0.184166   0.147313
    14  C   -0.528332   0.099781
    15  C   -0.503408   0.006751
    16  O   -0.161656   0.002713
    17  H   -0.008850   0.139225
    18  H   -0.158879   0.300769
    19  H    0.108542   0.021809
    20  H    0.119320   0.041723
    21  H   -0.333481   0.488318
    22  H    0.007617   0.120471
    23  H   -0.207498   0.384717
    24  H    0.149923  -0.042493
    25  H    0.058911   0.061690
    26  H    0.162198   0.012068
    27  H    0.154242   0.008910
    28  H    0.066311   0.086910
    29  H    0.201949  -0.036874
    30  H    0.147814   0.065069
    31  H    0.114348  -0.005216
    32  H    0.022600   0.119487
    33  H    0.147514  -0.002315
    34  H    0.134029   0.005871
    35  H    0.128646  -0.001314
    36  H    0.279275  -0.001738
 Sum of Mulliken charges =  -1.00000   1.00000

 Dipole moment (field-independent basis, Debye):
    X=              0.5691    Y=             -0.3655    Z=              0.9253  Tot=              1.1462
 Quadrupole moment (field-independent basis, Debye-Ang):
   XX=           -179.6846   YY=           -129.1833   ZZ=           -115.2417
   XY=             -3.5048   XZ=              5.7865   YZ=             -4.3528

 Summary of Natural Population Analysis:

                                       Natural Population
                Natural  -----------------------------------------------
    Atom  No    Charge         Core      Valence    Rydberg      Total
 -----------------------------------------------------------------------
      C    1   -0.28194      0.99965     2.27658    0.00571     3.28194
      C    2   -0.10934      0.99960     2.10144    0.00830     3.10934
      C    3   -0.18828      0.99961     2.17922    0.00945     3.18828
      C    4   -0.18822      0.99963     2.17942    0.00917     3.18822
      C    5   -0.18952      0.99961     2.18040    0.00951     3.18952
      C    6   -0.10982      0.99957     2.09989    0.01036     3.10982
      C    7   -0.19193      0.99960     2.18297    0.00936     3.19193
      C    8    0.05500      0.99949     1.92854    0.01697     2.94500
      C    9    0.18027      0.99953     1.80539    0.01481     2.81973
      N   10   -0.25822      0.99962     2.74761    0.01099     3.75822
      C   11    0.20788      0.99964     1.77597    0.01651     2.79212
      N   12   -0.23330      0.99968     2.72127    0.01236     3.73330
      C   13    0.10077      0.99961     1.88594    0.01367     2.89923
      C   14   -0.17173      0.99946     2.16426    0.00801     3.17173
      C   15   -0.29897      0.99963     2.29454    0.00479     3.29897
      O   16   -0.37884      0.99990     3.37307    0.00588     4.37884
      H   17    0.09592      0.00000     0.40328    0.00080     0.40408
      H   18    0.09757      0.00000     0.40163    0.00081     0.40243
      H   19    0.09742      0.00000     0.40185    0.00073     0.40258
      H   20    0.08987      0.00000     0.40850    0.00164     0.41013
      H   21    0.09742      0.00000     0.40133    0.00124     0.40258
      H   22    0.09235      0.00000     0.40637    0.00128     0.40765
      H   23    0.09683      0.00000     0.40218    0.00099     0.40317
      H   24    0.09070      0.00000     0.40820    0.00110     0.40930
      H   25    0.09098      0.00000     0.40798    0.00104     0.40902
      H   26    0.10744      0.00000     0.39150    0.00106     0.39256
      H   27    0.09539      0.00000     0.40326    0.00135     0.40461
      H   28    0.09215      0.00000     0.40666    0.00119     0.40785
      H   29    0.10666      0.00000     0.39227    0.00107     0.39334
      H   30    0.08379      0.00000     0.41454    0.00166     0.41621
      H   31    0.07652      0.00000     0.42191    0.00157     0.42348
      H   32    0.10033      0.00000     0.39867    0.00100     0.39967
      H   33    0.10094      0.00000     0.39814    0.00091     0.39906
      H   34    0.10260      0.00000     0.39657    0.00084     0.39740
      H   35    0.10139      0.00000     0.39783    0.00078     0.39861
      H   36    0.23996      0.00000     0.25742    0.00261     0.26004
 =======================================================================
   * Total *    0.00001     15.99384    43.81660    0.18955    59.99999

 Normal termination of Gaussian 16 at Thu Dec 17 21:58:45 2020.
