 Gaussian 16, Revision A.03,

 -----------------------------------------------------------
 # opt freq B3LYP/6-31G(d) empiricaldispersion=gd3bj scf=xqc
 -----------------------------------------------------------

 ------------------------------
 CID_63627706_JID_9225_neutraal
 ------------------------------
 Symbolic Z-matrix:
 Charge =  0 Multiplicity = 1

 SCF Done:  E(RB3LYP) =  -860.899956345     A.U. after   14 cycles
 SCF Done:  E(RB3LYP) =  -860.904264253     A.U. after   12 cycles
 SCF Done:  E(RB3LYP) =  -860.904779200     A.U. after   12 cycles
 SCF Done:  E(RB3LYP) =  -860.905502130     A.U. after   12 cycles
 SCF Done:  E(RB3LYP) =  -860.905679000     A.U. after   12 cycles
 SCF Done:  E(RB3LYP) =  -860.905761483     A.U. after   11 cycles
 SCF Done:  E(RB3LYP) =  -860.905885689     A.U. after   11 cycles
 SCF Done:  E(RB3LYP) =  -860.905924958     A.U. after   11 cycles
 SCF Done:  E(RB3LYP) =  -860.905933991     A.U. after   11 cycles
 SCF Done:  E(RB3LYP) =  -860.905939524     A.U. after    9 cycles
 SCF Done:  E(RB3LYP) =  -860.906030004     A.U. after   10 cycles
 SCF Done:  E(RB3LYP) =  -860.906029970     A.U. after    9 cycles
 SCF Done:  E(RB3LYP) =  -860.906030057     A.U. after    9 cycles
 SCF Done:  E(RB3LYP) =  -860.906030090     A.U. after    7 cycles
 SCF Done:  E(RB3LYP) =  -860.906030097     A.U. after    6 cycles
 Optimization completed.
    -- Stationary point found.
 Normal termination of Gaussian 16 at Mon Dec 14 13:41:54 2020.

 --------------------------------------------------------------------
 #N Geom=AllCheck Guess=TCheck SCRF=Check GenChk RB3LYP/6-31G(d) Freq
 --------------------------------------------------------------------

 Structure from the checkpoint file:  "JID_9225.chk"
 ------------------------------
 CID_63627706_JID_9225_neutraal
 ------------------------------
 Charge =  0 Multiplicity = 1

 SCF Done:  E(RB3LYP) =  -860.906030097     A.U. after    1 cycles

  Exact polarizability: 193.551  15.835 178.058 -21.534  11.745 139.494
 Approx polarizability: 247.473  30.697 283.580 -43.951  26.042 225.959

                      1                      2                      3
                      A                      A                      A
 Frequencies --     17.7209                24.8878                29.1300
 Red. masses --      3.9690                 3.6401                 4.0363
 Frc consts  --      0.0007                 0.0013                 0.0020
 IR Inten    --      0.4842                 0.6203                 0.9805

                      4                      5                      6
                      A                      A                      A
 Frequencies --     49.6172                65.0982                89.8318
 Red. masses --      4.0039                 4.5108                 5.7784
 Frc consts  --      0.0058                 0.0113                 0.0275
 IR Inten    --      0.9424                 0.4297                 0.8836

                      7                      8                      9
                      A                      A                      A
 Frequencies --    132.9947               136.9734               175.2927
 Red. masses --      3.3299                 4.8369                 4.3077
 Frc consts  --      0.0347                 0.0535                 0.0780
 IR Inten    --     12.4881                 2.4912                 1.7121

                     10                     11                     12
                      A                      A                      A
 Frequencies --    190.5612               233.0662               243.9405
 Red. masses --      3.7393                 2.3663                 1.4922
 Frc consts  --      0.0800                 0.0757                 0.0523
 IR Inten    --      1.7397                 0.2737                34.1502

                     13                     14                     15
                      A                      A                      A
 Frequencies --    278.1419               294.1302               316.3181
 Red. masses --      2.0968                 3.6402                 2.7775
 Frc consts  --      0.0956                 0.1855                 0.1637
 IR Inten    --     25.4181                 5.8931                 9.9735

                     16                     17                     18
                      A                      A                      A
 Frequencies --    327.5702               351.8087               379.0178
 Red. masses --      4.5085                 2.9580                 1.3262
 Frc consts  --      0.2850                 0.2157                 0.1122
 IR Inten    --      1.4823                 7.4667                90.0242

                     19                     20                     21
                      A                      A                      A
 Frequencies --    381.0367               406.9465               423.4288
 Red. masses --      2.1994                 3.8872                 2.1979
 Frc consts  --      0.1881                 0.3793                 0.2322
 IR Inten    --     31.7551                13.9463                 3.2415

                     22                     23                     24
                      A                      A                      A
 Frequencies --    427.6484               450.9624               485.7208
 Red. masses --      3.1073                 2.7598                 2.4030
 Frc consts  --      0.3348                 0.3307                 0.3340
 IR Inten    --      0.6932                 2.2693                10.8087

                     25                     26                     27
                      A                      A                      A
 Frequencies --    502.4306               520.5059               570.1493
 Red. masses --      2.7097                 2.9412                 3.0139
 Frc consts  --      0.4030                 0.4695                 0.5772
 IR Inten    --      2.0538                 6.6943                25.2088

                     28                     29                     30
                      A                      A                      A
 Frequencies --    584.1747               627.6878               653.4298
 Red. masses --      3.1098                 3.0691                 6.6148
 Frc consts  --      0.6253                 0.7124                 1.6641
 IR Inten    --      8.8720                37.5818                 2.4686

                     31                     32                     33
                      A                      A                      A
 Frequencies --    676.9338               737.1685               744.5623
 Red. masses --      2.3158                 3.0607                 3.2967
 Frc consts  --      0.6252                 0.9799                 1.0768
 IR Inten    --      9.6396                15.9883                 9.5265

                     34                     35                     36
                      A                      A                      A
 Frequencies --    759.8045               785.6842               817.2032
 Red. masses --      2.7322                 3.2769                 1.3809
 Frc consts  --      0.9293                 1.1918                 0.5433
 IR Inten    --      5.2052                69.8621                10.1345

                     37                     38                     39
                      A                      A                      A
 Frequencies --    833.7415               854.4801               857.9045
 Red. masses --      1.5065                 3.4373                 2.3511
 Frc consts  --      0.6170                 1.4787                 1.0195
 IR Inten    --      0.4920                19.6548                22.1055

                     40                     41                     42
                      A                      A                      A
 Frequencies --    861.5194               877.4096               888.9524
 Red. masses --      1.9302                 1.9356                 1.4282
 Frc consts  --      0.8441                 0.8780                 0.6650
 IR Inten    --     16.5020                49.3352                39.8038

                     43                     44                     45
                      A                      A                      A
 Frequencies --    898.5436               947.8487               955.4044
 Red. masses --      1.9129                 1.5803                 1.4377
 Frc consts  --      0.9099                 0.8365                 0.7732
 IR Inten    --     17.9002                 0.9813                 5.2563

                     46                     47                     48
                      A                      A                      A
 Frequencies --    976.8988              1006.4231              1010.5447
 Red. masses --      1.3148                 1.8999                 1.5628
 Frc consts  --      0.7393                 1.1338                 0.9403
 IR Inten    --      0.7411                16.3668                 6.2837

                     49                     50                     51
                      A                      A                      A
 Frequencies --   1033.1742              1038.0645              1084.1873
 Red. masses --      2.7471                 2.3277                 2.3492
 Frc consts  --      1.7277                 1.4779                 1.6269
 IR Inten    --      4.8003                 3.6900                24.3070

                     52                     53                     54
                      A                      A                      A
 Frequencies --   1103.7869              1114.6017              1132.6014
 Red. masses --      2.8782                 1.9617                 2.6647
 Frc consts  --      2.0661                 1.4359                 2.0140
 IR Inten    --      3.7778                19.9277                 5.3900

                     55                     56                     57
                      A                      A                      A
 Frequencies --   1137.2122              1147.4923              1168.6413
 Red. masses --      1.3783                 2.5152                 2.5178
 Frc consts  --      1.0502                 1.9513                 2.0259
 IR Inten    --     15.1761                42.7687                28.4223

                     58                     59                     60
                      A                      A                      A
 Frequencies --   1180.0878              1183.2984              1205.0845
 Red. masses --      1.4554                 1.8741                 1.1620
 Frc consts  --      1.1942                 1.5461                 0.9942
 IR Inten    --     10.5743                25.7013                45.2737

                     61                     62                     63
                      A                      A                      A
 Frequencies --   1211.2167              1212.6521              1220.2115
 Red. masses --      1.6502                 1.3801                 1.7641
 Frc consts  --      1.4263                 1.1957                 1.5475
 IR Inten    --      6.4632               180.6344                 4.8382

                     64                     65                     66
                      A                      A                      A
 Frequencies --   1263.6800              1289.3202              1316.7676
 Red. masses --      1.2373                 1.3539                 3.5617
 Frc consts  --      1.1641                 1.3260                 3.6385
 IR Inten    --      2.3092                23.9563               102.6111

                     67                     68                     69
                      A                      A                      A
 Frequencies --   1331.9528              1345.6705              1347.9019
 Red. masses --      1.5244                 1.5381                 1.3194
 Frc consts  --      1.5934                 1.6410                 1.4123
 IR Inten    --     61.9937                13.9814                11.4371

                     70                     71                     72
                      A                      A                      A
 Frequencies --   1353.1436              1368.3813              1380.1997
 Red. masses --      1.4564                 1.3045                 3.0410
 Frc consts  --      1.5711                 1.4391                 3.4131
 IR Inten    --      8.2823                 3.9118               413.3967

                     73                     74                     75
                      A                      A                      A
 Frequencies --   1383.4087              1393.1113              1397.0703
 Red. masses --      1.2763                 3.2492                 1.3987
 Frc consts  --      1.4392                 3.7154                 1.6085
 IR Inten    --     32.1829                69.0157                 2.1599

                     76                     77                     78
                      A                      A                      A
 Frequencies --   1405.9832              1413.3477              1415.5375
 Red. masses --      1.3328                 1.3454                 1.4947
 Frc consts  --      1.5522                 1.5835                 1.7645
 IR Inten    --     17.5774                12.4086                12.5344

                     79                     80                     81
                      A                      A                      A
 Frequencies --   1440.9587              1447.6300              1483.4148
 Red. masses --      1.4159                 1.4239                 2.7316
 Frc consts  --      1.7321                 1.7581                 3.5416
 IR Inten    --      8.1413                16.8746                 5.6482

                     82                     83                     84
                      A                      A                      A
 Frequencies --   1494.0405              1497.4465              1501.9500
 Red. masses --      1.2054                 1.3424                 1.1030
 Frc consts  --      1.5853                 1.7735                 1.4660
 IR Inten    --     18.0209                14.0432                 2.7503

                     85                     86                     87
                      A                      A                      A
 Frequencies --   1517.2728              1518.3473              1530.7420
 Red. masses --      1.1104                 1.0867                 1.0895
 Frc consts  --      1.5061                 1.4760                 1.5041
 IR Inten    --      6.4651                 1.4187                 6.8369

                     88                     89                     90
                      A                      A                      A
 Frequencies --   1536.7522              1565.6577              1645.5747
 Red. masses --      1.1135                 2.7851                 5.9945
 Frc consts  --      1.5493                 4.0224                 9.5640
 IR Inten    --      6.7186                33.8985                40.2432

                     91                     92                     93
                      A                      A                      A
 Frequencies --   1674.0999              1700.6104              1762.0054
 Red. masses --      5.8743                 1.0881                 8.2015
 Frc consts  --      9.6999                 1.8540                15.0023
 IR Inten    --    119.5204                34.1908               363.6696

                     94                     95                     96
                      A                      A                      A
 Frequencies --   2893.6729              2909.2276              2964.3314
 Red. masses --      1.0736                 1.0724                 1.0725
 Frc consts  --      5.2967                 5.3475                 5.5527
 IR Inten    --     35.2940               112.9871                70.3948

                     97                     98                     99
                      A                      A                      A
 Frequencies --   3026.6291              3044.3692              3048.9723
 Red. masses --      1.0667                 1.0607                 1.0610
 Frc consts  --      5.7573                 5.7919                 5.8113
 IR Inten    --     40.9092                18.9650                28.5944

                    100                    101                    102
                      A                      A                      A
 Frequencies --   3067.4597              3077.6081              3086.3499
 Red. masses --      1.0890                 1.0857                 1.0955
 Frc consts  --      6.0369                 6.0589                 6.1484
 IR Inten    --     57.6359                46.8043                18.2116

                    103                    104                    105
                      A                      A                      A
 Frequencies --   3092.4523              3094.4008              3105.9646
 Red. masses --      1.1037                 1.0983                 1.0876
 Frc consts  --      6.2187                 6.1960                 6.1819
 IR Inten    --     13.9177                25.0880                33.3094

                    106                    107                    108
                      A                      A                      A
 Frequencies --   3108.9881              3170.0380              3210.5176
 Red. masses --      1.0926                 1.0892                 1.0918
 Frc consts  --      6.2225                 6.4491                 6.6306
 IR Inten    --     51.9605                19.7004                 9.2076

                    109                    110                    111
                      A                      A                      A
 Frequencies --   3214.3434              3228.5159              3473.0211
 Red. masses --      1.0882                 1.0946                 1.0503
 Frc consts  --      6.6244                 6.7221                 7.4641
 IR Inten    --      2.1037                 4.6932                 3.2795

                    112                    113                    114
                      A                      A                      A
 Frequencies --   3548.8846              3557.5769              3749.1624
 Red. masses --      1.0744                 1.0919                 1.0659
 Frc consts  --      7.9726                 8.1420                 8.8275
 IR Inten    --     13.3608                 0.3784                47.9819

 - Thermochemistry -
 -------------------
 Temperature   298.150 Kelvin.  Pressure   1.00000 Atm.
 Atom     1 has atomic number  6 and mass  12.00000

 Molecular mass:   263.16338 amu.
 Principal axes and moments of inertia in atomic units:
                           1         2         3
     Eigenvalues --  3212.25369********************
           X            0.99998  -0.00584  -0.00086
           Y            0.00584   0.99997   0.00548
           Z            0.00083  -0.00549   0.99998
 This molecule is an asymmetric top.
 Rotational symmetry number  1.
 Warning -- assumption of classical behavior for rotation
           may cause significant error
 Rotational temperatures (Kelvin)      0.02696     0.00861     0.00727
 Rotational constants (GHZ):           0.56183     0.17936     0.15145
 Zero-point vibrational energy     911722.1 (Joules/Mol)
                                  217.90681 (Kcal/Mol)
 Warning -- explicit consideration of  28 degrees of freedom as
           vibrations may cause significant error
 Vibrational temperatures:     25.50    35.81    41.91    71.39    93.66
          (Kelvin)            129.25   191.35   197.07   252.21   274.18
                              335.33   350.98   400.18   423.19   455.11
                              471.30   506.17   545.32   548.23   585.51
                              609.22   615.29   648.83   698.84   722.89
                              748.89   820.32   840.50   903.10   940.14
                              973.96  1060.62  1071.26  1093.19  1130.42
                             1175.77  1199.57  1229.41  1234.33  1239.53
                             1262.40  1279.00  1292.80  1363.74  1374.61
                             1405.54  1448.02  1453.95  1486.51  1493.54
                             1559.90  1588.10  1603.66  1629.56  1636.19
                             1650.99  1681.41  1697.88  1702.50  1733.85
                             1742.67  1744.74  1755.61  1818.15  1855.04
                             1894.53  1916.38  1936.12  1939.33  1946.87
                             1968.80  1985.80  1990.42  2004.38  2010.07
                             2022.90  2033.49  2036.64  2073.22  2082.82
                             2134.30  2149.59  2154.49  2160.97  2183.02
                             2184.56  2202.40  2211.04  2252.63  2367.61
                             2408.66  2446.80  2535.13  4163.35  4185.73
                             4265.01  4354.64  4380.17  4386.79  4413.39
                             4427.99  4440.57  4449.35  4452.15  4468.79
                             4473.14  4560.98  4619.22  4624.72  4645.11
                             4996.90  5106.05  5118.56  5394.21

 Zero-point correction=                           0.347257 (Hartree/Particle)
 Thermal correction to Energy=                    0.365495
 Thermal correction to Enthalpy=                  0.366439
 Thermal correction to Gibbs Free Energy=         0.298459
 Sum of electronic and zero-point Energies=           -860.558773
 Sum of electronic and thermal Energies=              -860.540535
 Sum of electronic and thermal Enthalpies=            -860.539591
 Sum of electronic and thermal Free Energies=         -860.607571

                     E (Thermal)             CV                S
                      KCal/Mol        Cal/Mol-Kelvin    Cal/Mol-Kelvin
 Total                  229.351             70.383            143.076
 Electronic               0.000              0.000              0.000
 Translational            0.889              2.981             42.602
 Rotational               0.889              2.981             34.309
 Vibrational            227.574             64.422             66.165
 Vibration     1          0.593              1.986              6.874
 Vibration     2          0.593              1.985              6.200
 Vibration     3          0.593              1.984              5.888
 Vibration     4          0.595              1.978              4.833
 Vibration     5          0.597              1.971              4.296
 Vibration     6          0.602              1.956              3.664
 Vibration     7          0.613              1.920              2.902
 Vibration     8          0.614              1.916              2.846
 Vibration     9          0.627              1.873              2.378
 Vibration    10          0.634              1.853              2.222
 Vibration    11          0.654              1.790              1.855
 Vibration    12          0.659              1.773              1.774
 Vibration    13          0.679              1.714              1.545
 Vibration    14          0.689              1.685              1.450
 Vibration    15          0.703              1.642              1.329
 Vibration    16          0.711              1.620              1.272
 Vibration    17          0.728              1.572              1.158
 Vibration    18          0.749              1.515              1.043
 Vibration    19          0.751              1.511              1.035
 Vibration    20          0.772              1.455              0.937
 Vibration    21          0.786              1.419              0.880
 Vibration    22          0.789              1.410              0.866
 Vibration    23          0.810              1.359              0.793
 Vibration    24          0.842              1.282              0.695
 Vibration    25          0.858              1.245              0.652
 Vibration    26          0.875              1.205              0.609
 Vibration    27          0.926              1.096              0.504
 Vibration    28          0.941              1.066              0.478

 Optimization completed.
    -- Stationary point found.
 Normal termination of Gaussian 16 at Mon Dec 14 14:01:38 2020.

 ----------------------------------------------------------------------
 # B3LYP/6-311++G(d,p) empiricaldispersion=gd3bj scf=xqc pop=npa geom=c
 heck
 ----------------------------------------------------------------------

 --------------------------------------
 CID_63627706_JID_9225_Energie_neutraal
 --------------------------------------
 Structure from the checkpoint file:  "JID_9225.chk"
 Charge =  0 Multiplicity = 1

 SCF Done:  E(RB3LYP) =  -861.162637089     A.U. after   16 cycles
 Normal termination of Gaussian 16 at Mon Dec 14 14:11:51 2020.

 ----------------------------------------------------------------------
 # B3LYP/6-311++G(d,p) empiricaldispersion=gd3bj scf=xqc pop=npa geom=c
 heck
 ----------------------------------------------------------------------

 ------------------------------------
 CID_63627706_JID_9225_Energie_kation
 ------------------------------------
 Structure from the checkpoint file:  "JID_9225.chk"
 Charge =  1 Multiplicity = 2

 SCF Done:  E(UB3LYP) =  -860.882606355     A.U. after   28 cycles
 Normal termination of Gaussian 16 at Mon Dec 14 14:37:05 2020.
 Gaussian 16:  ES64L-G16RevA.03 25-Dec-2016

 ----------------------------------------------------------------------
 # B3LYP/6-311++G(d,p) empiricaldispersion=gd3bj scf=xqc pop=npa geom=c
 heck
 ----------------------------------------------------------------------

 -----------------------------------
 CID_63627706_JID_9225_Energie_anion
 -----------------------------------
 Structure from the checkpoint file:  "JID_9225.chk"
 Charge = -1 Multiplicity = 2

                         Standard orientation:
 ---------------------------------------------------------------------
 Center     Atomic      Atomic             Coordinates (Angstroms)
 Number     Number       Type             X           Y           Z
 ---------------------------------------------------------------------
      1          6           0       -1.409386   -1.433068   -0.990694
      2          6           0       -2.544953   -0.410281   -1.091481
      3          7           0       -3.320850   -0.406405    0.140824
      4          6           0       -2.520071   -0.028054    1.294154
      5          6           0       -1.365219   -1.015619    1.489271
      6          6           0       -0.515656   -1.121131    0.218340
      7          7           0        0.548471   -2.115711    0.373717
      8          6           0        1.849956   -2.004709   -0.074115
      9          8           0        2.472425   -2.991827   -0.455774
     10          6           0        2.496812   -0.657659   -0.019011
     11          6           0        2.241954    0.273518    0.994532
     12          6           0        2.925293    1.486168    1.036102
     13          6           0        3.873897    1.783192    0.051848
     14          6           0        4.148738    0.854463   -0.959646
     15          6           0        3.473677   -0.357350   -0.979524
     16          8           0        4.568374    2.957274    0.030583
     17          6           0       -4.649552    0.193301    0.083744
     18          6           0       -4.756228    1.725947    0.060284
     19          7           0       -4.257516    2.293955   -1.198210
     20          1           0       -0.807277   -1.426638   -1.906931
     21          1           0       -1.840824   -2.436235   -0.877398
     22          1           0       -2.095269    0.577605   -1.319437
     23          1           0       -3.210725   -0.651053   -1.925368
     24          1           0       -3.163806   -0.025372    2.181218
     25          1           0       -2.102974    0.996716    1.199060
     26          1           0       -1.778175   -2.003427    1.729423
     27          1           0       -0.737511   -0.706630    2.333644
     28          1           0       -0.034162   -0.155947    0.038667
     29          1           0        0.233999   -3.078987    0.300583
     30          1           0        1.526415    0.039209    1.776277
     31          1           0        2.730738    2.196869    1.836998
     32          1           0        4.897017    1.098901   -1.706229
     33          1           0        3.695176   -1.099069   -1.739556
     34          1           0        4.298208    3.497987    0.789035
     35          1           0       -5.153406   -0.197744   -0.807184
     36          1           0       -5.204947   -0.165950    0.961917
     37          1           0       -5.821645    1.976921    0.136822
     38          1           0       -4.274511    2.141648    0.963368
     39          1           0       -4.529173    3.273715   -1.261258
     40          1           0       -3.239838    2.288725   -1.199270
 ---------------------------------------------------------------------

 SCF Done:  E(UB3LYP) =  -861.160049421     A.U. after   33 cycles
 SCF Done:  E(UB3LYP) =  -861.160049421     a.u. after    1 cycles

 The electronic state is 2-A.
 Alpha  occ. eigenvalues --  -19.06482 -18.99335 -14.24114 -14.22019 -14.20745
 Alpha  occ. eigenvalues --  -10.17787 -10.14874 -10.12696 -10.11295 -10.11001
 Alpha  occ. eigenvalues --  -10.10781 -10.10438 -10.09089 -10.09028 -10.08842
 Alpha  occ. eigenvalues --  -10.08684 -10.08515 -10.08486 -10.08383  -0.97606
 Alpha  occ. eigenvalues --   -0.94419  -0.85199  -0.83154  -0.79350  -0.76816
 Alpha  occ. eigenvalues --   -0.70932  -0.67692  -0.66695  -0.66266  -0.63770
 Alpha  occ. eigenvalues --   -0.56737  -0.55433  -0.55000  -0.53088  -0.51553
 Alpha  occ. eigenvalues --   -0.49433  -0.47465  -0.45937  -0.42935  -0.41332
 Alpha  occ. eigenvalues --   -0.40989  -0.39872  -0.39287  -0.38099  -0.37101
 Alpha  occ. eigenvalues --   -0.35845  -0.35448  -0.34873  -0.34374  -0.33827
 Alpha  occ. eigenvalues --   -0.32973  -0.32715  -0.31694  -0.31110  -0.30278
 Alpha  occ. eigenvalues --   -0.29823  -0.29182  -0.28654  -0.27837  -0.26715
 Alpha  occ. eigenvalues --   -0.26547  -0.25505  -0.25300  -0.24750  -0.24219
 Alpha  occ. eigenvalues --   -0.17753  -0.17218  -0.16411  -0.15901  -0.14024
 Alpha  occ. eigenvalues --   -0.12841   0.03404
 Alpha virt. eigenvalues --    0.05051   0.05487   0.06522   0.06909   0.07200
 Alpha virt. eigenvalues --    0.07436   0.08220   0.08437   0.08885   0.09393
 Alpha virt. eigenvalues --    0.10137   0.10270   0.10870   0.11651   0.11855

  Beta  occ. eigenvalues --  -19.06425 -18.99289 -14.24108 -14.22019 -14.20715
  Beta  occ. eigenvalues --  -10.17740 -10.14820 -10.12693 -10.11286 -10.10983
  Beta  occ. eigenvalues --  -10.10774 -10.10415 -10.09031 -10.09018 -10.08841
  Beta  occ. eigenvalues --  -10.08666 -10.08506 -10.08472 -10.08377  -0.97486
  Beta  occ. eigenvalues --   -0.94332  -0.85187  -0.83123  -0.79300  -0.76745
  Beta  occ. eigenvalues --   -0.70910  -0.67673  -0.66605  -0.66186  -0.63729
  Beta  occ. eigenvalues --   -0.56676  -0.55364  -0.54953  -0.52991  -0.51517
  Beta  occ. eigenvalues --   -0.49373  -0.47417  -0.45853  -0.42896  -0.41292
  Beta  occ. eigenvalues --   -0.40948  -0.39836  -0.39224  -0.38072  -0.37069
  Beta  occ. eigenvalues --   -0.35795  -0.35413  -0.34807  -0.34325  -0.33790
  Beta  occ. eigenvalues --   -0.32930  -0.32550  -0.31592  -0.31079  -0.30215
  Beta  occ. eigenvalues --   -0.29741  -0.29149  -0.28605  -0.27768  -0.26691
  Beta  occ. eigenvalues --   -0.26515  -0.25457  -0.25247  -0.24725  -0.24108
  Beta  occ. eigenvalues --   -0.17670  -0.17077  -0.16379  -0.15816  -0.13827
  Beta  occ. eigenvalues --   -0.12823
  Beta virt. eigenvalues --    0.05586   0.05875   0.06741   0.06772   0.07088
  Beta virt. eigenvalues --    0.07336   0.07865   0.08263   0.08567   0.09249
  Beta virt. eigenvalues --    0.09572   0.10212   0.10532   0.11096   0.11713

 Mulliken charges and spin densities:
               1          2
     1  C   -0.099495  -0.205490
     2  C   -0.463279   0.000564
     3  N    0.153632   0.023328
     4  C   -0.367542  -0.042549
     5  C    0.184661  -0.461358
     6  C   -0.488291  -0.183313
     7  N    0.086661   0.037604
     8  C   -0.061615  -0.389659
     9  O   -0.336469   0.016609
    10  C    0.533868   0.139994
    11  C   -0.379481   0.349760
    12  C   -0.220799   0.182605
    13  C    1.143895  -1.635059
    14  C    0.215987  -0.364195
    15  C   -0.551950   0.503368
    16  O   -0.247018   0.014720
    17  C   -0.592043   0.471223
    18  C    0.917937  -1.232400
    19  N   -0.392901  -0.001335
    20  H    0.163529   0.033269
    21  H    0.123914   0.004776
    22  H   -0.073096   0.138578
    23  H    0.146493   0.045498
    24  H   -0.117364   0.293047
    25  H    0.102729   0.038397
    26  H    0.135555   0.002073
    27  H   -0.114939   0.293999
    28  H    0.415833  -0.262040
    29  H    0.287077   0.000604
    30  H    0.288468  -0.108788
    31  H   -1.220097   1.407359
    32  H    0.148901   0.025902
    33  H    0.178097   0.024757
    34  H   -0.141664   0.424409
    35  H    0.066737   0.071465
    36  H    0.048399   0.096532
    37  H   -0.273370   0.429449
    38  H   -0.258112   0.392840
    39  H   -0.057336   0.310962
    40  H    0.114487   0.112497
 Sum of Mulliken charges =  -1.00000   1.00000

 Dipole moment (field-independent basis, Debye):
    X=             -2.3800    Y=             -6.0339    Z=             -2.6041  Tot=              6.9895
 Quadrupole moment (field-independent basis, Debye-Ang):
   XX=           -212.8073   YY=           -179.8599   ZZ=           -147.6739
   XY=              8.1094   XZ=             -8.9241   YZ=             -8.8253

 Summary of Natural Population Analysis:

                                       Natural Population
                Natural  -----------------------------------------------
    Atom  No    Charge         Core      Valence    Rydberg      Total
 -----------------------------------------------------------------------
      C    1   -0.19355      0.99961     2.18665    0.00729     3.19355
      C    2   -0.07954      0.99961     2.07041    0.00951     3.07954
      N    3   -0.28524      0.99971     2.77316    0.01238     3.78524
      C    4   -0.08651      0.99961     2.07441    0.01249     3.08651
      C    5   -0.19307      0.99961     2.18330    0.01016     3.19307
      C    6   -0.01815      0.99956     2.00665    0.01194     3.01815
      N    7   -0.32083      0.99967     2.81145    0.00972     3.82083
      C    8    0.34534      0.99962     1.63251    0.02253     2.65466
      O    9   -0.31978      0.99988     3.31459    0.00531     4.31978
      C   10   -0.08671      0.99945     2.07640    0.01086     3.08671
      C   11   -0.07320      0.99954     2.06457    0.00909     3.07320
      C   12   -0.14092      0.99952     2.13052    0.01088     3.14092
      C   13    0.17493      0.99939     1.81218    0.01349     2.82507
      C   14   -0.13060      0.99952     2.12113    0.00995     3.13060
      C   15   -0.07071      0.99954     2.06330    0.00788     3.07071
      O   16   -0.33748      0.99988     3.33076    0.00684     4.33748
      C   17   -0.08161      0.99961     2.06967    0.01233     3.08161
      C   18   -0.10073      0.99963     2.08976    0.01134     3.10073
      N   19   -0.42648      0.99977     2.91554    0.01117     3.92648
      H   20    0.10227      0.00000     0.39681    0.00092     0.39773
      H   21    0.09521      0.00000     0.40345    0.00134     0.40479
      H   22    0.07714      0.00000     0.42122    0.00164     0.42286
      H   23    0.10040      0.00000     0.39850    0.00110     0.39960
      H   24    0.09892      0.00000     0.39991    0.00116     0.40108
      H   25    0.08235      0.00000     0.41558    0.00207     0.41765
      H   26    0.09601      0.00000     0.40261    0.00138     0.40399
      H   27    0.10335      0.00000     0.39552    0.00113     0.39665
      H   28    0.10560      0.00000     0.39172    0.00268     0.39440
      H   29    0.18746      0.00000     0.31022    0.00232     0.31254
      H   30    0.10381      0.00000     0.39423    0.00196     0.39619
      H   31    0.10706      0.00000     0.38932    0.00362     0.39294
      H   32    0.10477      0.00000     0.39443    0.00080     0.39523
      H   33    0.10823      0.00000     0.39080    0.00098     0.39177
      H   34    0.24021      0.00000     0.25240    0.00740     0.25979
      H   35    0.09526      0.00000     0.40346    0.00128     0.40474
      H   36    0.09305      0.00000     0.40593    0.00103     0.40695
      H   37    0.09112      0.00000     0.40739    0.00149     0.40888
      H   38    0.08204      0.00000     0.41600    0.00196     0.41796
      H   39    0.17716      0.00000     0.32097    0.00187     0.32284
      H   40    0.17340      0.00000     0.32448    0.00211     0.32660
 =======================================================================
   * Total *   -0.00000     18.99271    51.76190    0.24538    71.00000

 Normal termination of Gaussian 16 at Mon Dec 14 15:06:46 2020.
