 Gaussian 16, Revision A.03,

 -----------------------------------------------------------
 # opt freq B3LYP/6-31G(d) empiricaldispersion=gd3bj scf=xqc
 -----------------------------------------------------------

 ------------------------------
 CID_15740216_JID_2650_neutraal
 ------------------------------
 Symbolic Z-matrix:
 Charge =  0 Multiplicity = 1

 SCF Done:  E(RB3LYP) =  -574.678010116     A.U. after   15 cycles
 SCF Done:  E(RB3LYP) =  -574.681397269     A.U. after   12 cycles
 SCF Done:  E(RB3LYP) =  -574.681712725     A.U. after   11 cycles
 SCF Done:  E(RB3LYP) =  -574.681819866     A.U. after   12 cycles
 SCF Done:  E(RB3LYP) =  -574.682437814     A.U. after   12 cycles
 SCF Done:  E(RB3LYP) =  -574.683219701     A.U. after   12 cycles
 SCF Done:  E(RB3LYP) =  -574.683095363     A.U. after   13 cycles
 SCF Done:  E(RB3LYP) =  -574.683881378     A.U. after   13 cycles
 SCF Done:  E(RB3LYP) =  -574.684467957     A.U. after   12 cycles
 SCF Done:  E(RB3LYP) =  -574.684623230     A.U. after   11 cycles
 SCF Done:  E(RB3LYP) =  -574.687083002     A.U. after   11 cycles
 SCF Done:  E(RB3LYP) =  -574.687103931     A.U. after   10 cycles
 SCF Done:  E(RB3LYP) =  -574.687107984     A.U. after    9 cycles
 SCF Done:  E(RB3LYP) =  -574.687108259     A.U. after    9 cycles
 SCF Done:  E(RB3LYP) =  -574.687108613     A.U. after    8 cycles
 Optimization completed.
    -- Stationary point found.

 1\1\GINC-NODE206\FOpt\RB3LYP\6-31G(d)\C9H10O3\VSC10255\09-Dec-2020\0\\
 # opt freq B3LYP/6-31G(d) empiricaldispersion=gd3bj scf=xqc\\CID_15740
 216_JID_2650_neutraal\\0,1\C,0.6521875118,0.0393580297,-0.2453674263\C
 ,0.4069796366,-1.1394528,0.6543677637\O,0.1618490065,-1.1012229074,1.8
 345658898\O,0.4830014293,-2.3035760945,-0.0666855811\C,0.0510981211,-3
 .4903734014,0.5219844653\C,0.974546082,-4.5312741652,0.5510502162\C,0.
 601719148,-5.7799604733,1.0439058268\C,-0.6997637381,-5.9801347444,1.5
 027876204\C,-1.616490705,-4.9315113966,1.453722396\C,-1.2685160222,-3.

 Normal termination of Gaussian 16 at Wed Dec  9 17:34:45 2020.

 --------------------------------------------------------------------
 #N Geom=AllCheck Guess=TCheck SCRF=Check GenChk RB3LYP/6-31G(d) Freq
 --------------------------------------------------------------------

 Structure from the checkpoint file:  "JID_2650.chk"
 ------------------------------
 CID_15740216_JID_2650_neutraal
 ------------------------------
 Charge =  0 Multiplicity = 1

 SCF Done:  E(RB3LYP) =  -574.687108613     A.U. after    1 cycles

  Exact polarizability: 130.844   2.118 100.744  -4.186   9.355  61.266
 Approx polarizability: 184.516   3.329 161.681  -8.728  21.199 103.336

                      1                      2                      3
                      A                      A                      A
 Frequencies --     80.2413                89.9193               102.6133
 Red. masses --      5.8676                 3.1021                 4.4063
 Frc consts  --      0.0223                 0.0148                 0.0273
 IR Inten    --      0.6879                 3.9970                 0.9987

                      4                      5                      6
                      A                      A                      A
 Frequencies --    118.3507               131.3884               189.3737
 Red. masses --      3.9135                 1.1671                 3.3868
 Frc consts  --      0.0323                 0.0119                 0.0716
 IR Inten    --      0.6522                 0.2745                 1.8921

                      7                      8                      9
                      A                      A                      A
 Frequencies --    248.5615               296.2647               312.3531
 Red. masses --      4.2616                 2.9843                 3.7856
 Frc consts  --      0.1551                 0.1543                 0.2176
 IR Inten    --      5.9416                 3.6039                 2.9565

                     10                     11                     12
                      A                      A                      A
 Frequencies --    361.7892               390.5601               440.0326
 Red. masses --      1.5025                 3.7997                 3.6284
 Frc consts  --      0.1159                 0.3415                 0.4139
 IR Inten    --     92.5867                44.2461                 7.4869

                     13                     14                     15
                      A                      A                      A
 Frequencies --    470.1211               527.7671               560.6562
 Red. masses --      3.1163                 4.1767                 5.0935
 Frc consts  --      0.4058                 0.6854                 0.9433
 IR Inten    --      8.3622                 5.8065                 8.2484

                     16                     17                     18
                      A                      A                      A
 Frequencies --    580.6275               625.9003               679.5465
 Red. masses --      3.0371                 4.9871                 4.9676
 Frc consts  --      0.6033                 1.1511                 1.3516
 IR Inten    --     11.9152                 4.3641                 5.1365

                     19                     20                     21
                      A                      A                      A
 Frequencies --    722.1220               764.7684               785.2243
 Red. masses --      4.4665                 1.5132                 2.9005
 Frc consts  --      1.3723                 0.5214                 1.0537
 IR Inten    --      2.9603                26.7094                23.8701

                     22                     23                     24
                      A                      A                      A
 Frequencies --    856.2768               877.4147               934.0151
 Red. masses --      4.2298                 1.4050                 3.7552
 Frc consts  --      1.8272                 0.6373                 1.9302
 IR Inten    --      5.3776                 0.2668                17.7647

                     25                     26                     27
                      A                      A                      A
 Frequencies --    949.4923               981.4761               994.6520
 Red. masses --      1.6121                 1.2554                 1.5996
 Frc consts  --      0.8563                 0.7125                 0.9324
 IR Inten    --     11.6911                 0.1346                16.5253

                     28                     29                     30
                      A                      A                      A
 Frequencies --   1035.6121              1055.1163              1074.9814
 Red. masses --      1.8327                 4.1995                 1.8036
 Frc consts  --      1.1581                 2.7546                 1.2280
 IR Inten    --     43.8738                52.6270                14.8308

                     31                     32                     33
                      A                      A                      A
 Frequencies --   1085.1716              1140.1436              1192.6831
 Red. masses --      2.4105                 1.9477                 1.1089
 Frc consts  --      1.6724                 1.4917                 0.9294
 IR Inten    --     18.9739                32.5436                 0.7199

                     34                     35                     36
                      A                      A                      A
 Frequencies --   1219.2635              1227.0562              1249.3569
 Red. masses --      2.5131                 1.2286                 3.7967
 Frc consts  --      2.2011                 1.0899                 3.4916
 IR Inten    --     58.4724                68.4157               479.6273

                     37                     38                     39
                      A                      A                      A
 Frequencies --   1256.7853              1303.3200              1348.3515
 Red. masses --      2.7276                 1.4762                 4.0457
 Frc consts  --      2.5384                 1.4774                 4.3336
 IR Inten    --      3.0865                 6.7114                 3.4560

                     40                     41                     42
                      A                      A                      A
 Frequencies --   1393.0214              1418.4863              1441.7471
 Red. masses --      1.4066                 1.3288                 1.2940
 Frc consts  --      1.6082                 1.5753                 1.5848
 IR Inten    --      4.2307                66.1959                76.7672

                     43                     44                     45
                      A                      A                      A
 Frequencies --   1501.6557              1502.5855              1506.8659
 Red. masses --      2.2173                 1.0695                 1.0612
 Frc consts  --      2.9458                 1.4226                 1.4197
 IR Inten    --     27.6576                 8.2577                 7.9113

                     46                     47                     48
                      A                      A                      A
 Frequencies --   1523.9797              1541.1964              1639.5631
 Red. masses --      1.2066                 2.0528                 6.0195
 Frc consts  --      1.6511                 2.8729                 9.5339
 IR Inten    --      7.2604                40.8927                 6.6784

                     49                     50                     51
                      A                      A                      A
 Frequencies --   1670.7222              1852.3026              3012.3191
 Red. masses --      6.3857                11.4627                 1.0720
 Frc consts  --     10.5019                23.1718                 5.7312
 IR Inten    --      7.9384               191.2650                60.8714

                     52                     53                     54
                      A                      A                      A
 Frequencies --   3075.5485              3117.0864              3145.5107
 Red. masses --      1.0365                 1.0915                 1.0995
 Frc consts  --      5.7765                 6.2482                 6.4096
 IR Inten    --      1.5284                 7.4481                 5.5207

                     55                     56                     57
                      A                      A                      A
 Frequencies --   3180.1513              3183.1991              3196.4414
 Red. masses --      1.0875                 1.1047                 1.0883
 Frc consts  --      6.4798                 6.5953                 6.5511
 IR Inten    --      7.8033                 8.2638                 7.9313

                     58                     59                     60
                      A                      A                      A
 Frequencies --   3210.3579              3221.2443              3738.1175
 Red. masses --      1.0933                 1.0962                 1.0661
 Frc consts  --      6.6390                 6.7020                 8.7775
 IR Inten    --     23.1898                10.4140                14.2447

 - Thermochemistry -
 -------------------
 Temperature   298.150 Kelvin.  Pressure   1.00000 Atm.
 Atom     1 has atomic number  6 and mass  12.00000

 Molecular mass:   166.06299 amu.
 Principal axes and moments of inertia in atomic units:
                           1         2         3
     Eigenvalues --  1074.367532437.306513051.14876
           X            0.99990  -0.00938  -0.01069
           Y            0.00960   0.99974   0.02075
           Z            0.01049  -0.02085   0.99973
 This molecule is an asymmetric top.
 Rotational symmetry number  1.
 Warning -- assumption of classical behavior for rotation
           may cause significant error
 Rotational temperatures (Kelvin)      0.08062     0.03554     0.02839
 Rotational constants (GHZ):           1.67982     0.74047     0.59150
 Zero-point vibrational energy     462544.8 (Joules/Mol)
                                  110.55086 (Kcal/Mol)
 Warning -- explicit consideration of  16 degrees of freedom as
           vibrations may cause significant error
 Vibrational temperatures:    115.45   129.37   147.64   170.28   189.04
          (Kelvin)            272.47   357.62   426.26   449.41   520.53
                              561.93   633.11   676.40   759.34   806.66
                              835.39   900.53   977.72  1038.97  1100.33
                             1129.76  1231.99  1262.40  1343.84  1366.11
                             1412.13  1431.08  1490.01  1518.08  1546.66
                             1561.32  1640.41  1716.01  1754.25  1765.46
                             1797.55  1808.23  1875.19  1939.98  2004.25
                             2040.89  2074.35  2160.55  2161.89  2168.04
                             2192.67  2217.44  2358.97  2403.80  2665.05
                             4334.06  4425.03  4484.79  4525.69  4575.53
                             4579.91  4598.97  4618.99  4634.65  5378.32

 Zero-point correction=                           0.176174 (Hartree/Particle)
 Thermal correction to Energy=                    0.187398
 Thermal correction to Enthalpy=                  0.188342
 Thermal correction to Gibbs Free Energy=         0.139092
 Sum of electronic and zero-point Energies=           -574.510935
 Sum of electronic and thermal Energies=              -574.499710
 Sum of electronic and thermal Enthalpies=            -574.498766
 Sum of electronic and thermal Free Energies=         -574.548016

                     E (Thermal)             CV                S
                      KCal/Mol        Cal/Mol-Kelvin    Cal/Mol-Kelvin
 Total                  117.594             42.013            103.656
 Electronic               0.000              0.000              0.000
 Translational            0.889              2.981             41.230
 Rotational               0.889              2.981             30.458
 Vibrational            115.817             36.051             31.968
 Vibration     1          0.600              1.963              3.885
 Vibration     2          0.602              1.956              3.662
 Vibration     3          0.605              1.947              3.404
 Vibration     4          0.609              1.934              3.127
 Vibration     5          0.612              1.922              2.926
 Vibration     6          0.633              1.854              2.234
 Vibration     7          0.662              1.765              1.741
 Vibration     8          0.690              1.681              1.438
 Vibration     9          0.701              1.650              1.350
 Vibration    10          0.736              1.551              1.114
 Vibration    11          0.758              1.490              0.998
 Vibration    12          0.800              1.383              0.827
 Vibration    13          0.827              1.316              0.737
 Vibration    14          0.883              1.189              0.592
 Vibration    15          0.916              1.116              0.523
 Vibration    16          0.937              1.073              0.484

 Optimization completed.
    -- Stationary point found.

 1\1\GINC-NODE206\Freq\RB3LYP\6-31G(d)\C9H10O3\VSC10255\09-Dec-2020\0\\
 #N Geom=AllCheck Guess=TCheck SCRF=Check GenChk RB3LYP/6-31G(d) Freq\\
 CID_15740216_JID_2650_neutraal\\0,1\C,0.6521875118,0.0393580297,-0.245
 3674263\C,0.4069796366,-1.1394528,0.6543677637\O,0.1618490065,-1.10122
 29074,1.8345658898\O,0.4830014293,-2.3035760945,-0.0666855811\C,0.0510
 981211,-3.4903734014,0.5219844653\C,0.974546082,-4.5312741652,0.551050
 2162\C,0.601719148,-5.7799604733,1.0439058268\C,-0.6997637381,-5.98013
 47444,1.5027876204\C,-1.616490705,-4.9315113966,1.453722396\C,-1.26851

 Normal termination of Gaussian 16 at Wed Dec  9 17:39:53 2020.

 ----------------------------------------------------------------------
 # B3LYP/6-311++G(d,p) empiricaldispersion=gd3bj scf=xqc pop=npa geom=c
 heck
 ----------------------------------------------------------------------

 --------------------------------------
 CID_15740216_JID_2650_Energie_neutraal
 --------------------------------------
 Structure from the checkpoint file:  "JID_2650.chk"
 Charge =  0 Multiplicity = 1

 SCF Done:  E(RB3LYP) =  -574.858962589     A.U. after   15 cycles
 Normal termination of Gaussian 16 at Wed Dec  9 17:43:27 2020.

 ----------------------------------------------------------------------
 # B3LYP/6-311++G(d,p) empiricaldispersion=gd3bj scf=xqc pop=npa geom=c
 heck
 ----------------------------------------------------------------------

 ------------------------------------
 CID_15740216_JID_2650_Energie_kation
 ------------------------------------
 Structure from the checkpoint file:  "JID_2650.chk"
 Charge =  1 Multiplicity = 2

 SCF Done:  E(UB3LYP) =  -574.532464131     A.U. after   25 cycles
 Normal termination of Gaussian 16 at Wed Dec  9 17:49:28 2020.
 Gaussian 16:  ES64L-G16RevA.03 25-Dec-2016

 -----------------------------------
 CID_15740216_JID_2650_Energie_anion
 -----------------------------------
 Structure from the checkpoint file:  "JID_2650.chk"
 Charge = -1 Multiplicity = 2

                         Standard orientation:
 ---------------------------------------------------------------------
 Center     Atomic      Atomic             Coordinates (Angstroms)
 Number     Number       Type             X           Y           Z
 ---------------------------------------------------------------------
      1          6           0        3.230360   -0.852681   -0.265146
      2          6           0        1.880545   -0.663666    0.368508
      3          8           0        1.663842   -0.340650    1.510051
      4          8           0        0.892714   -0.896536   -0.553902
      5          6           0       -0.418278   -0.542822   -0.241257
      6          6           0       -1.366039   -1.557527   -0.337156
      7          6           0       -2.713687   -1.274557   -0.125269
      8          6           0       -3.105587    0.028702    0.178752
      9          6           0       -2.145771    1.036182    0.257122
     10          6           0       -0.784458    0.780042    0.053725
     11          6           0        0.209894    1.914877    0.173118
     12          8           0        1.252778    1.890754   -0.799203
     13          1           0        3.987300   -0.969735    0.511145
     14          1           0        3.447166    0.047028   -0.851270
     15          1           0        3.233835   -1.710849   -0.941927
     16          1           0       -1.027997   -2.560373   -0.576658
     17          1           0       -3.450222   -2.069119   -0.198441
     18          1           0       -4.153028    0.263142    0.342878
     19          1           0       -2.452878    2.055173    0.480129
     20          1           0       -0.337455    2.868807    0.133578
     21          1           0        0.720652    1.859814    1.138300
     22          1           0        0.836077    1.776269   -1.667684
 ---------------------------------------------------------------------

 SCF Done:  E(UB3LYP) =  -574.844409346     A.U. after   33 cycles
 SCF Done:  E(UB3LYP) =  -574.844409346     a.u. after    1 cycles

 The electronic state is 2-A.
 Alpha  occ. eigenvalues --  -19.07014 -19.01755 -19.01459 -10.20738 -10.13205
 Alpha  occ. eigenvalues --  -10.11530 -10.08117 -10.07782 -10.07456 -10.07359
 Alpha  occ. eigenvalues --  -10.07212 -10.06982  -1.01147  -0.92981  -0.91833
 Alpha  occ. eigenvalues --   -0.75857  -0.67394  -0.66677  -0.63230  -0.57846
 Alpha  occ. eigenvalues --   -0.53165  -0.50983  -0.46541  -0.41066  -0.40332
 Alpha  occ. eigenvalues --   -0.39398  -0.38103  -0.36804  -0.35289  -0.34189
 Alpha  occ. eigenvalues --   -0.33429  -0.32143  -0.31332  -0.30047  -0.28720
 Alpha  occ. eigenvalues --   -0.27816  -0.26179  -0.25134  -0.22891  -0.22409
 Alpha  occ. eigenvalues --   -0.18644  -0.17678  -0.15145  -0.14318   0.04682
 Alpha virt. eigenvalues --    0.06648   0.07333   0.07940   0.08165   0.08657
 Alpha virt. eigenvalues --    0.09228   0.09914   0.10577   0.11219   0.11992
 Alpha virt. eigenvalues --    0.12346   0.12979   0.14592   0.15553   0.16298

  Beta  occ. eigenvalues --  -19.07014 -19.01701 -19.01451 -10.20734 -10.13158
  Beta  occ. eigenvalues --  -10.11514 -10.08088 -10.07747 -10.07442 -10.07360
  Beta  occ. eigenvalues --  -10.07152 -10.06953  -1.01130  -0.92962  -0.91712
  Beta  occ. eigenvalues --   -0.75781  -0.67327  -0.66593  -0.63160  -0.57746
  Beta  occ. eigenvalues --   -0.53114  -0.50921  -0.46453  -0.40991  -0.40280
  Beta  occ. eigenvalues --   -0.39347  -0.38058  -0.36743  -0.35231  -0.34134
  Beta  occ. eigenvalues --   -0.33363  -0.32089  -0.31292  -0.29990  -0.28686
  Beta  occ. eigenvalues --   -0.27760  -0.26084  -0.25061  -0.22829  -0.22368
  Beta  occ. eigenvalues --   -0.18618  -0.17622  -0.15002  -0.14094
  Beta virt. eigenvalues --    0.07071   0.07578   0.08140   0.08254   0.08507
  Beta virt. eigenvalues --    0.09368   0.09809   0.10427   0.10883   0.11699
  Beta virt. eigenvalues --    0.12305   0.12619   0.13363   0.14567   0.15647

 Mulliken charges and spin densities:
               1          2
     1  C    1.550351  -2.041275
     2  C   -1.248501   1.347669
     3  O   -0.186245  -0.015689
     4  O   -0.009406   0.008615
     5  C   -2.829140   1.962810
     6  C   -0.680645   0.440336
     7  C    1.581417  -1.764244
     8  C    0.965349  -1.290251
     9  C    0.135267  -0.282140
    10  C   -0.408655   1.844828
    11  C    2.932204  -3.592104
    12  O   -0.208657   0.000119
    13  H   -0.051981   0.203979
    14  H   -0.089039   0.285207
    15  H   -0.370818   0.534945
    16  H   -0.343137   0.523388
    17  H   -0.360752   0.518189
    18  H   -0.737072   0.901981
    19  H   -0.325299   0.460911
    20  H   -0.322030   0.496249
    21  H    0.200816  -0.002468
    22  H   -0.194025   0.458945
 Sum of Mulliken charges =  -1.00000   1.00000

 Dipole moment (field-independent basis, Debye):
    X=              1.9179    Y=             -0.3686    Z=              1.4787  Tot=              2.4497
 Quadrupole moment (field-independent basis, Debye-Ang):
   XX=           -132.6383   YY=           -107.7435   ZZ=           -100.9293
   XY=             -1.1448   XZ=              3.0760   YZ=              0.9513

 Summary of Natural Population Analysis:

                                       Natural Population
                Natural  -----------------------------------------------
    Atom  No    Charge         Core      Valence    Rydberg      Total
 -----------------------------------------------------------------------
      C    1   -0.33372      0.99961     2.32891    0.00520     3.33372
      C    2    0.41591      0.99969     1.55905    0.02535     2.58409
      O    3   -0.29978      0.99986     3.29449    0.00543     4.29978
      O    4   -0.28135      0.99984     3.26988    0.01163     4.28135
      C    5    0.15737      0.99929     1.82862    0.01472     2.84263
      C    6   -0.11364      0.99951     2.10403    0.01011     3.11364
      C    7   -0.08776      0.99956     2.07835    0.00985     3.08776
      C    8   -0.10250      0.99956     2.09229    0.01065     3.10250
      C    9   -0.09021      0.99953     2.08010    0.01059     3.09021
      C   10   -0.04524      0.99945     2.03499    0.01080     3.04524
      C   11   -0.01765      0.99955     2.00421    0.01389     3.01765
      O   12   -0.36799      0.99990     3.36105    0.00704     4.36799
      H   13    0.10717      0.00000     0.39199    0.00085     0.39283
      H   14    0.12319      0.00000     0.37570    0.00111     0.37681
      H   15    0.11267      0.00000     0.38560    0.00173     0.38733
      H   16    0.10632      0.00000     0.39246    0.00123     0.39368
      H   17    0.10121      0.00000     0.39741    0.00138     0.39879
      H   18    0.10224      0.00000     0.39585    0.00191     0.39776
      H   19    0.10015      0.00000     0.39844    0.00141     0.39985
      H   20    0.08064      0.00000     0.41782    0.00154     0.41936
      H   21    0.10078      0.00000     0.39778    0.00144     0.39922
      H   22    0.23219      0.00000     0.26010    0.00771     0.26781
 =======================================================================
   * Total *    0.00000     11.99535    31.84911    0.15554    44.00000

 Normal termination of Gaussian 16 at Wed Dec  9 17:57:10 2020.
