 Gaussian 16, Revision A.03,

 -----------------------------------------------------------
 # opt freq B3LYP/6-31G(d) empiricaldispersion=gd3bj scf=xqc
 -----------------------------------------------------------

 -------------------------------
 CID_115199071_JID_5886_neutraal
 -------------------------------
 Symbolic Z-matrix:
 Charge =  0 Multiplicity = 1

 SCF Done:  E(RB3LYP) =  -652.885466881     A.U. after   13 cycles
 SCF Done:  E(RB3LYP) =  -652.890203395     A.U. after   12 cycles
 SCF Done:  E(RB3LYP) =  -652.890635428     A.U. after   11 cycles
 SCF Done:  E(RB3LYP) =  -652.890198577     A.U. after   11 cycles
 SCF Done:  E(RB3LYP) =  -652.890820637     A.U. after   11 cycles
 SCF Done:  E(RB3LYP) =  -652.890721942     A.U. after   11 cycles
 SCF Done:  E(RB3LYP) =  -652.890893353     A.U. after   10 cycles
 SCF Done:  E(RB3LYP) =  -652.890898403     A.U. after    8 cycles
 SCF Done:  E(RB3LYP) =  -652.890899431     A.U. after    8 cycles
 SCF Done:  E(RB3LYP) =  -652.890899547     A.U. after    7 cycles
 SCF Done:  E(RB3LYP) =  -652.890899574     A.U. after    7 cycles
 SCF Done:  E(RB3LYP) =  -652.890899564     A.U. after    6 cycles
 SCF Done:  E(RB3LYP) =  -652.890899556     A.U. after    6 cycles
 Optimization completed.
    -- Stationary point found.
 Normal termination of Gaussian 16 at Thu Dec 10 17:27:49 2020.

 --------------------------------------------------------------------
 #N Geom=AllCheck Guess=TCheck SCRF=Check GenChk RB3LYP/6-31G(d) Freq
 --------------------------------------------------------------------

 Structure from the checkpoint file:  "JID_5886.chk"
 -------------------------------
 CID_115199071_JID_5886_neutraal
 -------------------------------
 Charge =  0 Multiplicity = 1

 SCF Done:  E(RB3LYP) =  -652.890899556     A.U. after    1 cycles

  Exact polarizability: 197.036 -10.923 140.906   8.543   6.566  93.861
 Approx polarizability: 257.416  -8.832 227.897  18.708  17.466 140.158

                      1                      2                      3
                      A                      A                      A
 Frequencies --     28.3795                45.6009                81.5077
 Red. masses --      3.6245                 3.5707                 3.3942
 Frc consts  --      0.0017                 0.0044                 0.0133
 IR Inten    --      0.6242                 0.0834                 0.7867

                      4                      5                      6
                      A                      A                      A
 Frequencies --     92.8798               130.4029               178.6587
 Red. masses --      3.6029                 2.4125                 3.8723
 Frc consts  --      0.0183                 0.0242                 0.0728
 IR Inten    --      1.5860                 3.5810                 1.7353

                      7                      8                      9
                      A                      A                      A
 Frequencies --    192.6355               221.4493               236.4961
 Red. masses --      3.2536                 3.3318                 1.5327
 Frc consts  --      0.0711                 0.0963                 0.0505
 IR Inten    --      6.4605                 0.7554                 1.1020

                     10                     11                     12
                      A                      A                      A
 Frequencies --    293.8840               303.6807               328.1487
 Red. masses --      1.4567                 1.6223                 2.2473
 Frc consts  --      0.0741                 0.0881                 0.1426
 IR Inten    --      2.1916                19.1168                 2.5757

                     13                     14                     15
                      A                      A                      A
 Frequencies --    348.6476               370.2411               386.6969
 Red. masses --      2.7380                 4.9034                 2.1277
 Frc consts  --      0.1961                 0.3960                 0.1875
 IR Inten    --     15.0048                 3.0885                 1.1402

                     16                     17                     18
                      A                      A                      A
 Frequencies --    418.2047               429.2716               451.4790
 Red. masses --      2.5904                 3.1532                 3.7407
 Frc consts  --      0.2669                 0.3423                 0.4492
 IR Inten    --      5.5680                 2.1004                15.1141

                     19                     20                     21
                      A                      A                      A
 Frequencies --    545.3217               582.4452               607.1425
 Red. masses --      4.3205                 2.7290                 2.7345
 Frc consts  --      0.7570                 0.5455                 0.5939
 IR Inten    --      4.9352                 1.2927                 5.6439

                     22                     23                     24
                      A                      A                      A
 Frequencies --    645.3009               679.9369               710.8371
 Red. masses --      3.3623                 2.7975                 2.8971
 Frc consts  --      0.8249                 0.7620                 0.8625
 IR Inten    --     11.9724                 3.5219                59.9650

                     25                     26                     27
                      A                      A                      A
 Frequencies --    718.0822               786.6720               806.8429
 Red. masses --      2.8462                 3.0112                 2.0710
 Frc consts  --      0.8647                 1.0979                 0.7943
 IR Inten    --     56.4378                 0.8996                43.9394

                     28                     29                     30
                      A                      A                      A
 Frequencies --    810.8608               817.0569               860.0929
 Red. masses --      1.5715                 2.4995                 1.6537
 Frc consts  --      0.6088                 0.9831                 0.7208
 IR Inten    --     22.9553                 0.3232                17.4135

                     31                     32                     33
                      A                      A                      A
 Frequencies --    864.9913               880.0918               909.6154
 Red. masses --      1.8077                 1.8669                 1.2890
 Frc consts  --      0.7969                 0.8520                 0.6284
 IR Inten    --     26.3543                32.5721                 0.3299

                     34                     35                     36
                      A                      A                      A
 Frequencies --    914.7883               950.3050               961.9707
 Red. masses --      1.7147                 2.0865                 1.9757
 Frc consts  --      0.8455                 1.1102                 1.0772
 IR Inten    --     25.2344                 7.8968                33.8703

                     37                     38                     39
                      A                      A                      A
 Frequencies --    969.6746              1010.7742              1024.3240
 Red. masses --      2.0832                 1.5201                 5.4660
 Frc consts  --      1.1541                 0.9150                 3.3791
 IR Inten    --      2.5186                 1.2819                72.8076

                     40                     41                     42
                      A                      A                      A
 Frequencies --   1028.5103              1054.3201              1089.0244
 Red. masses --      1.8726                 1.6042                 1.6444
 Frc consts  --      1.1671                 1.0507                 1.1490
 IR Inten    --      4.0183                 1.9423                 5.7790

                     43                     44                     45
                      A                      A                      A
 Frequencies --   1094.1722              1123.6350              1170.8665
 Red. masses --      1.8474                 2.4711                 1.8221
 Frc consts  --      1.3031                 1.8382                 1.4717
 IR Inten    --      2.3772                27.0668                 8.7446

                     46                     47                     48
                      A                      A                      A
 Frequencies --   1173.1842              1183.5413              1215.6166
 Red. masses --      1.6696                 2.4086                 1.2779
 Frc consts  --      1.3539                 1.9879                 1.1126
 IR Inten    --     23.0067                15.0684                 2.6636

                     49                     50                     51
                      A                      A                      A
 Frequencies --   1234.2180              1255.4776              1260.2812
 Red. masses --      1.2715                 1.2236                 1.8108
 Frc consts  --      1.1412                 1.1363                 1.6946
 IR Inten    --     30.2506                 7.4195               170.3466

                     52                     53                     54
                      A                      A                      A
 Frequencies --   1266.0706              1288.0733              1302.8343
 Red. masses --      1.4030                 1.5756                 1.2293
 Frc consts  --      1.3250                 1.5402                 1.2294
 IR Inten    --     57.5128                 6.5712                 1.8144

                     55                     56                     57
                      A                      A                      A
 Frequencies --   1325.4029              1337.3670              1384.2175
 Red. masses --      1.6562                 1.8887                 3.2860
 Frc consts  --      1.7142                 1.9903                 3.7096
 IR Inten    --     10.9590                23.6495                23.7405

                     58                     59                     60
                      A                      A                      A
 Frequencies --   1393.2534              1403.1575              1407.3389
 Red. masses --      1.5688                 1.3957                 1.4100
 Frc consts  --      1.7942                 1.6190                 1.6454
 IR Inten    --      7.2227                 6.4324                 2.1252

                     61                     62                     63
                      A                      A                      A
 Frequencies --   1411.3573              1433.6053              1452.6189
 Red. masses --      1.5929                 1.3263                 1.4877
 Frc consts  --      1.8695                 1.6060                 1.8496
 IR Inten    --     17.9639                14.9033                12.8437

                     64                     65                     66
                      A                      A                      A
 Frequencies --   1484.8202              1505.5290              1513.3627
 Red. masses --      3.0883                 1.0942                 1.1442
 Frc consts  --      4.0115                 1.4613                 1.5439
 IR Inten    --      7.6389                 5.8498                11.7020

                     67                     68                     69
                      A                      A                      A
 Frequencies --   1521.3508              1532.6172              1539.4727
 Red. masses --      1.0544                 1.1058                 1.4860
 Frc consts  --      1.4379                 1.5304                 2.0750
 IR Inten    --      5.2676                36.9339               135.2510

                     70                     71                     72
                      A                      A                      A
 Frequencies --   1550.7373              1565.2726              1590.1379
 Red. masses --      1.4626                 1.1353                 1.5285
 Frc consts  --      2.0723                 1.6388                 2.2771
 IR Inten    --     74.8267                 0.6036               259.6412

                     73                     74                     75
                      A                      A                      A
 Frequencies --   1660.2742              1688.8432              1689.5827
 Red. masses --      4.9468                 4.0099                 1.2310
 Frc consts  --      8.0340                 6.7384                 2.0704
 IR Inten    --      1.0991                34.8017                24.1692

                     76                     77                     78
                      A                      A                      A
 Frequencies --   2953.0489              2957.2225              3026.8106
 Red. masses --      1.0828                 1.0742                 1.0807
 Frc consts  --      5.5635                 5.5346                 5.8335
 IR Inten    --     79.1520                79.6150                24.6679

                     79                     80                     81
                      A                      A                      A
 Frequencies --   3035.6353              3040.1742              3043.5061
 Red. masses --      1.0735                 1.0651                 1.0684
 Frc consts  --      5.8284                 5.8003                 5.8308
 IR Inten    --     72.3157                42.3760                78.2379

                     82                     83                     84
                      A                      A                      A
 Frequencies --   3051.8580              3083.5194              3096.8625
 Red. masses --      1.0392                 1.1003                 1.0951
 Frc consts  --      5.7028                 6.1640                 6.1880
 IR Inten    --     13.6119                37.2679                29.9773

                     85                     86                     87
                      A                      A                      A
 Frequencies --   3114.2125              3129.1191              3137.0979
 Red. masses --      1.0999                 1.0987                 1.1026
 Frc consts  --      6.2848                 6.3385                 6.3933
 IR Inten    --     30.6257                50.1342                25.9257

                     88                     89                     90
                      A                      A                      A
 Frequencies --   3175.9168              3206.5128              3222.2495
 Red. masses --      1.0901                 1.0874                 1.0932
 Frc consts  --      6.4783                 6.5873                 6.6878
 IR Inten    --     16.9221                14.4226                15.0627

                     91                     92                     93
                      A                      A                      A
 Frequencies --   3459.8800              3464.8135              3547.9138
 Red. masses --      1.0655                 1.0619                 1.0929
 Frc consts  --      7.5152                 7.5107                 8.1056
 IR Inten    --    164.2949               135.9103                 0.9092

 - Thermochemistry -
 -------------------
 Temperature   298.150 Kelvin.  Pressure   1.00000 Atm.
 Atom     1 has atomic number  6 and mass  12.00000

 Molecular mass:   206.14191 amu.
 Principal axes and moments of inertia in atomic units:
                           1         2         3
     Eigenvalues --  1200.711027087.269467683.04520
           X            0.99997  -0.00721  -0.00387
           Y            0.00721   0.99997   0.00221
           Z            0.00385  -0.00224   0.99999
 This molecule is an asymmetric top.
 Rotational symmetry number  1.
 Warning -- assumption of classical behavior for rotation
           may cause significant error
 Rotational temperatures (Kelvin)      0.07214     0.01222     0.01127
 Rotational constants (GHZ):           1.50306     0.25465     0.23490
 Zero-point vibrational energy     762451.2 (Joules/Mol)
                                  182.23022 (Kcal/Mol)
 Warning -- explicit consideration of  21 degrees of freedom as
           vibrations may cause significant error
 Vibrational temperatures:     40.83    65.61   117.27   133.63   187.62
          (Kelvin)            257.05   277.16   318.62   340.27   422.83
                              436.93   472.13   501.63   532.69   556.37
                              601.70   617.63   649.58   784.60   838.01
                              873.54   928.44   978.28  1022.74  1033.16
                             1131.85  1160.87  1166.65  1175.56  1237.48
                             1244.53  1266.26  1308.73  1316.18  1367.28
                             1384.06  1395.15  1454.28  1473.77  1479.80
                             1516.93  1566.86  1574.27  1616.66  1684.62
                             1687.95  1702.85  1749.00  1775.76  1806.35
                             1813.26  1821.59  1853.25  1874.49  1906.96
                             1924.17  1991.58  2004.58  2018.83  2024.85
                             2030.63  2062.64  2089.99  2136.33  2166.12
                             2177.39  2188.88  2205.09  2214.96  2231.17
                             2252.08  2287.85  2388.76  2429.87  2430.93
                             4248.78  4254.78  4354.91  4367.60  4374.13
                             4378.93  4390.94  4436.50  4455.69  4480.66
                             4502.10  4513.58  4569.44  4613.46  4636.10
                             4978.00  4985.09  5104.66

 Zero-point correction=                           0.290402 (Hartree/Particle)
 Thermal correction to Energy=                    0.304630
 Thermal correction to Enthalpy=                  0.305574
 Thermal correction to Gibbs Free Energy=         0.248650
 Sum of electronic and zero-point Energies=           -652.600497
 Sum of electronic and thermal Energies=              -652.586269
 Sum of electronic and thermal Enthalpies=            -652.585325
 Sum of electronic and thermal Free Energies=         -652.642250

                     E (Thermal)             CV                S
                      KCal/Mol        Cal/Mol-Kelvin    Cal/Mol-Kelvin
 Total                  191.158             55.704            119.808
 Electronic               0.000              0.000              0.000
 Translational            0.889              2.981             41.874
 Rotational               0.889              2.981             32.547
 Vibrational            189.381             49.743             45.387
 Vibration     1          0.593              1.984              5.940
 Vibration     2          0.595              1.979              5.000
 Vibration     3          0.600              1.962              3.854
 Vibration     4          0.602              1.954              3.598
 Vibration     5          0.612              1.923              2.940
 Vibration     6          0.629              1.869              2.342
 Vibration     7          0.635              1.850              2.202
 Vibration     8          0.648              1.808              1.947
 Vibration     9          0.655              1.785              1.829
 Vibration    10          0.689              1.685              1.451
 Vibration    11          0.695              1.667              1.397
 Vibration    12          0.711              1.619              1.269
 Vibration    13          0.726              1.578              1.172
 Vibration    14          0.742              1.533              1.079
 Vibration    15          0.755              1.499              1.013
 Vibration    16          0.781              1.431              0.898
 Vibration    17          0.791              1.407              0.861
 Vibration    18          0.810              1.358              0.791
 Vibration    19          0.900              1.150              0.554
 Vibration    20          0.939              1.069              0.481
 Vibration    21          0.966              1.017              0.438

 Optimization completed.
    -- Stationary point found.
 Normal termination of Gaussian 16 at Thu Dec 10 17:37:41 2020.

 ----------------------------------------------------------------------
 # B3LYP/6-311++G(d,p) empiricaldispersion=gd3bj scf=xqc pop=npa geom=c
 heck
 ----------------------------------------------------------------------

 ---------------------------------------
 CID_115199071_JID_5886_Energie_neutraal
 ---------------------------------------
 Structure from the checkpoint file:  "JID_5886.chk"
 Charge =  0 Multiplicity = 1

 SCF Done:  E(RB3LYP) =  -653.077319059     A.U. after   15 cycles
 Normal termination of Gaussian 16 at Thu Dec 10 17:43:08 2020.

 ----------------------------------------------------------------------
 # B3LYP/6-311++G(d,p) empiricaldispersion=gd3bj scf=xqc pop=npa geom=c
 heck
 ----------------------------------------------------------------------

 -------------------------------------
 CID_115199071_JID_5886_Energie_kation
 -------------------------------------
 Structure from the checkpoint file:  "JID_5886.chk"
 Charge =  1 Multiplicity = 2

 SCF Done:  E(UB3LYP) =  -652.839145885     A.U. after   20 cycles
 Normal termination of Gaussian 16 at Thu Dec 10 17:53:37 2020.
 Gaussian 16:  ES64L-G16RevA.03 25-Dec-2016

 ----------------------------------------------------------------------
 # B3LYP/6-311++G(d,p) empiricaldispersion=gd3bj scf=xqc pop=npa geom=c
 heck
 ----------------------------------------------------------------------

 ------------------------------------
 CID_115199071_JID_5886_Energie_anion
 ------------------------------------
 Structure from the checkpoint file:  "JID_5886.chk"
 Charge = -1 Multiplicity = 2

                         Standard orientation:
 ---------------------------------------------------------------------
 Center     Atomic      Atomic             Coordinates (Angstroms)
 Number     Number       Type             X           Y           Z
 ---------------------------------------------------------------------
      1          6           0       -3.823055   -0.401595    1.687530
      2          6           0       -4.119178   -0.471054    0.189241
      3          6           0       -3.659618    0.786354   -0.574747
      4          6           0       -2.219156    1.240630   -0.322644
      5          7           0       -1.265748    0.221769   -0.718913
      6          6           0        0.086201    0.365361   -0.411640
      7          6           0        0.927667   -0.768495   -0.485601
      8          6           0        2.277099   -0.640291   -0.209329
      9          6           0        2.815543    0.601946    0.134908
     10          6           0        2.021836    1.733505    0.213810
     11          6           0        0.653486    1.604225   -0.060214
     12          8           0        4.173269    0.560739    0.363508
     13          6           0        4.535206   -0.835839    0.449418
     14          6           0        3.413848   -1.636086   -0.254804
     15          7           0       -3.445582   -1.662346   -0.370066
     16          1           0       -2.744383   -0.400259    1.871894
     17          1           0       -4.253130   -1.265720    2.208260
     18          1           0       -4.254227    0.503055    2.129051
     19          1           0       -5.214830   -0.534851    0.066035
     20          1           0       -3.797305    0.613785   -1.651030
     21          1           0       -4.328273    1.612168   -0.302334
     22          1           0       -2.041857    2.155916   -0.904411
     23          1           0       -2.098728    1.527159    0.737824
     24          1           0       -1.637686   -0.717252   -0.583637
     25          1           0        0.501944   -1.730583   -0.762096
     26          1           0        2.446967    2.693518    0.488026
     27          1           0        0.024764    2.485090    0.004934
     28          1           0        5.520008   -0.952500   -0.008491
     29          1           0        4.601495   -1.109266    1.511094
     30          1           0        3.199248   -2.577725    0.260971
     31          1           0        3.681612   -1.880916   -1.291475
     32          1           0       -3.734273   -2.495171    0.141619
     33          1           0       -3.737470   -1.800280   -1.337011
 ---------------------------------------------------------------------

 SCF Done:  E(UB3LYP) =  -653.066711443     A.U. after   33 cycles
 SCF Done:  E(UB3LYP) =  -653.066711443     a.u. after    1 cycles

 The electronic state is 2-A.
 Alpha  occ. eigenvalues --  -19.05673 -14.20412 -14.19173 -10.14365 -10.12317
 Alpha  occ. eigenvalues --  -10.11068 -10.09833 -10.09728 -10.09683 -10.08581
 Alpha  occ. eigenvalues --  -10.08010 -10.07564 -10.07317 -10.06703 -10.05543
 Alpha  occ. eigenvalues --   -0.97652  -0.82879  -0.78609  -0.75000  -0.70241
 Alpha  occ. eigenvalues --   -0.67377  -0.63909  -0.63652  -0.60481  -0.54627
 Alpha  occ. eigenvalues --   -0.54397  -0.51232  -0.48683  -0.45921  -0.42490
 Alpha  occ. eigenvalues --   -0.41590  -0.41038  -0.39461  -0.38055  -0.37513
 Alpha  occ. eigenvalues --   -0.36986  -0.34798  -0.34002  -0.31706  -0.31462
 Alpha  occ. eigenvalues --   -0.31307  -0.30534  -0.29435  -0.28629  -0.28031
 Alpha  occ. eigenvalues --   -0.27323  -0.26882  -0.25762  -0.24613  -0.24190
 Alpha  occ. eigenvalues --   -0.23686  -0.22527  -0.17250  -0.15529  -0.14669
 Alpha  occ. eigenvalues --   -0.08864   0.04195
 Alpha virt. eigenvalues --    0.05479   0.06976   0.07156   0.07867   0.08125
 Alpha virt. eigenvalues --    0.08287   0.08763   0.09593   0.10193   0.10471
 Alpha virt. eigenvalues --    0.10762   0.11018   0.11205   0.12148   0.12343

  Beta  occ. eigenvalues --  -19.05673 -14.20407 -14.19116 -10.14352 -10.12316
  Beta  occ. eigenvalues --  -10.11067 -10.09817 -10.09720 -10.09658 -10.08580
  Beta  occ. eigenvalues --  -10.08009 -10.07560 -10.07314 -10.06679 -10.05508
  Beta  occ. eigenvalues --   -0.97649  -0.82868  -0.78524  -0.74992  -0.70227
  Beta  occ. eigenvalues --   -0.67327  -0.63895  -0.63610  -0.60435  -0.54602
  Beta  occ. eigenvalues --   -0.54347  -0.51208  -0.48663  -0.45848  -0.42468
  Beta  occ. eigenvalues --   -0.41564  -0.41014  -0.39444  -0.37993  -0.37476
  Beta  occ. eigenvalues --   -0.36912  -0.34775  -0.33981  -0.31687  -0.31438
  Beta  occ. eigenvalues --   -0.31284  -0.30514  -0.29412  -0.28617  -0.27996
  Beta  occ. eigenvalues --   -0.27285  -0.26858  -0.25716  -0.24579  -0.24158
  Beta  occ. eigenvalues --   -0.23663  -0.22493  -0.17243  -0.15520  -0.14605
  Beta  occ. eigenvalues --   -0.08860
  Beta virt. eigenvalues --    0.05828   0.06783   0.07075   0.07620   0.08177
  Beta virt. eigenvalues --    0.08592   0.08778   0.09032   0.10095   0.10440
  Beta virt. eigenvalues --    0.10826   0.11084   0.11364   0.11444   0.12358

 Mulliken charges and spin densities:
               1          2
     1  C    0.955433  -1.655559
     2  C   -0.321760   0.440310
     3  C    1.060201  -1.849208
     4  C   -0.628832   0.566281
     5  N    0.088256  -0.028541
     6  C   -0.256661  -0.357896
     7  C    0.680466  -0.875170
     8  C    0.203761   1.074120
     9  C   -1.192030  -0.062847
    10  C   -0.337908  -0.175515
    11  C   -0.150417   0.809097
    12  O   -0.153208   0.027289
    13  C    0.012572  -0.199298
    14  C    0.350831  -0.777352
    15  N   -0.340365  -0.080988
    16  H    0.012407   0.146593
    17  H   -0.432303   0.584269
    18  H   -0.103284   0.233919
    19  H   -0.734389   0.945987
    20  H   -0.164731   0.331101
    21  H   -0.253020   0.414122
    22  H    0.100887   0.064036
    23  H    0.116764   0.011889
    24  H    1.000931  -0.667573
    25  H   -0.256185   0.393734
    26  H    0.153627   0.016620
    27  H   -0.015930   0.167554
    28  H   -0.050399   0.212031
    29  H    0.032213   0.120984
    30  H   -0.050947   0.212004
    31  H    0.075505   0.076092
    32  H   -0.196454   0.439052
    33  H   -0.205030   0.442861
 Sum of Mulliken charges =  -1.00000   1.00000

 Dipole moment (field-independent basis, Debye):
    X=              9.5402    Y=              3.2249    Z=             -0.0824  Tot=             10.0709
 Quadrupole moment (field-independent basis, Debye-Ang):
   XX=           -207.0382   YY=           -128.6769   ZZ=           -122.9385
   XY=            -14.8605   XZ=              1.0741   YZ=              1.7119

 Summary of Natural Population Analysis:

                                       Natural Population
                Natural  -----------------------------------------------
    Atom  No    Charge         Core      Valence    Rydberg      Total
 -----------------------------------------------------------------------
      C    1   -0.29152      0.99964     2.28463    0.00725     3.29152
      C    2   -0.01415      0.99962     2.00112    0.01341     3.01415
      C    3   -0.19354      0.99961     2.18311    0.01083     3.19354
      C    4   -0.08917      0.99962     2.07747    0.01208     3.08917
      N    5   -0.33195      0.99967     2.82181    0.01047     3.83195
      C    6    0.08464      0.99953     1.90545    0.01038     2.91536
      C    7   -0.09565      0.99949     2.09074    0.00542     3.09565
      C    8   -0.04371      0.99950     2.03395    0.01027     3.04371
      C    9    0.13487      0.99931     1.85277    0.01304     2.86513
      C   10   -0.11968      0.99952     2.11072    0.00943     3.11968
      C   11   -0.12903      0.99955     2.12194    0.00754     3.12903
      O   12   -0.28199      0.99987     3.27427    0.00785     4.28199
      C   13   -0.00745      0.99960     1.99522    0.01263     3.00745
      C   14   -0.20976      0.99962     2.20200    0.00814     3.20976
      N   15   -0.43681      0.99976     2.92480    0.01224     3.93681
      H   16    0.09912      0.00000     0.39943    0.00146     0.40088
      H   17    0.10232      0.00000     0.39638    0.00129     0.39768
      H   18    0.10079      0.00000     0.39805    0.00116     0.39921
      H   19    0.08570      0.00000     0.40849    0.00581     0.41430
      H   20    0.09969      0.00000     0.39889    0.00142     0.40031
      H   21    0.10351      0.00000     0.39531    0.00118     0.39649
      H   22    0.09075      0.00000     0.40779    0.00146     0.40925
      H   23    0.08476      0.00000     0.41365    0.00159     0.41524
      H   24    0.20599      0.00000     0.28971    0.00429     0.29401
      H   25    0.10119      0.00000     0.39739    0.00143     0.39881
      H   26    0.10262      0.00000     0.39639    0.00099     0.39738
      H   27    0.10242      0.00000     0.39659    0.00099     0.39758
      H   28    0.08890      0.00000     0.40986    0.00124     0.41110
      H   29    0.08195      0.00000     0.41673    0.00132     0.41805
      H   30    0.10794      0.00000     0.39078    0.00128     0.39206
      H   31    0.10237      0.00000     0.39652    0.00111     0.39763
      H   32    0.18377      0.00000     0.31184    0.00439     0.31623
      H   33    0.18114      0.00000     0.31538    0.00348     0.31886
 =======================================================================
   * Total *    0.00005     14.99391    40.81917    0.18687    55.99995

 Normal termination of Gaussian 16 at Thu Dec 10 18:08:57 2020.
