 Gaussian 16, Revision A.03,

 -----------------------------------------------------------
 # opt freq B3LYP/6-31G(d) empiricaldispersion=gd3bj scf=xqc
 -----------------------------------------------------------

 ------------------------------
 CID_64897541_JID_5507_neutraal
 ------------------------------
 Symbolic Z-matrix:
 Charge =  0 Multiplicity = 1

 SCF Done:  E(RB3LYP) =  -657.643756198     A.U. after   13 cycles
 SCF Done:  E(RB3LYP) =  -657.650172477     A.U. after   11 cycles
 SCF Done:  E(RB3LYP) =  -657.650957111     A.U. after   10 cycles
 SCF Done:  E(RB3LYP) =  -657.650811662     A.U. after   11 cycles
 SCF Done:  E(RB3LYP) =  -657.651616213     A.U. after   11 cycles
 SCF Done:  E(RB3LYP) =  -657.652406454     A.U. after   11 cycles
 SCF Done:  E(RB3LYP) =  -657.653022600     A.U. after   11 cycles
 SCF Done:  E(RB3LYP) =  -657.652675707     A.U. after   11 cycles
 SCF Done:  E(RB3LYP) =  -657.653550395     A.U. after   11 cycles
 SCF Done:  E(RB3LYP) =  -657.653875145     A.U. after   10 cycles
 SCF Done:  E(RB3LYP) =  -657.654177320     A.U. after    8 cycles
 SCF Done:  E(RB3LYP) =  -657.654178936     A.U. after    7 cycles
 SCF Done:  E(RB3LYP) =  -657.654180310     A.U. after    8 cycles
 SCF Done:  E(RB3LYP) =  -657.654180569     A.U. after    7 cycles
 SCF Done:  E(RB3LYP) =  -657.654180619     A.U. after    6 cycles
 SCF Done:  E(RB3LYP) =  -657.654180692     A.U. after    6 cycles
 Optimization completed.
    -- Stationary point found.
 Normal termination of Gaussian 16 at Thu Dec 10 16:42:09 2020.

 --------------------------------------------------------------------
 #N Geom=AllCheck Guess=TCheck SCRF=Check GenChk RB3LYP/6-31G(d) Freq
 --------------------------------------------------------------------

 Structure from the checkpoint file:  "JID_5507.chk"
 ------------------------------
 CID_64897541_JID_5507_neutraal
 ------------------------------
 Charge =  0 Multiplicity = 1

 SCF Done:  E(RB3LYP) =  -657.654180692     A.U. after    1 cycles

  Exact polarizability: 156.769  -2.515 146.462   2.997   0.552 124.460
 Approx polarizability: 199.948  -1.455 195.835   1.510   0.618 187.750

                      1                      2                      3
                      A                      A                      A
 Frequencies --     29.7671                40.1225                44.4890
 Red. masses --      2.8171                 3.2882                 3.9308
 Frc consts  --      0.0015                 0.0031                 0.0046
 IR Inten    --      0.0075                 0.0119                 0.3871

                      4                      5                      6
                      A                      A                      A
 Frequencies --     74.7705                76.3976                83.4672
 Red. masses --      2.9258                 2.7069                 3.0486
 Frc consts  --      0.0096                 0.0093                 0.0125
 IR Inten    --      0.4279                 0.0745                 0.1236

                      7                      8                      9
                      A                      A                      A
 Frequencies --    128.7331               133.6832               169.8461
 Red. masses --      3.0805                 3.0605                 2.5722
 Frc consts  --      0.0301                 0.0322                 0.0437
 IR Inten    --      0.0917                12.3913                 9.2216

                     10                     11                     12
                      A                      A                      A
 Frequencies --    184.8003               218.0041               230.4734
 Red. masses --      2.6775                 1.8716                 1.3954
 Frc consts  --      0.0539                 0.0524                 0.0437
 IR Inten    --      4.3157                 1.2193                 2.7362

                     13                     14                     15
                      A                      A                      A
 Frequencies --    246.9328               265.3959               274.6337
 Red. masses --      1.5477                 1.9173                 1.7756
 Frc consts  --      0.0556                 0.0796                 0.0789
 IR Inten    --      2.5914                 6.6287                 0.0897

                     16                     17                     18
                      A                      A                      A
 Frequencies --    281.2380               311.1026               319.7725
 Red. masses --      1.4191                 2.5156                 2.3590
 Frc consts  --      0.0661                 0.1434                 0.1421
 IR Inten    --      2.9267                19.0115                 4.0483

                     19                     20                     21
                      A                      A                      A
 Frequencies --    337.7616               363.8264               395.9274
 Red. masses --      1.4169                 2.5399                 2.2289
 Frc consts  --      0.0952                 0.1981                 0.2059
 IR Inten    --     62.4233                 1.9081                 2.4030

                     22                     23                     24
                      A                      A                      A
 Frequencies --    421.7631               433.9464               459.2108
 Red. masses --      2.1347                 1.9376                 2.0477
 Frc consts  --      0.2237                 0.2150                 0.2544
 IR Inten    --      7.2943                 1.2174                 0.7603

                     25                     26                     27
                      A                      A                      A
 Frequencies --    500.1430               526.8920               547.4888
 Red. masses --      2.5759                 2.4091                 3.0541
 Frc consts  --      0.3796                 0.3940                 0.5394
 IR Inten    --      8.2316                 3.0526                 0.1765

                     28                     29                     30
                      A                      A                      A
 Frequencies --    600.8285               699.9500               772.2310
 Red. masses --      2.0383                 1.5927                 1.8890
 Frc consts  --      0.4335                 0.4598                 0.6637
 IR Inten    --     16.8807                92.5805                14.4166

                     31                     32                     33
                      A                      A                      A
 Frequencies --    777.8636               796.2780               811.1739
 Red. masses --      1.3087                 2.5081                 1.3198
 Frc consts  --      0.4666                 0.9370                 0.5117
 IR Inten    --      6.5398                 7.2528                 2.1273

                     34                     35                     36
                      A                      A                      A
 Frequencies --    853.7385               883.8928               904.8627
 Red. masses --      1.9478                 2.4128                 2.6581
 Frc consts  --      0.8365                 1.1106                 1.2823
 IR Inten    --     12.6517                 5.6285                 4.5049

                     37                     38                     39
                      A                      A                      A
 Frequencies --    910.8753               943.4246               944.1982
 Red. masses --      1.7711                 1.1791                 1.8882
 Frc consts  --      0.8658                 0.6183                 0.9918
 IR Inten    --      3.0696                 0.2649                14.6707

                     40                     41                     42
                      A                      A                      A
 Frequencies --    967.5813               971.6383               978.9400
 Red. masses --      1.7968                 1.8917                 1.7675
 Frc consts  --      0.9911                 1.0522                 0.9980
 IR Inten    --      3.2603                 7.7283                 1.0421

                     43                     44                     45
                      A                      A                      A
 Frequencies --   1002.3498              1018.6994              1052.9490
 Red. masses --      1.9225                 2.2994                 1.8347
 Frc consts  --      1.1380                 1.4059                 1.1985
 IR Inten    --      9.0178                12.2504                60.7015

                     46                     47                     48
                      A                      A                      A
 Frequencies --   1061.9197              1067.6880              1084.4873
 Red. masses --      1.9150                 1.8243                 1.3863
 Frc consts  --      1.2724                 1.2253                 0.9606
 IR Inten    --     65.4416                 2.7170                 1.2648

                     49                     50                     51
                      A                      A                      A
 Frequencies --   1108.7291              1114.3971              1131.6629
 Red. masses --      2.5536                 2.3989                 2.3319
 Frc consts  --      1.8495                 1.7553                 1.7595
 IR Inten    --     31.8865                23.6560                 5.0879

                     52                     53                     54
                      A                      A                      A
 Frequencies --   1144.5115              1158.1582              1161.6667
 Red. masses --      1.1100                 1.4175                 2.1880
 Frc consts  --      0.8567                 1.1202                 1.7396
 IR Inten    --      0.0229                 8.7437                32.6740

                     55                     56                     57
                      A                      A                      A
 Frequencies --   1167.9710              1182.3817              1192.7922
 Red. masses --      1.8622                 1.9200                 1.3646
 Frc consts  --      1.4967                 1.5815                 1.1439
 IR Inten    --     42.8566                21.9218                30.9735

                     58                     59                     60
                      A                      A                      A
 Frequencies --   1204.9727              1209.2776              1236.5787
 Red. masses --      1.8390                 1.4077                 2.0338
 Frc consts  --      1.5732                 1.2128                 1.8323
 IR Inten    --      7.4042                 1.6919                15.5941

                     61                     62                     63
                      A                      A                      A
 Frequencies --   1247.8592              1256.2836              1279.8747
 Red. masses --      2.2120                 1.9878                 1.2661
 Frc consts  --      2.0294                 1.8484                 1.2219
 IR Inten    --      9.4372                18.0079                 4.9124

                     64                     65                     66
                      A                      A                      A
 Frequencies --   1305.4937              1343.6707              1359.3543
 Red. masses --      1.2082                 1.2830                 1.4670
 Frc consts  --      1.2132                 1.3648                 1.5971
 IR Inten    --      0.7455                 6.9796                26.9078

                     67                     68                     69
                      A                      A                      A
 Frequencies --   1369.4038              1375.9450              1386.1537
 Red. masses --      1.2468                 1.3713                 1.4478
 Frc consts  --      1.3776                 1.5296                 1.6390
 IR Inten    --     32.4166                22.6986                 8.6141

                     70                     71                     72
                      A                      A                      A
 Frequencies --   1394.6226              1399.5421              1413.0039
 Red. masses --      1.2976                 1.2491                 1.2865
 Frc consts  --      1.4870                 1.4415                 1.5134
 IR Inten    --      9.3581                 7.8877                 6.6049

                     73                     74                     75
                      A                      A                      A
 Frequencies --   1425.2716              1441.1564              1444.7124
 Red. masses --      1.3274                 1.3655                 1.2999
 Frc consts  --      1.5887                 1.6709                 1.5985
 IR Inten    --     11.3654                 5.2525                29.8129

                     76                     77                     78
                      A                      A                      A
 Frequencies --   1445.9811              1453.4824              1480.7214
 Red. masses --      1.2367                 1.4674                 1.1522
 Frc consts  --      1.5235                 1.8265                 1.4884
 IR Inten    --     13.6241                 6.7714                 3.4240

                     79                     80                     81
                      A                      A                      A
 Frequencies --   1493.5145              1494.8739              1507.1939
 Red. masses --      1.1064                 1.0919                 1.2267
 Frc consts  --      1.4541                 1.4376                 1.6419
 IR Inten    --      8.3706                 1.1793                19.7444

                     82                     83                     84
                      A                      A                      A
 Frequencies --   1513.2977              1521.5851              1525.3304
 Red. masses --      1.0674                 1.0724                 1.0652
 Frc consts  --      1.4402                 1.4629                 1.4601
 IR Inten    --      0.2025                 0.9206                 6.5667

                     85                     86                     87
                      A                      A                      A
 Frequencies --   1530.8365              1532.7552              1535.6414
 Red. masses --      1.1087                 1.0607                 1.1879
 Frc consts  --      1.5308                 1.4682                 1.6505
 IR Inten    --      1.7023                 0.8954                 0.7287

                     88                     89                     90
                      A                      A                      A
 Frequencies --   1542.5055              1544.8330              1556.2144
 Red. masses --      1.1632                 1.0829                 1.0546
 Frc consts  --      1.6307                 1.5227                 1.5048
 IR Inten    --      7.6975                 1.0360                15.9126

                     91                     92                     93
                      A                      A                      A
 Frequencies --   1559.6572              2903.9043              2964.6512
 Red. masses --      1.0446                 1.0813                 1.0740
 Frc consts  --      1.4972                 5.3724                 5.5616
 IR Inten    --      7.2069                78.2772                62.9456

                     94                     95                     96
                      A                      A                      A
 Frequencies --   2996.9467              3002.2007              3002.3454
 Red. masses --      1.0522                 1.0702                 1.0674
 Frc consts  --      5.5681                 5.6835                 5.6690
 IR Inten    --     38.5135               103.5743                28.8697

                     97                     98                     99
                      A                      A                      A
 Frequencies --   3040.2673              3053.4846              3058.2741
 Red. masses --      1.0818                 1.0368                 1.0877
 Frc consts  --      5.8912                 5.6956                 5.9942
 IR Inten    --     28.7447                18.2772                24.4658

                    100                    101                    102
                      A                      A                      A
 Frequencies --   3059.2887              3062.9685              3076.1179
 Red. masses --      1.0407                 1.0673                 1.0828
 Frc consts  --      5.7388                 5.8998                 6.0366
 IR Inten    --      9.0342                41.0663                39.1889

                    103                    104                    105
                      A                      A                      A
 Frequencies --   3100.0327              3110.0216              3115.1834
 Red. masses --      1.0941                 1.0974                 1.1031
 Frc consts  --      6.1948                 6.2539                 6.3072
 IR Inten    --     41.1910                22.1619                30.1115

                    106                    107                    108
                      A                      A                      A
 Frequencies --   3118.6953              3122.0065              3127.9330
 Red. masses --      1.1012                 1.0944                 1.1011
 Frc consts  --      6.3107                 6.2850                 6.3476
 IR Inten    --      4.2302                25.0711                63.8397

                    109                    110                    111
                      A                      A                      A
 Frequencies --   3138.6006              3139.7522              3141.0180
 Red. masses --      1.0941                 1.0994                 1.0527
 Frc consts  --      6.3503                 6.3855                 6.1195
 IR Inten    --     52.5285                24.8638                21.8872

                    112                    113                    114
                      A                      A                      A
 Frequencies --   3148.6469              3177.8459              3215.4196
 Red. masses --      1.0567                 1.0896                 1.1187
 Frc consts  --      6.1725                 6.4829                 6.8143
 IR Inten    --     13.6983                 8.6625                 1.0119

                    115                    116                    117
                      A                      A                      A
 Frequencies --   3231.1439              3486.7252              3783.4519
 Red. masses --      1.1152                 1.0739                 1.0653
 Frc consts  --      6.8597                 7.6924                 8.9847
 IR Inten    --     28.4315                 5.4334                10.6960

 - Thermochemistry -
 -------------------
 Temperature   298.150 Kelvin.  Pressure   1.00000 Atm.
 Atom     1 has atomic number  6 and mass  12.00000

 Molecular mass:   214.20451 amu.
 Principal axes and moments of inertia in atomic units:
                           1         2         3
     Eigenvalues --  2743.809844552.405485905.61241
           X            0.99966  -0.02402   0.01012
           Y            0.02401   0.99971   0.00070
           Z           -0.01013  -0.00046   0.99995
 This molecule is an asymmetric top.
 Rotational symmetry number  1.
 Warning -- assumption of classical behavior for rotation
           may cause significant error
 Rotational temperatures (Kelvin)      0.03157     0.01903     0.01467
 Rotational constants (GHZ):           0.65775     0.39644     0.30560
 Zero-point vibrational energy     994557.1 (Joules/Mol)
                                  237.70484 (Kcal/Mol)
 Warning -- explicit consideration of  28 degrees of freedom as
           vibrations may cause significant error
 Vibrational temperatures:     42.83    57.73    64.01   107.58   109.92
          (Kelvin)            120.09   185.22   192.34   244.37   265.89
                              313.66   331.60   355.28   381.85   395.14
                              404.64   447.61   460.08   485.96   523.46
                              569.65   606.82   624.35   660.70   719.59
                              758.08   787.71   864.46  1007.07  1111.07
                             1119.17  1145.67  1167.10  1228.34  1271.72
                             1301.90  1310.55  1357.38  1358.49  1392.13
                             1397.97  1408.48  1442.16  1465.68  1514.96
                             1527.87  1536.16  1560.34  1595.21  1603.37
                             1628.21  1646.70  1666.33  1671.38  1680.45
                             1701.18  1716.16  1733.69  1739.88  1779.16
                             1795.39  1807.51  1841.45  1878.31  1933.24
                             1955.81  1970.27  1979.68  1994.37  2006.55
                             2013.63  2033.00  2050.65  2073.50  2078.62
                             2080.44  2091.24  2130.43  2148.83  2150.79
                             2168.52  2177.30  2189.22  2194.61  2202.53
                             2205.29  2209.45  2219.32  2222.67  2239.05
                             2244.00  4178.07  4265.47  4311.94  4319.50
                             4319.71  4374.27  4393.28  4400.17  4401.63
                             4406.93  4425.85  4460.26  4474.63  4482.05
                             4487.11  4491.87  4500.40  4515.75  4517.40
                             4519.22  4530.20  4572.21  4626.27  4648.90
                             5016.62  5443.54

 Zero-point correction=                           0.378807 (Hartree/Particle)
 Thermal correction to Energy=                    0.396943
 Thermal correction to Enthalpy=                  0.397888
 Thermal correction to Gibbs Free Energy=         0.332279
 Sum of electronic and zero-point Energies=           -657.275374
 Sum of electronic and thermal Energies=              -657.257237
 Sum of electronic and thermal Enthalpies=            -657.256293
 Sum of electronic and thermal Free Energies=         -657.321902

                     E (Thermal)             CV                S
                      KCal/Mol        Cal/Mol-Kelvin    Cal/Mol-Kelvin
 Total                  249.086             67.990            138.085
 Electronic               0.000              0.000              0.000
 Translational            0.889              2.981             41.989
 Rotational               0.889              2.981             32.667
 Vibrational            247.308             62.028             63.429
 Vibration     1          0.594              1.984              5.845
 Vibration     2          0.594              1.981              5.253
 Vibration     3          0.595              1.980              5.048
 Vibration     4          0.599              1.966              4.024
 Vibration     5          0.599              1.965              3.981
 Vibration     6          0.600              1.961              3.808
 Vibration     7          0.611              1.925              2.965
 Vibration     8          0.613              1.920              2.892
 Vibration     9          0.625              1.880              2.437
 Vibration    10          0.631              1.861              2.279
 Vibration    11          0.646              1.814              1.976
 Vibration    12          0.652              1.794              1.875
 Vibration    13          0.661              1.768              1.752
 Vibration    14          0.671              1.736              1.626
 Vibration    15          0.677              1.720              1.567
 Vibration    16          0.681              1.708              1.526
 Vibration    17          0.700              1.653              1.356
 Vibration    18          0.706              1.636              1.311
 Vibration    19          0.718              1.600              1.223
 Vibration    20          0.737              1.547              1.106
 Vibration    21          0.763              1.479              0.978
 Vibration    22          0.784              1.423              0.886
 Vibration    23          0.795              1.396              0.846
 Vibration    24          0.817              1.341              0.768
 Vibration    25          0.856              1.250              0.658
 Vibration    26          0.882              1.190              0.594
 Vibration    27          0.903              1.145              0.549
 Vibration    28          0.959              1.030              0.448

                           ! Non-Optimized Parameters !
 Normal termination of Gaussian 16 at Thu Dec 10 16:57:25 2020.

 ----------------------------------------------------------------------
 # B3LYP/6-311++G(d,p) empiricaldispersion=gd3bj scf=xqc pop=npa geom=c
 heck
 ----------------------------------------------------------------------

 --------------------------------------
 CID_64897541_JID_5507_Energie_neutraal
 --------------------------------------
 Structure from the checkpoint file:  "JID_5507.chk"
 Charge =  0 Multiplicity = 1

 SCF Done:  E(RB3LYP) =  -657.853580848     A.U. after   13 cycles
 Normal termination of Gaussian 16 at Thu Dec 10 17:04:40 2020.

 ----------------------------------------------------------------------
 # B3LYP/6-311++G(d,p) empiricaldispersion=gd3bj scf=xqc pop=npa geom=c
 heck
 ----------------------------------------------------------------------

 ------------------------------------
 CID_64897541_JID_5507_Energie_kation
 ------------------------------------
 Structure from the checkpoint file:  "JID_5507.chk"
 Charge =  1 Multiplicity = 2

 SCF Done:  E(UB3LYP) =  -657.570195746     A.U. after   23 cycles
 Normal termination of Gaussian 16 at Thu Dec 10 17:25:31 2020.
 Gaussian 16:  ES64L-G16RevA.03 25-Dec-2016

 ----------------------------------------------------------------------
 # B3LYP/6-311++G(d,p) empiricaldispersion=gd3bj scf=xqc pop=npa geom=c
 heck
 ----------------------------------------------------------------------

 -----------------------------------
 CID_64897541_JID_5507_Energie_anion
 -----------------------------------
 Structure from the checkpoint file:  "JID_5507.chk"
 Charge = -1 Multiplicity = 2

                         Standard orientation:
 ---------------------------------------------------------------------
 Center     Atomic      Atomic             Coordinates (Angstroms)
 Number     Number       Type             X           Y           Z
 ---------------------------------------------------------------------
      1          6           0       -0.955932    3.086676    0.185445
      2          6           0       -1.802417    1.855342    0.532863
      3          6           0       -3.021857    1.830974   -0.399330
      4          7           0       -1.042405    0.595718    0.409432
      5          6           0       -1.853353   -0.587488    0.752565
      6          6           0       -2.268304   -1.415857   -0.447996
      7          6           0       -1.449224   -2.598957   -0.899168
      8          6           0       -2.789259   -2.815694   -0.237959
      9          6           0        0.251641    0.576474    1.087890
     10          6           0        1.218291   -0.480834    0.522619
     11          6           0        1.406513   -0.346073   -1.005998
     12          6           0        2.149732    0.897895   -1.496864
     13          8           0        3.569892    0.826807   -1.355891
     14          7           0        2.422172   -0.446980    1.358897
     15          6           0        3.431777   -1.457493    1.067531
     16          1           0       -0.200486    3.319063    0.940747
     17          1           0       -1.605436    3.963899    0.101916
     18          1           0       -0.453738    2.941673   -0.778052
     19          1           0       -2.172430    1.977325    1.571557
     20          1           0       -2.693989    1.731806   -1.440464
     21          1           0       -3.707384    1.009160   -0.177740
     22          1           0       -3.586029    2.764301   -0.299827
     23          1           0       -1.288314   -1.229188    1.440370
     24          1           0       -2.748488   -0.278294    1.313879
     25          1           0       -2.741433   -0.843538   -1.241167
     26          1           0       -1.358768   -2.788581   -1.964944
     27          1           0       -0.559721   -2.854023   -0.329598
     28          1           0       -2.792435   -3.206553    0.777071
     29          1           0       -3.621881   -3.158954   -0.845347
     30          1           0        0.726154    1.552112    0.966415
     31          1           0        0.160120    0.404762    2.175326
     32          1           0        0.778333   -1.471882    0.694627
     33          1           0        1.929737   -1.227081   -1.396902
     34          1           0        0.402798   -0.345285   -1.443775
     35          1           0        1.981484    1.019919   -2.571197
     36          1           0        1.756524    1.805308   -1.010821
     37          1           0        3.759276    0.733309   -0.411965
     38          1           0        2.822923    0.488361    1.389703
     39          1           0        3.875009   -1.400529    0.060175
     40          1           0        4.238298   -1.383459    1.804993
     41          1           0        2.976727   -2.449047    1.174244
 ---------------------------------------------------------------------

 SCF Done:  E(UB3LYP) =  -657.838792060     A.U. after   32 cycles

 The electronic state is 2-A.
 Alpha  occ. eigenvalues --  -19.02185 -14.20906 -14.20482 -10.11591 -10.10997
 Alpha  occ. eigenvalues --  -10.10322 -10.10280 -10.09377 -10.09300 -10.08425
 Alpha  occ. eigenvalues --  -10.08056 -10.08026 -10.06580 -10.06532 -10.06271
 Alpha  occ. eigenvalues --   -0.92265  -0.83459  -0.80957  -0.76730  -0.69157
 Alpha  occ. eigenvalues --   -0.67053  -0.63034  -0.60125  -0.58497  -0.55724
 Alpha  occ. eigenvalues --   -0.54110  -0.51215  -0.48773  -0.48405  -0.46424
 Alpha  occ. eigenvalues --   -0.41578  -0.40926  -0.39979  -0.38868  -0.37592
 Alpha  occ. eigenvalues --   -0.36750  -0.36183  -0.36102  -0.33796  -0.33520
 Alpha  occ. eigenvalues --   -0.32107  -0.31318  -0.30822  -0.29818  -0.29437
 Alpha  occ. eigenvalues --   -0.28302  -0.27784  -0.27672  -0.27200  -0.26410
 Alpha  occ. eigenvalues --   -0.25642  -0.24942  -0.24239  -0.23277  -0.23019
 Alpha  occ. eigenvalues --   -0.20468  -0.19544  -0.17686  -0.13086  -0.12347
 Alpha  occ. eigenvalues --    0.04309
 Alpha virt. eigenvalues --    0.05866   0.06306   0.07284   0.07532   0.07979
 Alpha virt. eigenvalues --    0.08856   0.08986   0.09727   0.09864   0.10290
 Alpha virt. eigenvalues --    0.11181   0.11483   0.11728   0.11940   0.12397

  Beta  occ. eigenvalues --  -19.02159 -14.20892 -14.20450 -10.11576 -10.10988
  Beta  occ. eigenvalues --  -10.10320 -10.10275 -10.09353 -10.09289 -10.08418
  Beta  occ. eigenvalues --  -10.08040 -10.08014 -10.06555 -10.06510 -10.06269
  Beta  occ. eigenvalues --   -0.92212  -0.83432  -0.80912  -0.76708  -0.69130
  Beta  occ. eigenvalues --   -0.67025  -0.63006  -0.60085  -0.58454  -0.55656
  Beta  occ. eigenvalues --   -0.54068  -0.51170  -0.48738  -0.48360  -0.46383
  Beta  occ. eigenvalues --   -0.41537  -0.40888  -0.39948  -0.38816  -0.37547
  Beta  occ. eigenvalues --   -0.36721  -0.36158  -0.36063  -0.33760  -0.33497
  Beta  occ. eigenvalues --   -0.32075  -0.31294  -0.30789  -0.29791  -0.29409
  Beta  occ. eigenvalues --   -0.28272  -0.27759  -0.27649  -0.27173  -0.26381
  Beta  occ. eigenvalues --   -0.25618  -0.24905  -0.24212  -0.23253  -0.22997
  Beta  occ. eigenvalues --   -0.20446  -0.19527  -0.17659  -0.13056  -0.12276
  Beta virt. eigenvalues --    0.06289   0.06820   0.07022   0.07474   0.08151
  Beta virt. eigenvalues --    0.08421   0.09074   0.09192   0.09881   0.10232
  Beta virt. eigenvalues --    0.10812   0.11463   0.11653   0.11852   0.12076

 Mulliken charges and spin densities:
               1          2
     1  C    0.733357  -1.317329
     2  C   -0.799667   0.759405
     3  C    0.296707  -0.763545
     4  N    0.548298   0.039353
     5  C   -0.132476  -0.910682
     6  C   -0.996498   1.542762
     7  C    0.417986  -0.789031
     8  C    0.323174  -0.878643
     9  C   -1.059271   0.223978
    10  C    0.115020  -0.212332
    11  C   -0.279128   0.100670
    12  C    0.019305  -0.609888
    13  O   -0.185572  -0.008252
    14  N   -0.087327   0.049528
    15  C    0.416343  -0.749479
    16  H   -0.613928   0.780253
    17  H   -0.093369   0.244017
    18  H    0.210104  -0.065758
    19  H    0.074760   0.040321
    20  H   -0.053215   0.194289
    21  H   -0.120780   0.265893
    22  H   -0.223013   0.355997
    23  H    0.029580   0.135861
    24  H    0.126508   0.039686
    25  H    0.049146   0.185768
    26  H   -0.087085   0.248412
    27  H    0.158700  -0.032593
    28  H    0.032513   0.088785
    29  H   -0.364894   0.527183
    30  H    0.619496  -0.506183
    31  H    0.013188   0.169022
    32  H    0.122778   0.016469
    33  H    0.193806   0.019761
    34  H    0.243980  -0.095557
    35  H   -0.024119   0.207769
    36  H    0.014721   0.182226
    37  H    0.018897   0.220181
    38  H   -0.329338   0.574488
    39  H    0.041428   0.081620
    40  H   -0.337928   0.491413
    41  H   -0.032185   0.154162
 Sum of Mulliken charges =  -1.00000   1.00000

 Dipole moment (field-independent basis, Debye):
    X=             -1.2913    Y=             -2.1475    Z=             -0.2646  Tot=              2.5198
 Quadrupole moment (field-independent basis, Debye-Ang):
   XX=           -182.0428   YY=           -153.6920   ZZ=           -136.0653
   XY=             -8.3712   XZ=             -8.6745   YZ=             -5.4929

 Summary of Natural Population Analysis:

                                       Natural Population
                Natural  -----------------------------------------------
    Atom  No    Charge         Core      Valence    Rydberg      Total
 -----------------------------------------------------------------------
      C    1   -0.29126      0.99964     2.28524    0.00638     3.29126
      C    2    0.00019      0.99960     1.98905    0.01115     2.99981
      C    3   -0.28886      0.99964     2.28291    0.00630     3.28886
      N    4   -0.29076      0.99969     2.77842    0.01266     3.79076
      C    5   -0.08489      0.99958     2.07439    0.01092     3.08489
      C    6   -0.12035      0.99957     2.10888    0.01190     3.12035
      C    7   -0.19685      0.99962     2.18933    0.00791     3.19685
      C    8   -0.19945      0.99962     2.19224    0.00758     3.19945
      C    9   -0.08516      0.99958     2.07359    0.01200     3.08516
      C   10   -0.01291      0.99958     2.00033    0.01300     3.01291
      C   11   -0.21750      0.99959     2.21071    0.00719     3.21750
      C   12   -0.01436      0.99959     2.00159    0.01317     3.01436
      O   13   -0.37089      0.99990     3.36447    0.00652     4.37089
      N   14   -0.34308      0.99974     2.83009    0.01325     3.84308
      C   15   -0.18372      0.99965     2.17521    0.00886     3.18372
      H   16    0.10205      0.00000     0.39671    0.00123     0.39795
      H   17    0.10182      0.00000     0.39726    0.00091     0.39818
      H   18    0.10058      0.00000     0.39815    0.00127     0.39942
      H   19    0.07591      0.00000     0.42232    0.00177     0.42409
      H   20    0.09946      0.00000     0.39914    0.00140     0.40054
      H   21    0.10042      0.00000     0.39833    0.00125     0.39958
      H   22    0.09965      0.00000     0.39947    0.00088     0.40035
      H   23    0.09430      0.00000     0.40413    0.00157     0.40570
      H   24    0.09252      0.00000     0.40614    0.00134     0.40748
      H   25    0.10581      0.00000     0.39252    0.00168     0.39419
      H   26    0.10271      0.00000     0.39636    0.00094     0.39729
      H   27    0.09895      0.00000     0.39985    0.00120     0.40105
      H   28    0.09882      0.00000     0.40032    0.00087     0.40118
      H   29    0.10395      0.00000     0.39477    0.00128     0.39605
      H   30    0.09933      0.00000     0.39861    0.00206     0.40067
      H   31    0.08882      0.00000     0.40967    0.00152     0.41118
      H   32    0.08976      0.00000     0.40774    0.00250     0.41024
      H   33    0.09843      0.00000     0.40034    0.00123     0.40157
      H   34    0.11415      0.00000     0.38412    0.00173     0.38585
      H   35    0.08546      0.00000     0.41351    0.00102     0.41454
      H   36    0.07784      0.00000     0.42061    0.00155     0.42216
      H   37    0.22700      0.00000     0.26909    0.00392     0.27300
      H   38    0.17132      0.00000     0.32403    0.00465     0.32868
      H   39    0.08329      0.00000     0.41511    0.00160     0.41671
      H   40    0.09653      0.00000     0.40245    0.00102     0.40347
      H   41    0.09097      0.00000     0.40801    0.00102     0.40903
 =======================================================================
   * Total *   -0.00000     14.99460    44.81521    0.19019    60.00000

 Normal termination of Gaussian 16 at Thu Dec 10 17:52:28 2020.
