 Gaussian 16, Revision A.03,

 -----------------------------------------------------------
 # opt freq B3LYP/6-31G(d) empiricaldispersion=gd3bj scf=xqc
 -----------------------------------------------------------

 -------------------------------
 CID_108080966_JID_9313_neutraal
 -------------------------------
 Symbolic Z-matrix:
 Charge =  0 Multiplicity = 1

 SCF Done:  E(RB3LYP) =  -1199.92020120     A.U. after   16 cycles
 SCF Done:  E(RB3LYP) =  -1199.92776107     A.U. after   13 cycles
 SCF Done:  E(RB3LYP) =  -1199.92823598     A.U. after   12 cycles
 SCF Done:  E(RB3LYP) =  -1199.93061831     A.U. after   13 cycles
 SCF Done:  E(RB3LYP) =  -1199.93159435     A.U. after   13 cycles
 SCF Done:  E(RB3LYP) =  -1199.93248493     A.U. after   13 cycles
 SCF Done:  E(RB3LYP) =  -1199.93345483     A.U. after   13 cycles
 SCF Done:  E(RB3LYP) =  -1199.93443255     A.U. after   12 cycles
 SCF Done:  E(RB3LYP) =  -1199.93521922     A.U. after   12 cycles
 SCF Done:  E(RB3LYP) =  -1199.93600553     A.U. after   13 cycles
 SCF Done:  E(RB3LYP) =  -1199.93771926     A.U. after    8 cycles
 SCF Done:  E(RB3LYP) =  -1199.93771942     A.U. after    8 cycles
 SCF Done:  E(RB3LYP) =  -1199.93771946     A.U. after    8 cycles
 SCF Done:  E(RB3LYP) =  -1199.93771948     A.U. after    8 cycles
 SCF Done:  E(RB3LYP) =  -1199.93771948     A.U. after    6 cycles
 Optimization completed.
    -- Stationary point found.
 Normal termination of Gaussian 16 at Mon Dec 14 13:46:49 2020.

 --------------------------------------------------------------------
 #N Geom=AllCheck Guess=TCheck SCRF=Check GenChk RB3LYP/6-31G(d) Freq
 --------------------------------------------------------------------

 Structure from the checkpoint file:  "JID_9313.chk"
 -------------------------------
 CID_108080966_JID_9313_neutraal
 -------------------------------
 Charge =  0 Multiplicity = 1

 SCF Done:  E(RB3LYP) =  -1199.93771948     A.U. after    2 cycles

  Exact polarizability: 225.953 -15.602 186.548  -1.483  -6.179 132.580
 Approx polarizability: 306.452 -26.099 308.529  -5.938 -23.316 212.616

                      1                      2                      3
                      A                      A                      A
 Frequencies --     15.0200                25.8020                41.9084
 Red. masses --      5.3199                 4.7075                 4.1915
 Frc consts  --      0.0007                 0.0018                 0.0043
 IR Inten    --      0.4723                 1.1396                 0.5278

                      4                      5                      6
                      A                      A                      A
 Frequencies --     76.3488                83.6618               122.4560
 Red. masses --      5.9358                 3.3317                 3.7138
 Frc consts  --      0.0204                 0.0137                 0.0328
 IR Inten    --      1.2325                 4.4967                 1.2219

                      7                      8                      9
                      A                      A                      A
 Frequencies --    149.3392               156.5011               179.9086
 Red. masses --      2.0040                 3.3292                 2.1818
 Frc consts  --      0.0263                 0.0480                 0.0416
 IR Inten    --      1.7854                 1.5900                 1.4111

                     10                     11                     12
                      A                      A                      A
 Frequencies --    208.7825               228.4115               241.1187
 Red. masses --      1.8993                 2.3863                 3.0036
 Frc consts  --      0.0488                 0.0734                 0.1029
 IR Inten    --      0.9530                 0.8925                 0.6734

                     13                     14                     15
                      A                      A                      A
 Frequencies --    245.5997               256.7155               268.8318
 Red. masses --      1.4099                 3.1966                 1.6594
 Frc consts  --      0.0501                 0.1241                 0.0707
 IR Inten    --      0.3461                 1.1985                 0.5481

                     16                     17                     18
                      A                      A                      A
 Frequencies --    287.2293               308.5021               320.2763
 Red. masses --      1.8736                 2.6215                 3.6145
 Frc consts  --      0.0911                 0.1470                 0.2184
 IR Inten    --      0.1602                 0.8460                 1.0663

                     19                     20                     21
                      A                      A                      A
 Frequencies --    343.4831               360.7111               390.3059
 Red. masses --      4.0015                 3.0061                 2.6696
 Frc consts  --      0.2782                 0.2304                 0.2396
 IR Inten    --      4.5529                 0.6970                 4.7239

                     22                     23                     24
                      A                      A                      A
 Frequencies --    400.8144               405.2789               434.7620
 Red. masses --      2.6373                 3.1997                 2.2304
 Frc consts  --      0.2496                 0.3097                 0.2484
 IR Inten    --      7.4084                23.1557                 9.4841

                     25                     26                     27
                      A                      A                      A
 Frequencies --    454.6007               475.6333               506.3722
 Red. masses --      1.8335                 7.3185                 3.6178
 Frc consts  --      0.2233                 0.9755                 0.5466
 IR Inten    --     55.6638                14.7259                 7.9193

                     28                     29                     30
                      A                      A                      A
 Frequencies --    535.7119               566.1755               568.4079
 Red. masses --      4.1368                 3.2591                 3.2200
 Frc consts  --      0.6995                 0.6155                 0.6130
 IR Inten    --     24.2107                 2.9323                 8.6729

                     31                     32                     33
                      A                      A                      A
 Frequencies --    617.3083               635.7798               654.4503
 Red. masses --      3.0308                 4.5808                 6.3126
 Frc consts  --      0.6805                 1.0909                 1.5930
 IR Inten    --     21.2335                 0.2576                13.3283

                     34                     35                     36
                      A                      A                      A
 Frequencies --    695.4202               718.8903               755.8117
 Red. masses --      5.2205                 2.6208                 5.0102
 Frc consts  --      1.4875                 0.7980                 1.6863
 IR Inten    --      4.3788                10.2750                 4.7085

                     37                     38                     39
                      A                      A                      A
 Frequencies --    785.9024               792.4044               830.7759
 Red. masses --      2.7158                 2.6771                 2.6524
 Frc consts  --      0.9883                 0.9904                 1.0786
 IR Inten    --      4.6481                 3.9823                 7.7017

                     40                     41                     42
                      A                      A                      A
 Frequencies --    854.0552               877.8336               913.9926
 Red. masses --      2.2138                 1.7429                 2.9138
 Frc consts  --      0.9514                 0.7913                 1.4342
 IR Inten    --      8.2625                14.8919                 1.7166

                     43                     44                     45
                      A                      A                      A
 Frequencies --    929.0547               957.3630               962.9157
 Red. masses --      1.5122                 1.8095                 1.7561
 Frc consts  --      0.7690                 0.9771                 0.9593
 IR Inten    --      0.8384                 1.5235                 4.2910

                     46                     47                     48
                      A                      A                      A
 Frequencies --    967.6887               999.5701              1011.2253
 Red. masses --      2.6976                 2.2316                 1.7805
 Frc consts  --      1.4883                 1.3137                 1.0727
 IR Inten    --      7.3406                 5.5721                 2.1247

                     49                     50                     51
                      A                      A                      A
 Frequencies --   1023.8566              1027.7151              1053.1888
 Red. masses --      1.8299                 3.0874                 2.7110
 Frc consts  --      1.1302                 1.9213                 1.7717
 IR Inten    --     42.8641                16.2276                12.9630

                     52                     53                     54
                      A                      A                      A
 Frequencies --   1072.8638              1109.7111              1164.5926
 Red. masses --      1.8442                 1.8022                 1.3387
 Frc consts  --      1.2507                 1.3076                 1.0698
 IR Inten    --     16.2413                 4.9270                 8.6565

                     55                     56                     57
                      A                      A                      A
 Frequencies --   1168.3234              1172.3514              1183.1805
 Red. masses --      1.8835                 1.9828                 2.0617
 Frc consts  --      1.5148                 1.6056                 1.7005
 IR Inten    --      6.3011                10.2689               171.3740

                     58                     59                     60
                      A                      A                      A
 Frequencies --   1200.5030              1226.8067              1234.2318
 Red. masses --      2.3564                 1.7090                 2.4283
 Frc consts  --      2.0009                 1.5155                 2.1794
 IR Inten    --     23.8283                 4.8946                 2.6022

                     61                     62                     63
                      A                      A                      A
 Frequencies --   1250.0246              1262.1555              1279.8326
 Red. masses --      1.8145                 1.7023                 3.6634
 Frc consts  --      1.6705                 1.5978                 3.5355
 IR Inten    --     14.3441                 5.2069                41.1622

                     64                     65                     66
                      A                      A                      A
 Frequencies --   1283.6785              1306.0130              1337.2411
 Red. masses --      1.8052                 1.4236                 1.4080
 Frc consts  --      1.7526                 1.4307                 1.4835
 IR Inten    --     21.5919                22.1318                53.7124

                     67                     68                     69
                      A                      A                      A
 Frequencies --   1353.1549              1370.2987              1401.9723
 Red. masses --      1.5537                 1.8217                 1.2751
 Frc consts  --      1.6761                 2.0154                 1.4767
 IR Inten    --      1.5788                60.9978                13.0871

                     70                     71                     72
                      A                      A                      A
 Frequencies --   1405.4147              1425.7482              1428.1033
 Red. masses --      1.4971                 1.4021                 1.2334
 Frc consts  --      1.7422                 1.6793                 1.4821
 IR Inten    --     59.0270                 1.8970                13.2327

                     73                     74                     75
                      A                      A                      A
 Frequencies --   1434.7141              1448.6968              1464.2607
 Red. masses --      1.8597                 1.2192                 1.8397
 Frc consts  --      2.2554                 1.5076                 2.3240
 IR Inten    --     21.2479                 9.5671               127.0707

                     76                     77                     78
                      A                      A                      A
 Frequencies --   1487.6413              1493.0133              1503.3866
 Red. masses --      1.5373                 1.1579                 1.1868
 Frc consts  --      2.0045                 1.5207                 1.5804
 IR Inten    --     87.8024                 7.7259                 6.8388

                     79                     80                     81
                      A                      A                      A
 Frequencies --   1507.4133              1512.3939              1516.3071
 Red. masses --      1.3420                 1.1612                 1.0737
 Frc consts  --      1.7966                 1.5650                 1.4545
 IR Inten    --     18.1224                 5.4626                 7.5375

                     82                     83                     84
                      A                      A                      A
 Frequencies --   1518.4221              1519.1746              1522.4820
 Red. masses --      1.2480                 1.0696                 1.1138
 Frc consts  --      1.6953                 1.4544                 1.5211
 IR Inten    --     24.0649                 6.0991                34.7242

                     85                     86                     87
                      A                      A                      A
 Frequencies --   1533.0158              1542.3626              1544.4287
 Red. masses --      1.0630                 1.0504                 1.2450
 Frc consts  --      1.4718                 1.4723                 1.7497
 IR Inten    --      6.1797                 5.6579                 5.3827

                     88                     89                     90
                      A                      A                      A
 Frequencies --   1564.9583              1605.9701              1632.5632
 Red. masses --      2.1452                 4.8855                 5.4413
 Frc consts  --      3.0954                 7.4239                 8.5447
 IR Inten    --     75.5680                87.1517               233.4139

                     91                     92                     93
                      A                      A                      A
 Frequencies --   1720.6774              3012.1728              3015.7864
 Red. masses --     10.1722                 1.0751                 1.0489
 Frc consts  --     17.7445                 5.7471                 5.6208
 IR Inten    --    221.0423                57.7828                69.6352

                     94                     95                     96
                      A                      A                      A
 Frequencies --   3028.4541              3046.6986              3052.1363
 Red. masses --      1.0694                 1.0382                 1.0378
 Frc consts  --      5.7789                 5.6782                 5.6961
 IR Inten    --     27.3581                15.9000                39.2058

                     97                     98                     99
                      A                      A                      A
 Frequencies --   3079.7538              3083.9980              3084.6766
 Red. masses --      1.0623                 1.0619                 1.0919
 Frc consts  --      5.9365                 5.9504                 6.1217
 IR Inten    --     20.5985                33.5682                36.2323

                    100                    101                    102
                      A                      A                      A
 Frequencies --   3110.5000              3116.7038              3119.4518
 Red. masses --      1.0962                 1.0980                 1.0949
 Frc consts  --      6.2491                 6.2844                 6.2774
 IR Inten    --     25.8265                 9.2912                25.6600

                    103                    104                    105
                      A                      A                      A
 Frequencies --   3125.9813              3131.0047              3135.2265
 Red. masses --      1.1033                 1.1032                 1.1026
 Frc consts  --      6.3521                 6.3718                 6.3858
 IR Inten    --      5.8889                13.8066                28.2854

                    106                    107                    108
                      A                      A                      A
 Frequencies --   3139.0547              3150.9778              3193.3314
 Red. masses --      1.1026                 1.0987                 1.0901
 Frc consts  --      6.4015                 6.4274                 6.5492
 IR Inten    --     20.6125                17.3619                26.4932

                    109                    110                    111
                      A                      A                      A
 Frequencies --   3216.9517              3232.8805              3604.2016
 Red. masses --      1.0886                 1.0923                 1.0763
 Frc consts  --      6.6376                 6.7259                 8.2375
 IR Inten    --      2.6970                 1.5496                27.2165

 - Thermochemistry -
 -------------------
 Temperature   298.150 Kelvin.  Pressure   1.00000 Atm.
 Atom     1 has atomic number  6 and mass  12.00000

 Molecular mass:   280.13578 amu.
 Principal axes and moments of inertia in atomic units:
                           1         2         3
     Eigenvalues --  2971.940138420.460829929.63857
           X            0.99982  -0.01883   0.00048
           Y            0.01882   0.99979   0.00848
           Z           -0.00064  -0.00847   0.99996
 This molecule is an asymmetric top.
 Rotational symmetry number  1.
 Warning -- assumption of classical behavior for rotation
           may cause significant error
 Rotational temperatures (Kelvin)      0.02914     0.01029     0.00872
 Rotational constants (GHZ):           0.60726     0.21433     0.18175
 Zero-point vibrational energy     867961.9 (Joules/Mol)
                                  207.44787 (Kcal/Mol)
 Warning -- explicit consideration of  31 degrees of freedom as
           vibrations may cause significant error
 Vibrational temperatures:     21.61    37.12    60.30   109.85   120.37
          (Kelvin)            176.19   214.87   225.17   258.85   300.39
                              328.63   346.92   353.36   369.36   386.79
                              413.26   443.87   460.81   494.20   518.98
                              561.56   576.68   583.11   625.53   654.07
                              684.33   728.56   770.77   814.60   817.81
                              888.17   914.75   941.61  1000.55  1034.32
                             1087.44  1130.74  1140.09  1195.30  1228.79
                             1263.01  1315.03  1336.70  1377.43  1385.42
                             1392.29  1438.16  1454.93  1473.10  1478.65
                             1515.30  1543.61  1596.63  1675.59  1680.96
                             1686.75  1702.33  1727.26  1765.10  1775.78
                             1798.51  1815.96  1841.39  1846.93  1879.06
                             1923.99  1946.89  1971.55  2017.13  2022.08
                             2051.33  2054.72  2064.23  2084.35  2106.74
                             2140.38  2148.11  2163.04  2168.83  2176.00
                             2181.63  2184.67  2185.75  2190.51  2205.67
                             2219.12  2222.09  2251.63  2310.63  2348.89
                             2475.67  4333.84  4339.04  4357.27  4383.52
                             4391.34  4431.08  4437.19  4438.16  4475.32
                             4484.24  4488.20  4497.59  4504.82  4510.89
                             4516.40  4533.55  4594.49  4628.48  4651.39
                             5185.64

 Zero-point correction=                           0.330589 (Hartree/Particle)
 Thermal correction to Energy=                    0.349485
 Thermal correction to Enthalpy=                  0.350429
 Thermal correction to Gibbs Free Energy=         0.282365
 Sum of electronic and zero-point Energies=          -1199.607130
 Sum of electronic and thermal Energies=             -1199.588235
 Sum of electronic and thermal Enthalpies=           -1199.587291
 Sum of electronic and thermal Free Energies=        -1199.655354

                     E (Thermal)             CV                S
                      KCal/Mol        Cal/Mol-Kelvin    Cal/Mol-Kelvin
 Total                  219.305             72.465            143.252
 Electronic               0.000              0.000              0.000
 Translational            0.889              2.981             42.789
 Rotational               0.889              2.981             33.874
 Vibrational            217.527             66.504             66.590
 Vibration     1          0.593              1.986              7.203
 Vibration     2          0.593              1.985              6.129
 Vibration     3          0.595              1.980              5.167
 Vibration     4          0.599              1.965              3.983
 Vibration     5          0.601              1.960              3.803
 Vibration     6          0.610              1.930              3.061
 Vibration     7          0.618              1.903              2.681
 Vibration     8          0.620              1.895              2.592
 Vibration     9          0.629              1.867              2.329
 Vibration    10          0.642              1.827              2.054
 Vibration    11          0.651              1.798              1.891
 Vibration    12          0.658              1.777              1.795
 Vibration    13          0.660              1.770              1.762
 Vibration    14          0.666              1.751              1.684
 Vibration    15          0.673              1.730              1.604
 Vibration    16          0.684              1.697              1.490
 Vibration    17          0.698              1.658              1.370
 Vibration    18          0.706              1.635              1.309
 Vibration    19          0.722              1.589              1.196
 Vibration    20          0.735              1.553              1.119
 Vibration    21          0.758              1.491              0.999
 Vibration    22          0.767              1.468              0.960
 Vibration    23          0.770              1.459              0.943
 Vibration    24          0.795              1.394              0.843
 Vibration    25          0.813              1.351              0.782
 Vibration    26          0.832              1.304              0.722
 Vibration    27          0.862              1.236              0.642
 Vibration    28          0.891              1.171              0.575
 Vibration    29          0.922              1.104              0.512
 Vibration    30          0.924              1.100              0.507
 Vibration    31          0.977              0.995              0.421

 Optimization completed.
    -- Stationary point found.
 Normal termination of Gaussian 16 at Mon Dec 14 14:08:45 2020.

 ----------------------------------------------------------------------
 # B3LYP/6-311++G(d,p) empiricaldispersion=gd3bj scf=xqc pop=npa geom=c
 heck
 ----------------------------------------------------------------------

 ---------------------------------------
 CID_108080966_JID_9313_Energie_neutraal
 ---------------------------------------
 Structure from the checkpoint file:  "JID_9313.chk"
 Charge =  0 Multiplicity = 1

 SCF Done:  E(RB3LYP) =  -1200.18327848     A.U. after   17 cycles
 Normal termination of Gaussian 16 at Mon Dec 14 14:20:17 2020.

 ----------------------------------------------------------------------
 # B3LYP/6-311++G(d,p) empiricaldispersion=gd3bj scf=xqc pop=npa geom=c
 heck
 ----------------------------------------------------------------------

 -------------------------------------
 CID_108080966_JID_9313_Energie_kation
 -------------------------------------
 Structure from the checkpoint file:  "JID_9313.chk"
 Charge =  1 Multiplicity = 2

 SCF Done:  E(UB3LYP) =  -1199.90352648     A.U. after   27 cycles
 Normal termination of Gaussian 16 at Mon Dec 14 14:46:21 2020.
 Gaussian 16:  ES64L-G16RevA.03 25-Dec-2016

 ----------------------------------------------------------------------
 # B3LYP/6-311++G(d,p) empiricaldispersion=gd3bj scf=xqc pop=npa geom=c
 heck
 ----------------------------------------------------------------------

 ------------------------------------
 CID_108080966_JID_9313_Energie_anion
 ------------------------------------
 Structure from the checkpoint file:  "JID_9313.chk"
 Charge = -1 Multiplicity = 2

                         Standard orientation:
 ---------------------------------------------------------------------
 Center     Atomic      Atomic             Coordinates (Angstroms)
 Number     Number       Type             X           Y           Z
 ---------------------------------------------------------------------
      1          6           0        3.588210    0.928954    2.000641
      2          6           0        3.220004    0.481251    0.577697
      3          6           0        2.817834   -1.005684    0.615085
      4          6           0        2.158996   -1.596262   -0.639511
      5          7           0        0.788735   -1.113814   -0.828375
      6          6           0        0.571228   -0.079024   -1.825916
      7          6           0        1.467488    1.159169   -1.619862
      8         16           0        1.793080    1.600804    0.122242
      9          6           0       -0.160080   -1.666384   -0.016309
     10          8           0        0.105385   -2.609666    0.732607
     11          6           0       -1.576406   -1.140692   -0.000816
     12          6           0       -2.607898   -2.061320    0.213059
     13          7           0       -3.881630   -1.663384    0.317028
     14          6           0       -4.126318   -0.358271    0.243381
     15          6           0       -3.086612    0.581030    0.050078
     16          7           0       -1.814303    0.172417   -0.081669
     17          7           0       -3.301240    1.932132   -0.038305
     18          6           0       -4.540794    2.556111    0.379819
     19          6           0        4.418128    0.712895   -0.350993
     20          1           0        4.404758    0.305698    2.384087
     21          1           0        2.735483    0.825654    2.679612
     22          1           0        3.918998    1.972479    2.014296
     23          1           0        3.728355   -1.586101    0.824356
     24          1           0        2.136070   -1.181343    1.451759
     25          1           0        2.123093   -2.682761   -0.535144
     26          1           0        2.724853   -1.361972   -1.546495
     27          1           0       -0.471069    0.217963   -1.787524
     28          1           0        0.776145   -0.493434   -2.824544
     29          1           0        0.981729    2.032753   -2.065932
     30          1           0        2.424288    1.043613   -2.134886
     31          1           0       -2.393850   -3.119798    0.307799
     32          1           0       -5.161973   -0.043704    0.338067
     33          1           0       -2.450423    2.473573    0.041235
     34          1           0       -4.808545    2.320549    1.420930
     35          1           0       -4.435450    3.638649    0.283731
     36          1           0       -5.369259    2.243429   -0.266035
     37          1           0        4.686883    1.772586   -0.384705
     38          1           0        5.282560    0.147365    0.019431
     39          1           0        4.231384    0.377173   -1.375636
 ---------------------------------------------------------------------

 SCF Done:  E(UB3LYP) =  -1200.18890520     A.U. after   33 cycles
 SCF Done:  E(UB3LYP) =  -1200.18890520     a.u. after    1 cycles

 The electronic state is 2-A.
 Alpha  occ. eigenvalues --  -88.73030 -18.94477 -14.21560 -14.21087 -14.15715
 Alpha  occ. eigenvalues --  -14.15244 -10.12780 -10.11785 -10.10614 -10.10507
 Alpha  occ. eigenvalues --  -10.09715 -10.09461 -10.09336 -10.07574 -10.07385
 Alpha  occ. eigenvalues --  -10.06795 -10.05638 -10.05189 -10.04748  -7.81657
 Alpha  occ. eigenvalues --   -5.78061  -5.77691  -5.77000  -0.90364  -0.84830
 Alpha  occ. eigenvalues --   -0.81570  -0.79915  -0.74772  -0.73822  -0.68298
 Alpha  occ. eigenvalues --   -0.64251  -0.62672  -0.60405  -0.58841  -0.58409
 Alpha  occ. eigenvalues --   -0.55118  -0.52616  -0.51253  -0.49055  -0.44058
 Alpha  occ. eigenvalues --   -0.42523  -0.40877  -0.40453  -0.37998  -0.37262
 Alpha  occ. eigenvalues --   -0.36012  -0.35617  -0.35409  -0.34729  -0.33862
 Alpha  occ. eigenvalues --   -0.33593  -0.33159  -0.31564  -0.31025  -0.30071
 Alpha  occ. eigenvalues --   -0.29446  -0.28986  -0.28395  -0.27377  -0.27122
 Alpha  occ. eigenvalues --   -0.26445  -0.25579  -0.24826  -0.24471  -0.23155
 Alpha  occ. eigenvalues --   -0.23134  -0.20194  -0.19632  -0.16508  -0.15696
 Alpha  occ. eigenvalues --   -0.13066  -0.12425  -0.12060  -0.09757  -0.08699
 Alpha  occ. eigenvalues --    0.04217
 Alpha virt. eigenvalues --    0.05872   0.06890   0.07260   0.08245   0.08836
 Alpha virt. eigenvalues --    0.09192   0.10075   0.10515   0.10715   0.11036
 Alpha virt. eigenvalues --    0.11245   0.11683   0.11982   0.12460   0.12894

  Beta  occ. eigenvalues --  -88.73028 -18.94292 -14.21537 -14.21100 -14.15338
  Beta  occ. eigenvalues --  -14.14774 -10.12692 -10.11783 -10.10610 -10.10574
  Beta  occ. eigenvalues --  -10.09706 -10.09459 -10.09334 -10.07568 -10.07366
  Beta  occ. eigenvalues --  -10.06788 -10.05412 -10.05285 -10.04514  -7.81655
  Beta  occ. eigenvalues --   -5.78059  -5.77690  -5.76999  -0.90078  -0.84547
  Beta  occ. eigenvalues --   -0.81446  -0.79573  -0.74101  -0.73718  -0.68282
  Beta  occ. eigenvalues --   -0.64089  -0.62522  -0.60377  -0.58799  -0.58269
  Beta  occ. eigenvalues --   -0.54972  -0.52227  -0.51017  -0.48938  -0.44016
  Beta  occ. eigenvalues --   -0.42414  -0.40720  -0.40315  -0.37955  -0.37194
  Beta  occ. eigenvalues --   -0.35916  -0.35430  -0.35362  -0.34651  -0.33720
  Beta  occ. eigenvalues --   -0.33497  -0.33037  -0.31538  -0.30994  -0.30010
  Beta  occ. eigenvalues --   -0.29374  -0.28755  -0.27709  -0.27329  -0.26951
  Beta  occ. eigenvalues --   -0.26166  -0.25418  -0.24620  -0.24328  -0.23128
  Beta  occ. eigenvalues --   -0.22804  -0.19628  -0.19300  -0.15191  -0.14718
  Beta  occ. eigenvalues --   -0.12619  -0.12165  -0.11851  -0.09307  -0.07892
  Beta virt. eigenvalues --    0.06114   0.06816   0.07397   0.08272   0.08856
  Beta virt. eigenvalues --    0.09169   0.09926   0.10163   0.10463   0.10796
  Beta virt. eigenvalues --    0.11038   0.11322   0.11726   0.12123   0.12484

 Mulliken charges and spin densities:
               1          2
     1  C   -0.348639  -0.119254
     2  C   -0.032844   0.514603
     3  C   -0.235760   0.059779
     4  C   -0.232560  -0.258173
     5  N    0.195711   0.020905
     6  C   -0.282241   0.033752
     7  C   -0.329796  -0.221104
     8  S    0.123725  -0.046358
     9  C   -1.376122   0.029413
    10  O   -0.310567   0.062112
    11  C    0.582822   0.186951
    12  C   -0.229307  -0.059560
    13  N   -0.090167   0.161518
    14  C   -0.314652   0.188158
    15  C    0.137406  -0.025908
    16  N   -0.101257   0.204856
    17  N   -0.086389  -0.002414
    18  C   -0.317141  -0.025283
    19  C    0.172372  -0.854304
    20  H    0.057739   0.075339
    21  H    0.148744   0.011745
    22  H    0.091802   0.047562
    23  H    0.061573   0.097775
    24  H    0.195969   0.012276
    25  H    0.204740   0.003972
    26  H    0.123621   0.004608
    27  H    0.230613  -0.052141
    28  H   -0.066651   0.233608
    29  H    0.119475   0.097369
    30  H    0.181530  -0.028761
    31  H    0.190427   0.006899
    32  H    0.128241  -0.014120
    33  H    0.254504   0.007624
    34  H    0.150556  -0.001274
    35  H    0.101462   0.002996
    36  H    0.112798   0.030640
    37  H    0.015567   0.148935
    38  H   -0.052178   0.184400
    39  H   -0.175126   0.280858
 Sum of Mulliken charges =  -1.00000   1.00000

 Dipole moment (field-independent basis, Debye):
    X=              3.2593    Y=              5.2253    Z=             -1.1047  Tot=              6.2568
 Quadrupole moment (field-independent basis, Debye-Ang):
   XX=           -185.1225   YY=           -152.0757   ZZ=           -138.7217
   XY=            -19.1168   XZ=              3.1356   YZ=              5.5325

 Summary of Natural Population Analysis:

                                       Natural Population
                Natural  -----------------------------------------------
    Atom  No    Charge         Core      Valence    Rydberg      Total
 -----------------------------------------------------------------------
      C    1   -0.28851      0.99961     2.28246    0.00644     3.28851
      C    2   -0.09306      0.99955     2.07883    0.01468     3.09306
      C    3   -0.20314      0.99955     2.19189    0.01170     3.20314
      C    4   -0.08925      0.99961     2.07778    0.01186     3.08925
      N    5   -0.25392      0.99963     2.74396    0.01033     3.75392
      C    6   -0.09054      0.99959     2.07916    0.01178     3.09054
      C    7   -0.26681      0.99959     2.25546    0.01176     3.26681
      S    8    0.10067      4.99956     2.88289    0.01688     7.89933
      C    9    0.34976      0.99960     1.62866    0.02198     2.65024
      O   10   -0.31823      0.99988     3.31344    0.00490     4.31823
      C   11    0.08262      0.99950     1.90209    0.01579     2.91738
      C   12   -0.01802      0.99956     2.00567    0.01280     3.01802
      N   13   -0.17221      0.99971     2.66010    0.01240     3.67221
      C   14    0.00973      0.99957     1.97481    0.01590     2.99027
      C   15    0.17007      0.99954     1.81607    0.01432     2.82993
      N   16   -0.19513      0.99964     2.68442    0.01108     3.69513
      N   17   -0.31979      0.99967     2.80959    0.01053     3.81979
      C   18   -0.17661      0.99967     2.16992    0.00702     3.17661
      C   19   -0.29363      0.99960     2.28602    0.00802     3.29363
      H   20    0.10003      0.00000     0.39909    0.00087     0.39997
      H   21    0.10616      0.00000     0.39306    0.00078     0.39384
      H   22    0.10154      0.00000     0.39767    0.00079     0.39846
      H   23    0.09636      0.00000     0.40254    0.00110     0.40364
      H   24    0.11568      0.00000     0.38320    0.00112     0.38432
      H   25    0.11114      0.00000     0.38767    0.00119     0.38886
      H   26    0.08994      0.00000     0.40884    0.00122     0.41006
      H   27    0.12375      0.00000     0.37446    0.00179     0.37625
      H   28    0.08589      0.00000     0.41298    0.00113     0.41411
      H   29    0.10780      0.00000     0.39110    0.00110     0.39220
      H   30    0.09808      0.00000     0.40009    0.00183     0.40192
      H   31    0.09426      0.00000     0.40450    0.00123     0.40574
      H   32    0.07924      0.00000     0.41903    0.00173     0.42076
      H   33    0.18793      0.00000     0.30927    0.00281     0.31207
      H   34    0.08391      0.00000     0.41378    0.00231     0.41609
      H   35    0.09170      0.00000     0.40755    0.00074     0.40830
      H   36    0.09069      0.00000     0.40779    0.00152     0.40931
      H   37    0.10348      0.00000     0.39544    0.00108     0.39652
      H   38    0.09920      0.00000     0.39966    0.00114     0.40080
      H   39    0.09923      0.00000     0.39963    0.00114     0.40077
 =======================================================================
   * Total *    0.00000     22.99264    51.75059    0.25677    75.00000

 Normal termination of Gaussian 16 at Mon Dec 14 15:18:19 2020.
