 Gaussian 16, Revision A.03,

 -----------------------------------------------------------
 # opt freq B3LYP/6-31G(d) empiricaldispersion=gd3bj scf=xqc
 -----------------------------------------------------------

 ------------------------------
 CID_5717055_JID_10738_neutraal
 ------------------------------
 Symbolic Z-matrix:
 Charge =  0 Multiplicity = 1

 SCF Done:  E(RB3LYP) =  -911.304441660     A.U. after   16 cycles
 SCF Done:  E(RB3LYP) =  -911.309119084     A.U. after   15 cycles
 SCF Done:  E(RB3LYP) =  -911.311719840     A.U. after   16 cycles
 SCF Done:  E(RB3LYP) =  -911.313366381     A.U. after   15 cycles
 SCF Done:  E(RB3LYP) =  -911.315218095     A.U. after   14 cycles
 SCF Done:  E(RB3LYP) =  -911.313851755     A.U. after   15 cycles
 SCF Done:  E(RB3LYP) =  -911.315813985     A.U. after   15 cycles
 SCF Done:  E(RB3LYP) =  -911.317386819     A.U. after   14 cycles
 SCF Done:  E(RB3LYP) =  -911.317774067     A.U. after   13 cycles
 SCF Done:  E(RB3LYP) =  -911.317854461     A.U. after   13 cycles
 SCF Done:  E(RB3LYP) =  -911.317908112     A.U. after   11 cycles
 SCF Done:  E(RB3LYP) =  -911.317911127     A.U. after   10 cycles
 SCF Done:  E(RB3LYP) =  -911.317913268     A.U. after   10 cycles
 SCF Done:  E(RB3LYP) =  -911.317913735     A.U. after    9 cycles
 SCF Done:  E(RB3LYP) =  -911.317913849     A.U. after    7 cycles
 SCF Done:  E(RB3LYP) =  -911.317913911     A.U. after    8 cycles
 Optimization completed.
    -- Stationary point found.
 Normal termination of Gaussian 16 at Mon Dec 14 13:57:18 2020.

 --------------------------------------------------------------------
 #N Geom=AllCheck Guess=TCheck SCRF=Check GenChk RB3LYP/6-31G(d) Freq
 --------------------------------------------------------------------

 Structure from the checkpoint file:  "JID_10738.chk"
 ------------------------------
 CID_5717055_JID_10738_neutraal
 ------------------------------
 Charge =  0 Multiplicity = 1

 SCF Done:  E(RB3LYP) =  -911.317913911     A.U. after    1 cycles

  Exact polarizability: 221.463 -21.910 200.280 -23.188 -14.936 155.632
 Approx polarizability: 324.869 -55.896 354.383 -47.672 -50.220 300.017

                      1                      2                      3
                      A                      A                      A
 Frequencies --     16.1608                29.3678                48.9637
 Red. masses --      6.6628                 4.4230                 5.5444
 Frc consts  --      0.0010                 0.0022                 0.0078
 IR Inten    --      2.0598                 1.0838                 0.4206

                      4                      5                      6
                      A                      A                      A
 Frequencies --     75.1035                80.8619                96.2558
 Red. masses --      5.8539                 5.0729                 3.9064
 Frc consts  --      0.0195                 0.0195                 0.0213
 IR Inten    --      0.3903                 0.4982                 0.1094

                      7                      8                      9
                      A                      A                      A
 Frequencies --    126.2294               173.5038               188.5077
 Red. masses --      5.8029                 2.1243                 4.0458
 Frc consts  --      0.0545                 0.0377                 0.0847
 IR Inten    --      1.7509                 1.2667                 0.4645

                     10                     11                     12
                      A                      A                      A
 Frequencies --    206.6247               245.0070               283.5400
 Red. masses --      1.8338                 5.6373                 4.3983
 Frc consts  --      0.0461                 0.1994                 0.2083
 IR Inten    --      2.3797                 6.5485                 5.5506

                     13                     14                     15
                      A                      A                      A
 Frequencies --    291.2075               312.4972               318.8129
 Red. masses --      4.1517                 4.9591                 4.8785
 Frc consts  --      0.2074                 0.2853                 0.2922
 IR Inten    --      9.2665                13.3904                 7.4312

                     16                     17                     18
                      A                      A                      A
 Frequencies --    338.9908               374.5830               399.7543
 Red. masses --      1.0339                 4.3394                 3.6522
 Frc consts  --      0.0700                 0.3587                 0.3439
 IR Inten    --     18.6113                 2.1323                 0.8464

                     19                     20                     21
                      A                      A                      A
 Frequencies --    414.6771               428.6411               459.9435
 Red. masses --      3.2045                 3.2862                 4.2276
 Frc consts  --      0.3247                 0.3557                 0.5269
 IR Inten    --      1.5507                 0.7317                13.4807

                     22                     23                     24
                      A                      A                      A
 Frequencies --    469.5375               496.0770               514.9781
 Red. masses --      3.6225                 2.4863                 2.5225
 Frc consts  --      0.4705                 0.3605                 0.3942
 IR Inten    --      8.9662               123.0317               161.2049

                     25                     26                     27
                      A                      A                      A
 Frequencies --    542.3883               554.9831               567.8575
 Red. masses --      5.5105                 2.1629                 1.6296
 Frc consts  --      0.9551                 0.3925                 0.3096
 IR Inten    --     26.0899               165.9403               348.1437

                     28                     29                     30
                      A                      A                      A
 Frequencies --    610.2212               643.3086               646.5922
 Red. masses --      3.0062                 7.1004                 6.2645
 Frc consts  --      0.6595                 1.7313                 1.5431
 IR Inten    --      8.5337                17.2729                 1.5061

                     31                     32                     33
                      A                      A                      A
 Frequencies --    661.3632               695.1115               700.4333
 Red. masses --      6.4998                 4.4563                 3.9529
 Frc consts  --      1.6751                 1.2686                 1.1426
 IR Inten    --      1.4299                 1.3868                 8.3633

                     34                     35                     36
                      A                      A                      A
 Frequencies --    738.1793               756.0251               768.3163
 Red. masses --      4.2436                 6.2938                 5.2439
 Frc consts  --      1.3624                 2.1195                 1.8238
 IR Inten    --      5.0867                21.9872                36.7492

                     37                     38                     39
                      A                      A                      A
 Frequencies --    819.5251               824.4246               838.8587
 Red. masses --      1.3048                 1.2842                 2.0896
 Frc consts  --      0.5163                 0.5143                 0.8664
 IR Inten    --      2.0829                 1.6341                18.5633

                     40                     41                     42
                      A                      A                      A
 Frequencies --    840.3219               852.8621               860.1337
 Red. masses --      1.7988                 3.0415                 5.0062
 Frc consts  --      0.7484                 1.3035                 2.1822
 IR Inten    --     91.3169                46.9368                15.3131

                     43                     44                     45
                      A                      A                      A
 Frequencies --    887.7321               946.8016               966.7139
 Red. masses --      4.2250                 1.3094                 1.3149
 Frc consts  --      1.9617                 0.6916                 0.7240
 IR Inten    --     15.4961                 0.7801                 0.3823

                     46                     47                     48
                      A                      A                      A
 Frequencies --    974.5435               981.4105               988.3776
 Red. masses --      1.3196                 1.3007                 2.1965
 Frc consts  --      0.7384                 0.7381                 1.2642
 IR Inten    --      3.9824                 1.0674                18.2187

                     49                     50                     51
                      A                      A                      A
 Frequencies --   1027.0910              1032.4004              1064.8465
 Red. masses --      2.7673                 2.8887                 1.5985
 Frc consts  --      1.7200                 1.8140                 1.0679
 IR Inten    --      0.0812                 1.5674                 1.1833

                     52                     53                     54
                      A                      A                      A
 Frequencies --   1091.9894              1109.2555              1125.5095
 Red. masses --      1.7304                 1.9767                 2.8999
 Frc consts  --      1.2157                 1.4331                 2.1644
 IR Inten    --      9.1962                14.3908                11.1315

                     55                     56                     57
                      A                      A                      A
 Frequencies --   1145.8452              1156.1625              1174.8526
 Red. masses --      2.4585                 1.3193                 1.2374
 Frc consts  --      1.9018                 1.0390                 1.0063
 IR Inten    --    110.0885                20.9662                 5.3112

                     58                     59                     60
                      A                      A                      A
 Frequencies --   1220.8885              1224.1658              1302.8790
 Red. masses --      1.3782                 1.1364                 3.2547
 Frc consts  --      1.2104                 1.0034                 3.2551
 IR Inten    --     20.0744                54.1801                70.4961

                     61                     62                     63
                      A                      A                      A
 Frequencies --   1308.3254              1339.9426              1344.1026
 Red. masses --      2.9103                 1.4844                 3.0781
 Frc consts  --      2.9350                 1.5703                 3.2764
 IR Inten    --    148.4239                51.4799                72.0121

                     64                     65                     66
                      A                      A                      A
 Frequencies --   1354.7330              1381.3091              1385.7365
 Red. masses --      2.0856                 2.7645                 6.6191
 Frc consts  --      2.2552                 3.1077                 7.4888
 IR Inten    --     33.6732               130.4427               459.9322

                     67                     68                     69
                      A                      A                      A
 Frequencies --   1393.9339              1431.4819              1465.9439
 Red. masses --      7.6462                 1.3043                 2.6765
 Frc consts  --      8.7535                 1.5747                 3.3889
 IR Inten    --    129.4537                11.7785                10.1175

                     70                     71                     72
                      A                      A                      A
 Frequencies --   1488.7426              1500.8592              1513.5025
 Red. masses --      3.0690                 1.1562                 1.0882
 Frc consts  --      4.0077                 1.5345                 1.4686
 IR Inten    --     13.0892                23.7731                 8.5237

                     73                     74                     75
                      A                      A                      A
 Frequencies --   1531.3968              1546.8800              1569.8219
 Red. masses --      1.4867                 2.4989                 2.5752
 Frc consts  --      2.0543                 3.5230                 3.7390
 IR Inten    --      9.2278                68.9889                42.6819

                     76                     77                     78
                      A                      A                      A
 Frequencies --   1602.4278              1623.9315              1655.4588
 Red. masses --      8.3013                 5.6341                 8.5452
 Frc consts  --     12.5589                 8.7541                13.7979
 IR Inten    --    133.5197                10.4040                68.4617

                     79                     80                     81
                      A                      A                      A
 Frequencies --   1660.4264              1670.9762              1685.5543
 Red. masses --      5.8532                 3.6970                 3.0625
 Frc consts  --      9.5078                 6.0819                 5.1264
 IR Inten    --    257.9556               138.5427                38.9166

                     82                     83                     84
                      A                      A                      A
 Frequencies --   1698.7903              3052.0696              3107.5730
 Red. masses --      1.5634                 1.0400                 1.0977
 Frc consts  --      2.6582                 5.7079                 6.2458
 IR Inten    --    151.8556                17.4461                16.4318

                     85                     86                     87
                      A                      A                      A
 Frequencies --   3164.5124              3181.9726              3183.4967
 Red. masses --      1.1011                 1.0885                 1.0897
 Frc consts  --      6.4968                 6.4931                 6.5066
 IR Inten    --     11.6887                14.3841                16.9413

                     88                     89                     90
                      A                      A                      A
 Frequencies --   3187.5578              3209.6849              3240.6567
 Red. masses --      1.0899                 1.0922                 1.0917
 Frc consts  --      6.5245                 6.6294                 6.7550
 IR Inten    --     10.9052                13.4022                 2.1604

                     91                     92                     93
                      A                      A                      A
 Frequencies --   3248.3096              3252.3548              3268.8891
 Red. masses --      1.0895                 1.0923                 1.0919
 Frc consts  --      6.7733                 6.8076                 6.8745
 IR Inten    --      0.7688                 0.6452                 4.0045

                     94                     95                     96
                      A                      A                      A
 Frequencies --   3564.6344              3582.0063              3665.3847
 Red. masses --      1.0475                 1.0760                 1.0993
 Frc consts  --      7.8424                 8.1338                 8.7020
 IR Inten    --     29.2768                43.9245                13.1879

 - Thermochemistry -
 -------------------
 Temperature   298.150 Kelvin.  Pressure   1.00000 Atm.
 Atom     1 has atomic number  6 and mass  12.00000

 Molecular mass:   270.11168 amu.
 Principal axes and moments of inertia in atomic units:
                           1         2         3
     Eigenvalues --  3917.321657840.789149970.04332
           X            0.99988   0.00586  -0.01415
           Y           -0.00576   0.99995   0.00758
           Z            0.01419  -0.00750   0.99987
 This molecule is an asymmetric top.
 Rotational symmetry number  1.
 Warning -- assumption of classical behavior for rotation
           may cause significant error
 Rotational temperatures (Kelvin)      0.02211     0.01105     0.00869
 Rotational constants (GHZ):           0.46071     0.23017     0.18102
 Zero-point vibrational energy     704574.0 (Joules/Mol)
                                  168.39723 (Kcal/Mol)
 Warning -- explicit consideration of  28 degrees of freedom as
           vibrations may cause significant error
 Vibrational temperatures:     23.25    42.25    70.45   108.06   116.34
          (Kelvin)            138.49   181.62   249.63   271.22   297.29
                              352.51   407.95   418.98   449.61   458.70
                              487.73   538.94   575.16   596.63   616.72
                              661.76   675.56   713.74   740.94   780.38
                              798.50   817.02   877.97   925.58   930.30
                              951.55  1000.11  1007.77  1062.08  1087.75
                             1105.44  1179.11  1186.16  1206.93  1209.04
                             1227.08  1237.54  1277.25  1362.24  1390.89
                             1402.15  1412.03  1422.05  1477.75  1485.39
                             1532.08  1571.13  1595.97  1619.36  1648.62
                             1663.46  1690.35  1756.59  1761.30  1874.55
                             1882.39  1927.88  1933.86  1949.16  1987.40
                             1993.77  2005.56  2059.58  2109.17  2141.97
                             2159.40  2177.59  2203.34  2225.62  2258.62
                             2305.54  2336.48  2381.84  2388.98  2404.16
                             2425.14  2444.18  4391.25  4471.10  4553.03
                             4578.15  4580.34  4586.18  4618.02  4662.58
                             4673.59  4679.41  4703.20  5128.71  5153.71
                             5273.67

 Zero-point correction=                           0.268358 (Hartree/Particle)
 Thermal correction to Energy=                    0.285916
 Thermal correction to Enthalpy=                  0.286860
 Thermal correction to Gibbs Free Energy=         0.221244
 Sum of electronic and zero-point Energies=           -911.049556
 Sum of electronic and thermal Energies=              -911.031998
 Sum of electronic and thermal Enthalpies=            -911.031054
 Sum of electronic and thermal Free Energies=         -911.096670

                     E (Thermal)             CV                S
                      KCal/Mol        Cal/Mol-Kelvin    Cal/Mol-Kelvin
 Total                  179.415             68.230            138.102
 Electronic               0.000              0.000              0.000
 Translational            0.889              2.981             42.680
 Rotational               0.889              2.981             34.081
 Vibrational            177.637             62.269             61.340
 Vibration     1          0.593              1.986              7.057
 Vibration     2          0.593              1.984              5.872
 Vibration     3          0.595              1.978              4.859
 Vibration     4          0.599              1.966              4.015
 Vibration     5          0.600              1.962              3.870
 Vibration     6          0.603              1.952              3.529
 Vibration     7          0.611              1.927              3.003
 Vibration     8          0.627              1.875              2.397
 Vibration     9          0.633              1.856              2.242
 Vibration    10          0.641              1.830              2.073
 Vibration    11          0.660              1.771              1.766
 Vibration    12          0.682              1.704              1.512
 Vibration    13          0.687              1.690              1.467
 Vibration    14          0.701              1.650              1.349
 Vibration    15          0.705              1.638              1.316
 Vibration    16          0.719              1.598              1.217
 Vibration    17          0.746              1.524              1.061
 Vibration    18          0.766              1.471              0.964
 Vibration    19          0.778              1.438              0.910
 Vibration    20          0.790              1.408              0.863
 Vibration    21          0.818              1.339              0.766
 Vibration    22          0.827              1.318              0.739
 Vibration    23          0.852              1.259              0.668
 Vibration    24          0.870              1.217              0.622
 Vibration    25          0.897              1.156              0.560
 Vibration    26          0.910              1.129              0.534
 Vibration    27          0.924              1.101              0.508
 Vibration    28          0.969              1.010              0.432

 Optimization completed.
    -- Stationary point found.
 Normal termination of Gaussian 16 at Mon Dec 14 14:13:38 2020.

 ----------------------------------------------------------------------
 # B3LYP/6-311++G(d,p) empiricaldispersion=gd3bj scf=xqc pop=npa geom=c
 heck
 ----------------------------------------------------------------------

 --------------------------------------
 CID_5717055_JID_10738_Energie_neutraal
 --------------------------------------
 Structure from the checkpoint file:  "JID_10738.chk"
 Charge =  0 Multiplicity = 1

 SCF Done:  E(RB3LYP) =  -911.574251767     A.U. after   16 cycles
 Normal termination of Gaussian 16 at Mon Dec 14 14:19:49 2020.

 ----------------------------------------------------------------------
 # B3LYP/6-311++G(d,p) empiricaldispersion=gd3bj scf=xqc pop=npa geom=c
 heck
 ----------------------------------------------------------------------

 ------------------------------------
 CID_5717055_JID_10738_Energie_kation
 ------------------------------------
 Structure from the checkpoint file:  "JID_10738.chk"
 Charge =  1 Multiplicity = 2

 SCF Done:  E(UB3LYP) =  -911.302746440     A.U. after   26 cycles
 Normal termination of Gaussian 16 at Mon Dec 14 14:33:25 2020.
 Gaussian 16:  ES64L-G16RevA.03 25-Dec-2016

 ----------------------------------------------------------------------
 # B3LYP/6-311++G(d,p) empiricaldispersion=gd3bj scf=xqc pop=npa geom=c
 heck
 ----------------------------------------------------------------------

 -----------------------------------
 CID_5717055_JID_10738_Energie_anion
 -----------------------------------
 Structure from the checkpoint file:  "JID_10738.chk"
 Charge = -1 Multiplicity = 2

                         Standard orientation:
 ---------------------------------------------------------------------
 Center     Atomic      Atomic             Coordinates (Angstroms)
 Number     Number       Type             X           Y           Z
 ---------------------------------------------------------------------
      1          6           0        3.435695   -2.230967   -1.268141
      2          6           0        2.340176   -1.733523   -0.354446
      3          7           0        1.571885   -2.672235    0.096905
      4          7           0        0.483920   -2.324181    0.912232
      5          6           0       -0.618110   -1.587465    0.493189
      6          6           0       -1.723904   -1.519176    1.370082
      7          6           0       -2.841023   -0.772404    1.047284
      8          6           0       -2.870561   -0.079536   -0.166706
      9          6           0       -1.799160   -0.148896   -1.057097
     10          6           0       -0.679395   -0.898585   -0.733323
     11          7           0       -4.033022    0.722295   -0.504594
     12          8           0       -4.971124    0.748654    0.298659
     13          8           0       -4.021897    1.337327   -1.575774
     14          6           0        2.285857   -0.280817   -0.074473
     15          6           0        1.898680    0.230044    1.178307
     16          6           0        1.878646    1.592392    1.426258
     17          6           0        2.228665    2.513507    0.421418
     18          6           0        2.628372    2.013035   -0.829417
     19          6           0        2.666804    0.645428   -1.060599
     20          7           0        2.233502    3.876600    0.678539
     21          1           0        3.448985   -3.322237   -1.256601
     22          1           0        4.411135   -1.841411   -0.957170
     23          1           0        3.270071   -1.903335   -2.301947
     24          1           0        0.229588   -3.133252    1.465199
     25          1           0       -1.683137   -2.049024    2.318201
     26          1           0       -3.689416   -0.707349    1.716629
     27          1           0       -1.859254    0.384269   -1.997486
     28          1           0        0.142362   -0.957997   -1.431661
     29          1           0        1.609888   -0.454826    1.965567
     30          1           0        1.584939    1.958436    2.406871
     31          1           0        2.914132    2.704948   -1.617662
     32          1           0        2.980231    0.294980   -2.038789
     33          1           0        1.643773    4.183917    1.440894
     34          1           0        2.162425    4.479467   -0.130719
 ---------------------------------------------------------------------

 SCF Done:  E(UB3LYP) =  -911.604271960     A.U. after   26 cycles

 The electronic state is 2-A.
 Alpha  occ. eigenvalues --  -18.95692 -18.95662 -14.33677 -14.24021 -14.23994
 Alpha  occ. eigenvalues --  -14.21897 -10.12228 -10.10186 -10.08754 -10.08145
 Alpha  occ. eigenvalues --  -10.07818 -10.07604 -10.07524 -10.07384 -10.07198
 Alpha  occ. eigenvalues --  -10.06437 -10.05195 -10.04603 -10.04580 -10.04519
 Alpha  occ. eigenvalues --   -1.03449  -0.88532  -0.86218  -0.84085  -0.76485
 Alpha  occ. eigenvalues --   -0.74525  -0.71940  -0.65876  -0.65384  -0.63106
 Alpha  occ. eigenvalues --   -0.62783  -0.60963  -0.54416  -0.52407  -0.52190
 Alpha  occ. eigenvalues --   -0.49426  -0.46238  -0.44648  -0.43452  -0.43081
 Alpha  occ. eigenvalues --   -0.41619  -0.40978  -0.37738  -0.35701  -0.35326
 Alpha  occ. eigenvalues --   -0.35155  -0.34107  -0.33666  -0.32998  -0.32007
 Alpha  occ. eigenvalues --   -0.31673  -0.30831  -0.30379  -0.29529  -0.29402
 Alpha  occ. eigenvalues --   -0.29126  -0.27685  -0.27152  -0.25042  -0.23849
 Alpha  occ. eigenvalues --   -0.22289  -0.22167  -0.18759  -0.16491  -0.15463
 Alpha  occ. eigenvalues --   -0.14680  -0.13466  -0.13376  -0.11707  -0.11198
 Alpha  occ. eigenvalues --   -0.08258   0.02497
 Alpha virt. eigenvalues --    0.05679   0.06112   0.07114   0.07790   0.08047
 Alpha virt. eigenvalues --    0.08774   0.09301   0.10221   0.10781   0.10887
 Alpha virt. eigenvalues --    0.11620   0.11755   0.11937   0.12438   0.13623

  Beta  occ. eigenvalues --  -18.95312 -18.95271 -14.33145 -14.24040 -14.24002
  Beta  occ. eigenvalues --  -14.21800 -10.12127 -10.10003 -10.08505 -10.08103
  Beta  occ. eigenvalues --  -10.07840 -10.07638 -10.07512 -10.07309 -10.07212
  Beta  occ. eigenvalues --  -10.06413 -10.05271 -10.04629 -10.04466 -10.04426
  Beta  occ. eigenvalues --   -1.02581  -0.88377  -0.85484  -0.84005  -0.76280
  Beta  occ. eigenvalues --   -0.74392  -0.71760  -0.65693  -0.65220  -0.62904
  Beta  occ. eigenvalues --   -0.62632  -0.60798  -0.53867  -0.52319  -0.51958
  Beta  occ. eigenvalues --   -0.49327  -0.45940  -0.44504  -0.43347  -0.43046
  Beta  occ. eigenvalues --   -0.41469  -0.40898  -0.37179  -0.35247  -0.35077
  Beta  occ. eigenvalues --   -0.33802  -0.33515  -0.33209  -0.32892  -0.31901
  Beta  occ. eigenvalues --   -0.31409  -0.30666  -0.30330  -0.29397  -0.29209
  Beta  occ. eigenvalues --   -0.28926  -0.27559  -0.26871  -0.24923  -0.23487
  Beta  occ. eigenvalues --   -0.22179  -0.21841  -0.18231  -0.16238  -0.14968
  Beta  occ. eigenvalues --   -0.13528  -0.13006  -0.11597  -0.11222  -0.10813
  Beta  occ. eigenvalues --   -0.07893
  Beta virt. eigenvalues --    0.05961   0.06564   0.07082   0.07791   0.08034
  Beta virt. eigenvalues --    0.08726   0.09093   0.09307   0.10242   0.10823
  Beta virt. eigenvalues --    0.11134   0.11618   0.11752   0.12061   0.12792

 Mulliken charges and spin densities:
               1          2
     1  C   -0.503992   0.002768
     2  C   -0.861467   0.065151
     3  N    0.079258   0.051882
     4  N   -0.162002  -0.030940
     5  C   -0.110919   0.099689
     6  C   -0.401593  -0.022343
     7  C   -0.162092   0.159682
     8  C   -0.184413  -0.060060
     9  C   -0.260751   0.129815
    10  C    0.144893  -0.056776
    11  N   -0.283755   0.173516
    12  O   -0.170313   0.146918
    13  O   -0.159828   0.152054
    14  C    1.371878  -0.008656
    15  C   -0.201510   0.096138
    16  C   -0.240624  -0.035108
    17  C   -0.271717   0.045185
    18  C   -0.236433   0.023429
    19  C   -0.525322   0.017350
    20  N   -0.334346   0.007158
    21  H    0.135607  -0.000230
    22  H    0.128348   0.010106
    23  H    0.145690   0.008459
    24  H    0.294405   0.008266
    25  H    0.115074   0.007725
    26  H    0.218850  -0.007642
    27  H    0.216743  -0.003610
    28  H    0.178214   0.007966
    29  H    0.198145   0.005730
    30  H    0.129397   0.006304
    31  H    0.129820   0.001776
    32  H    0.116659  -0.001811
    33  H    0.235118  -0.000312
    34  H    0.232976   0.000421
 Sum of Mulliken charges =  -1.00000   1.00000

 Dipole moment (field-independent basis, Debye):
    X=             11.2750    Y=              0.1944    Z=              2.0108  Tot=             11.4545
 Quadrupole moment (field-independent basis, Debye-Ang):
   XX=           -208.0484   YY=           -128.8625   ZZ=           -122.1464
   XY=             17.9590   XZ=            -13.2830   YZ=              0.0970

 Summary of Natural Population Analysis:

                                       Natural Population
                Natural  -----------------------------------------------
    Atom  No    Charge         Core      Valence    Rydberg      Total
 -----------------------------------------------------------------------
      C    1   -0.29852      0.99963     2.29458    0.00431     3.29852
      C    2    0.14788      0.99957     1.83487    0.01768     2.85212
      N    3   -0.15045      0.99964     2.63770    0.01311     3.65045
      N    4   -0.23196      0.99965     2.71919    0.01312     3.73196
      C    5    0.11949      0.99948     1.86780    0.01322     2.88051
      C    6   -0.14461      0.99954     2.13715    0.00792     3.14461
      C    7   -0.06253      0.99954     2.05391    0.00909     3.06253
      C    8    0.02012      0.99940     1.96519    0.01528     2.97988
      C    9   -0.06149      0.99953     2.05295    0.00901     3.06149
      C   10   -0.14588      0.99953     2.13835    0.00800     3.14588
      N   11    0.29594      0.99971     2.17840    0.02595     3.20406
      O   12   -0.20384      0.99990     3.19645    0.00749     4.20384
      O   13   -0.20098      0.99990     3.19360    0.00748     4.20098
      C   14   -0.07309      0.99947     2.06148    0.01215     3.07309
      C   15   -0.05459      0.99954     2.04712    0.00794     3.05459
      C   16   -0.13193      0.99953     2.12443    0.00798     3.13193
      C   17    0.10315      0.99951     1.88765    0.00969     2.89685
      C   18   -0.13569      0.99953     2.12796    0.00819     3.13569
      C   19   -0.07210      0.99954     2.06509    0.00747     3.07210
      N   20   -0.39508      0.99971     2.88680    0.00857     3.89508
      H   21    0.10855      0.00000     0.39051    0.00094     0.39145
      H   22    0.09967      0.00000     0.39948    0.00085     0.40033
      H   23    0.09980      0.00000     0.39925    0.00095     0.40020
      H   24    0.18308      0.00000     0.31528    0.00165     0.31692
      H   25    0.09211      0.00000     0.40649    0.00139     0.40789
      H   26    0.11226      0.00000     0.38662    0.00112     0.38774
      H   27    0.11249      0.00000     0.38639    0.00112     0.38751
      H   28    0.10381      0.00000     0.39482    0.00138     0.39619
      H   29    0.10935      0.00000     0.38939    0.00125     0.39065
      H   30    0.09563      0.00000     0.40296    0.00141     0.40437
      H   31    0.09401      0.00000     0.40452    0.00147     0.40599
      H   32    0.09730      0.00000     0.40176    0.00095     0.40270
      H   33    0.18466      0.00000     0.31405    0.00129     0.31534
      H   34    0.18346      0.00000     0.31523    0.00131     0.31654
 =======================================================================
   * Total *    0.00000     19.99185    50.77741    0.23074    71.00000

 Normal termination of Gaussian 16 at Mon Dec 14 14:47:25 2020.
