 Gaussian 16, Revision A.03,

 -----------------------------------------------------------
 # opt freq B3LYP/6-31G(d) empiricaldispersion=gd3bj scf=xqc
 -----------------------------------------------------------

 ------------------------------
 CID_66011752_JID_9527_neutraal
 ------------------------------
 Symbolic Z-matrix:
 Charge =  0 Multiplicity = 1

 SCF Done:  E(RB3LYP) =  -913.933806097     A.U. after   15 cycles
 SCF Done:  E(RB3LYP) =  -913.941080239     A.U. after   15 cycles
 SCF Done:  E(RB3LYP) =  -913.942181942     A.U. after   15 cycles
 SCF Done:  E(RB3LYP) =  -913.943047617     A.U. after   16 cycles
 SCF Done:  E(RB3LYP) =  -913.946564456     A.U. after   14 cycles
 SCF Done:  E(RB3LYP) =  -913.950107826     A.U. after   17 cycles
 SCF Done:  E(RB3LYP) =  -913.952499944     A.U. after   16 cycles
 SCF Done:  E(RB3LYP) =  -913.953289300     A.U. after   14 cycles
 SCF Done:  E(RB3LYP) =  -913.954245939     A.U. after   14 cycles
 SCF Done:  E(RB3LYP) =  -913.954921751     A.U. after   14 cycles
 SCF Done:  E(RB3LYP) =  -913.956647738     A.U. after    9 cycles
 SCF Done:  E(RB3LYP) =  -913.956649932     A.U. after    9 cycles
 SCF Done:  E(RB3LYP) =  -913.956650144     A.U. after    8 cycles
 SCF Done:  E(RB3LYP) =  -913.956650563     A.U. after   10 cycles
 SCF Done:  E(RB3LYP) =  -913.956650593     A.U. after    8 cycles
 Optimization completed.
    -- Stationary point found.
 Normal termination of Gaussian 16 at Sat Dec 12 10:08:45 2020.

 --------------------------------------------------------------------
 #N Geom=AllCheck Guess=TCheck SCRF=Check GenChk RB3LYP/6-31G(d) Freq
 --------------------------------------------------------------------

 Structure from the checkpoint file:  "JID_9527.chk"
 ------------------------------
 CID_66011752_JID_9527_neutraal
 ------------------------------
 Charge =  0 Multiplicity = 1

 SCF Done:  E(RB3LYP) =  -913.956650593     A.U. after    1 cycles

  Exact polarizability: 211.413  -0.694 161.599   8.508  -3.464 119.251
 Approx polarizability: 283.710  -1.233 270.750  21.203  -7.582 177.361

                      1                      2                      3
                      A                      A                      A
 Frequencies --     16.8469                46.1999                48.7836
 Red. masses --      3.8302                 4.8335                 3.9516
 Frc consts  --      0.0006                 0.0061                 0.0055
 IR Inten    --      0.1014                 0.2267                 1.0556

                      4                      5                      6
                      A                      A                      A
 Frequencies --     93.3923               102.3252               124.0976
 Red. masses --      4.7491                 3.2734                 3.0831
 Frc consts  --      0.0244                 0.0202                 0.0280
 IR Inten    --      0.4457                 1.7478                 0.3719

                      7                      8                      9
                      A                      A                      A
 Frequencies --    138.6133               161.4266               170.8117
 Red. masses --      3.6295                 3.2521                 1.4135
 Frc consts  --      0.0411                 0.0499                 0.0243
 IR Inten    --      0.5514                 0.5847                 0.3414

                     10                     11                     12
                      A                      A                      A
 Frequencies --    187.1109               206.4788               216.2445
 Red. masses --      4.4678                 2.3446                 2.3120
 Frc consts  --      0.0922                 0.0589                 0.0637
 IR Inten    --      4.3813                 0.7154                 0.2489

                     13                     14                     15
                      A                      A                      A
 Frequencies --    228.3787               241.8878               250.6609
 Red. masses --      1.2551                 3.0309                 1.5208
 Frc consts  --      0.0386                 0.1045                 0.0563
 IR Inten    --      1.2367                 8.1834                 2.4604

                     16                     17                     18
                      A                      A                      A
 Frequencies --    272.2663               294.1035               303.1967
 Red. masses --      2.7106                 2.8527                 3.4361
 Frc consts  --      0.1184                 0.1454                 0.1861
 IR Inten    --      1.6199                 1.1424                 1.7614

                     19                     20                     21
                      A                      A                      A
 Frequencies --    335.5644               376.1728               387.3411
 Red. masses --      3.1065                 2.6747                 3.9242
 Frc consts  --      0.2061                 0.2230                 0.3469
 IR Inten    --      0.8728                 0.3520                 0.3446

                     22                     23                     24
                      A                      A                      A
 Frequencies --    419.9210               441.7301               462.8440
 Red. masses --      2.1254                 6.3785                 5.3337
 Frc consts  --      0.2208                 0.7333                 0.6732
 IR Inten    --      0.5992                 3.0704                 3.2489

                     25                     26                     27
                      A                      A                      A
 Frequencies --    485.8120               502.9306               509.4544
 Red. masses --      3.7963                 3.7589                 2.1427
 Frc consts  --      0.5279                 0.5602                 0.3277
 IR Inten    --      0.9933                11.1140                 1.9542

                     28                     29                     30
                      A                      A                      A
 Frequencies --    580.7902               630.5263               678.2679
 Red. masses --      3.7293                 3.9235                 4.1572
 Frc consts  --      0.7412                 0.9190                 1.1268
 IR Inten    --     17.2999                10.5670                13.9345

                     31                     32                     33
                      A                      A                      A
 Frequencies --    705.1428               733.4549               740.5284
 Red. masses --      4.3208                 6.8636                 6.6073
 Frc consts  --      1.2658                 2.1755                 2.1348
 IR Inten    --     17.3871                 4.9037                 0.6105

                     34                     35                     36
                      A                      A                      A
 Frequencies --    784.1587               791.5539               832.4941
 Red. masses --      8.5026                 1.6463                 3.9326
 Frc consts  --      3.0804                 0.6077                 1.6058
 IR Inten    --     10.0668                38.6244                 1.9636

                     37                     38                     39
                      A                      A                      A
 Frequencies --    837.9595               866.7216               878.0744
 Red. masses --      6.9122                 3.3491                 2.4595
 Frc consts  --      2.8596                 1.4823                 1.1173
 IR Inten    --     32.9329                 6.0136                24.9448

                     40                     41                     42
                      A                      A                      A
 Frequencies --    884.7009               923.1587               944.0516
 Red. masses --      2.2245                 2.3883                 1.7307
 Frc consts  --      1.0258                 1.1992                 0.9088
 IR Inten    --      2.6068                21.2614                29.3838

                     43                     44                     45
                      A                      A                      A
 Frequencies --    950.7675               967.0704               982.1131
 Red. masses --      1.1657                 3.1118                 1.5079
 Frc consts  --      0.6208                 1.7146                 0.8569
 IR Inten    --      3.8286                39.8777                 0.0021

                     46                     47                     48
                      A                      A                      A
 Frequencies --    999.2530              1048.2645              1056.7787
 Red. masses --      2.0262                 2.5096                 2.4533
 Frc consts  --      1.1920                 1.6248                 1.6142
 IR Inten    --     34.6798                 3.4596                45.8237

                     49                     50                     51
                      A                      A                      A
 Frequencies --   1073.5756              1102.6623              1111.3552
 Red. masses --      1.7038                 1.9772                 1.7513
 Frc consts  --      1.1570                 1.4164                 1.2744
 IR Inten    --      0.6017                20.0956                 3.7992

                     52                     53                     54
                      A                      A                      A
 Frequencies --   1140.8386              1146.3285              1156.7265
 Red. masses --      2.3730                 2.2905                 2.6292
 Frc consts  --      1.8197                 1.7734                 2.0727
 IR Inten    --      0.6078                45.2825                 3.6277

                     55                     56                     57
                      A                      A                      A
 Frequencies --   1161.2230              1175.8052              1205.4860
 Red. masses --      2.1090                 1.3202                 1.1954
 Frc consts  --      1.6755                 1.0754                 1.0235
 IR Inten    --      5.6756                 8.4447                 0.9368

                     58                     59                     60
                      A                      A                      A
 Frequencies --   1213.2121              1228.3301              1267.9139
 Red. masses --      1.9216                 1.4015                 4.1773
 Frc consts  --      1.6665                 1.2459                 3.9566
 IR Inten    --      6.8219                14.2356                95.8703

                     61                     62                     63
                      A                      A                      A
 Frequencies --   1296.8385              1304.8402              1323.3554
 Red. masses --      1.1467                 4.7017                 1.1991
 Frc consts  --      1.1362                 4.7165                 1.2373
 IR Inten    --     50.9578                 7.0791                 1.1398

                     64                     65                     66
                      A                      A                      A
 Frequencies --   1355.5856              1365.6347              1370.6947
 Red. masses --      1.3837                 1.7437                 1.2987
 Frc consts  --      1.4981                 1.9159                 1.4376
 IR Inten    --     10.7688                11.6862                 1.5459

                     67                     68                     69
                      A                      A                      A
 Frequencies --   1373.9459              1384.8433              1401.5655
 Red. masses --      1.3271                 1.3468                 1.6967
 Frc consts  --      1.4760                 1.5217                 1.9637
 IR Inten    --     33.9719                 2.8259                12.3529

                     70                     71                     72
                      A                      A                      A
 Frequencies --   1416.2418              1420.2578              1420.4491
 Red. masses --      2.0340                 1.2466                 3.0899
 Frc consts  --      2.4037                 1.4815                 3.6732
 IR Inten    --     76.0533                10.3541               184.8358

                     73                     74                     75
                      A                      A                      A
 Frequencies --   1434.1316              1447.2926              1460.5138
 Red. masses --      1.4487                 1.4553                 2.6216
 Frc consts  --      1.7555                 1.7960                 3.2948
 IR Inten    --     28.2447                 3.1046                41.7940

                     76                     77                     78
                      A                      A                      A
 Frequencies --   1470.5391              1498.2209              1502.2680
 Red. masses --      2.0030                 2.5823                 1.2679
 Frc consts  --      2.5520                 3.4152                 1.6859
 IR Inten    --     70.4708                66.0225                 3.5510

                     79                     80                     81
                      A                      A                      A
 Frequencies --   1505.6430              1515.7895              1516.1155
 Red. masses --      1.1063                 1.1163                 1.0413
 Frc consts  --      1.4777                 1.5112                 1.4102
 IR Inten    --      6.4115                11.0935                 0.3516

                     82                     83                     84
                      A                      A                      A
 Frequencies --   1521.2985              1523.5471              1529.4034
 Red. masses --      1.1417                 1.1492                 1.0827
 Frc consts  --      1.5568                 1.5717                 1.4922
 IR Inten    --      4.9781                 5.1156                15.7986

                     85                     86                     87
                      A                      A                      A
 Frequencies --   1535.2536              1536.1400              1539.3487
 Red. masses --      1.1093                 1.0503                 1.1288
 Frc consts  --      1.5404                 1.4603                 1.5760
 IR Inten    --      2.0749                 0.3960                11.7129

                     88                     89                     90
                      A                      A                      A
 Frequencies --   1545.7129              1560.5364              1571.6152
 Red. masses --      2.0249                 1.6349                 4.1076
 Frc consts  --      2.8504                 2.3458                 5.9777
 IR Inten    --     38.7936                19.2915                27.0644

                     91                     92                     93
                      A                      A                      A
 Frequencies --   1618.7071              2931.0340              2943.3102
 Red. masses --      8.7341                 1.0737                 1.0731
 Frc consts  --     13.4835                 5.4345                 5.4771
 IR Inten    --    529.4732                81.2736                83.1345

                     94                     95                     96
                      A                      A                      A
 Frequencies --   3051.7435              3052.7205              3053.4578
 Red. masses --      1.0688                 1.0668                 1.0397
 Frc consts  --      5.8647                 5.8576                 5.7114
 IR Inten    --     10.9568                21.9957                35.5385

                     97                     98                     99
                      A                      A                      A
 Frequencies --   3058.9502              3060.2478              3065.8003
 Red. masses --      1.0500                 1.0351                 1.0619
 Frc consts  --      5.7885                 5.7113                 5.8805
 IR Inten    --     35.0935                48.7400                20.8756

                    100                    101                    102
                      A                      A                      A
 Frequencies --   3086.8576              3090.0585              3107.6434
 Red. masses --      1.0882                 1.0880                 1.0995
 Frc consts  --      6.1095                 6.1207                 6.2561
 IR Inten    --     32.8671                45.4558                23.2490

                    103                    104                    105
                      A                      A                      A
 Frequencies --   3113.4440              3115.8751              3116.5704
 Red. masses --      1.1027                 1.1025                 1.1022
 Frc consts  --      6.2976                 6.3065                 6.3075
 IR Inten    --     22.6224                36.1721                45.5106

                    106                    107                    108
                      A                      A                      A
 Frequencies --   3135.6525              3141.1673              3159.4756
 Red. masses --      1.1065                 1.0864                 1.0993
 Frc consts  --      6.4099                 6.3154                 6.4656
 IR Inten    --     15.8437                10.6776                 1.4659

                    109                    110                    111
                      A                      A                      A
 Frequencies --   3162.7997              3179.5250              3507.8602
 Red. masses --      1.0988                 1.1038                 1.0748
 Frc consts  --      6.4759                 6.5745                 7.7925
 IR Inten    --     16.2633                 8.0566                 0.1633

 - Thermochemistry -
 -------------------
 Temperature   298.150 Kelvin.  Pressure   1.00000 Atm.
 Atom     1 has atomic number  6 and mass  12.00000

 Molecular mass:   268.15354 amu.
 Principal axes and moments of inertia in atomic units:
                           1         2         3
     Eigenvalues --  2398.391167558.629098775.01542
           X            0.99997   0.00746   0.00222
           Y           -0.00744   0.99995  -0.00674
           Z           -0.00227   0.00673   0.99997
 This molecule is an asymmetric top.
 Rotational symmetry number  1.
 Warning -- assumption of classical behavior for rotation
           may cause significant error
 Rotational temperatures (Kelvin)      0.03611     0.01146     0.00987
 Rotational constants (GHZ):           0.75248     0.23877     0.20567
 Zero-point vibrational energy     874616.2 (Joules/Mol)
                                  209.03828 (Kcal/Mol)
 Warning -- explicit consideration of  28 degrees of freedom as
           vibrations may cause significant error
 Vibrational temperatures:     24.24    66.47    70.19   134.37   147.22
          (Kelvin)            178.55   199.43   232.26   245.76   269.21
                              297.08   311.13   328.59   348.02   360.65
                              391.73   423.15   436.23   482.80   541.23
                              557.30   604.17   635.55   665.93   698.98
                              723.60   732.99   835.63   907.19   975.88
                             1014.54  1055.28  1065.46  1128.23  1138.87
                             1197.77  1205.64  1247.02  1263.35  1272.89
                             1328.22  1358.28  1367.94  1391.40  1413.04
                             1437.70  1508.22  1520.47  1544.64  1586.49
                             1598.99  1641.41  1649.31  1664.27  1670.74
                             1691.72  1734.43  1745.54  1767.29  1824.25
                             1865.86  1877.37  1904.01  1950.39  1964.84
                             1972.12  1976.80  1992.48  2016.54  2037.66
                             2043.43  2043.71  2063.40  2082.33  2101.35
                             2115.78  2155.61  2161.43  2166.28  2180.88
                             2181.35  2188.81  2192.04  2200.47  2208.89
                             2210.16  2214.78  2223.94  2245.26  2261.20
                             2328.96  4217.10  4234.77  4390.78  4392.18
                             4393.24  4401.15  4403.01  4411.00  4441.30
                             4445.91  4471.21  4479.55  4483.05  4484.05
                             4511.50  4519.44  4545.78  4550.56  4574.63
                             5047.03

 Zero-point correction=                           0.333124 (Hartree/Particle)
 Thermal correction to Energy=                    0.351562
 Thermal correction to Enthalpy=                  0.352507
 Thermal correction to Gibbs Free Energy=         0.286089
 Sum of electronic and zero-point Energies=           -913.623527
 Sum of electronic and thermal Energies=              -913.605088
 Sum of electronic and thermal Enthalpies=            -913.604144
 Sum of electronic and thermal Free Energies=         -913.670562

                     E (Thermal)             CV                S
                      KCal/Mol        Cal/Mol-Kelvin    Cal/Mol-Kelvin
 Total                  220.609             69.968            139.788
 Electronic               0.000              0.000              0.000
 Translational            0.889              2.981             42.658
 Rotational               0.889              2.981             33.431
 Vibrational            218.831             64.007             63.699
 Vibration     1          0.593              1.986              6.975
 Vibration     2          0.595              1.979              4.974
 Vibration     3          0.595              1.978              4.866
 Vibration     4          0.602              1.954              3.588
 Vibration     5          0.604              1.947              3.410
 Vibration     6          0.610              1.929              3.036
 Vibration     7          0.614              1.915              2.823
 Vibration     8          0.622              1.890              2.533
 Vibration     9          0.626              1.878              2.427
 Vibration    10          0.632              1.858              2.256
 Vibration    11          0.641              1.831              2.075
 Vibration    12          0.645              1.816              1.990
 Vibration    13          0.651              1.798              1.892
 Vibration    14          0.658              1.776              1.789
 Vibration    15          0.663              1.762              1.726
 Vibration    16          0.675              1.724              1.582
 Vibration    17          0.689              1.685              1.450
 Vibration    18          0.695              1.668              1.399
 Vibration    19          0.717              1.604              1.233
 Vibration    20          0.747              1.521              1.055
 Vibration    21          0.756              1.497              1.010
 Vibration    22          0.783              1.427              0.892
 Vibration    23          0.801              1.379              0.821
 Vibration    24          0.820              1.332              0.758
 Vibration    25          0.842              1.282              0.695
 Vibration    26          0.858              1.244              0.651
 Vibration    27          0.865              1.229              0.635
 Vibration    28          0.937              1.073              0.484

 Optimization completed.
    -- Stationary point found.
 Normal termination of Gaussian 16 at Sat Dec 12 10:31:31 2020.

 ----------------------------------------------------------------------
 # B3LYP/6-311++G(d,p) empiricaldispersion=gd3bj scf=xqc pop=npa geom=c
 heck
 ----------------------------------------------------------------------

 --------------------------------------
 CID_66011752_JID_9527_Energie_neutraal
 --------------------------------------
 Structure from the checkpoint file:  "JID_9527.chk"
 Charge =  0 Multiplicity = 1

 SCF Done:  E(RB3LYP) =  -914.211451231     A.U. after   16 cycles
 Normal termination of Gaussian 16 at Sat Dec 12 10:41:59 2020.

 ----------------------------------------------------------------------
 # B3LYP/6-311++G(d,p) empiricaldispersion=gd3bj scf=xqc pop=npa geom=c
 heck
 ----------------------------------------------------------------------

 ------------------------------------
 CID_66011752_JID_9527_Energie_kation
 ------------------------------------
 Structure from the checkpoint file:  "JID_9527.chk"
 Charge =  1 Multiplicity = 2

 SCF Done:  E(UB3LYP) =  -913.896638425     A.U. after   27 cycles
 Normal termination of Gaussian 16 at Sat Dec 12 11:08:10 2020.
 Gaussian 16:  ES64L-G16RevA.03 25-Dec-2016

 ----------------------------------------------------------------------
 # B3LYP/6-311++G(d,p) empiricaldispersion=gd3bj scf=xqc pop=npa geom=c
 heck
 ----------------------------------------------------------------------

 -----------------------------------
 CID_66011752_JID_9527_Energie_anion
 -----------------------------------
 Structure from the checkpoint file:  "JID_9527.chk"
 Charge = -1 Multiplicity = 2

                         Standard orientation:
 ---------------------------------------------------------------------
 Center     Atomic      Atomic             Coordinates (Angstroms)
 Number     Number       Type             X           Y           Z
 ---------------------------------------------------------------------
      1          6           0        3.929538    0.266320    1.665548
      2          6           0        3.607207    0.833965    0.272985
      3          6           0        4.489108    0.219650   -0.827669
      4          6           0        2.137612    0.753069   -0.054737
      5          7           0        1.486706    1.892779   -0.255520
      6          7           0        0.185342    1.561058   -0.515385
      7          6           0       -0.020123    0.231192   -0.506544
      8          6           0        1.230068   -0.345586   -0.204671
      9          7           0        1.488311   -1.739370   -0.156245
     10          8           0        2.634834   -2.125641    0.100915
     11          8           0        0.548362   -2.516337   -0.387612
     12          8           0       -1.223706   -0.253803   -0.813185
     13          6           0       -1.948368   -0.999327    0.216086
     14          6           0       -3.233861   -1.469130   -0.454687
     15          6           0       -4.183786   -0.296177   -0.730941
     16          6           0       -4.415436    0.517776    0.544441
     17          7           0       -3.127266    0.991041    1.062336
     18          6           0       -2.241932   -0.113861    1.426063
     19          6           0       -0.794800    2.591339   -0.814603
     20          1           0        3.733536   -0.807068    1.706775
     21          1           0        3.330613    0.763349    2.436935
     22          1           0        4.987398    0.433271    1.898230
     23          1           0        3.807700    1.912092    0.296412
     24          1           0        4.321667   -0.855937   -0.911948
     25          1           0        4.279910    0.684868   -1.797183
     26          1           0        5.546117    0.387506   -0.591438
     27          1           0       -1.325932   -1.845563    0.509942
     28          1           0       -2.982154   -2.007445   -1.373700
     29          1           0       -3.715701   -2.187087    0.222035
     30          1           0       -3.748357    0.355790   -1.495565
     31          1           0       -5.140935   -0.666464   -1.115135
     32          1           0       -5.044033    1.389822    0.335237
     33          1           0       -4.953832   -0.110085    1.281511
     34          1           0       -3.275048    1.586883    1.873323
     35          1           0       -2.671701   -0.776029    2.202491
     36          1           0       -1.309221    0.295203    1.829878
     37          1           0       -1.759347    2.285542   -0.400319
     38          1           0       -0.445168    3.511771   -0.346138
     39          1           0       -0.874441    2.741901   -1.896207
 ---------------------------------------------------------------------

 SCF Done:  E(UB3LYP) =  -914.229556602     A.U. after   33 cycles
 SCF Done:  E(UB3LYP) =  -914.229556602     a.u. after    1 cycles

 The electronic state is 2-A.
 Alpha  occ. eigenvalues --  -19.03376 -18.93850 -18.93828 -14.31413 -14.26161
 Alpha  occ. eigenvalues --  -14.21193 -14.20186 -10.13072 -10.11661 -10.10656
 Alpha  occ. eigenvalues --  -10.09931 -10.09550 -10.07642 -10.07320 -10.07253
 Alpha  occ. eigenvalues --  -10.06741 -10.06119 -10.03701 -10.03628  -1.01938
 Alpha  occ. eigenvalues --   -0.96552  -0.91368  -0.84428  -0.82422  -0.73635
 Alpha  occ. eigenvalues --   -0.70049  -0.67298  -0.66853  -0.65272  -0.60260
 Alpha  occ. eigenvalues --   -0.56482  -0.55283  -0.54687  -0.53058  -0.48849
 Alpha  occ. eigenvalues --   -0.48022  -0.43682  -0.42451  -0.42174  -0.40219
 Alpha  occ. eigenvalues --   -0.38047  -0.36929  -0.36244  -0.35118  -0.34853
 Alpha  occ. eigenvalues --   -0.34463  -0.33419  -0.32951  -0.32781  -0.31890
 Alpha  occ. eigenvalues --   -0.31000  -0.30734  -0.29876  -0.29698  -0.28856
 Alpha  occ. eigenvalues --   -0.27960  -0.26362  -0.25473  -0.25111  -0.23874
 Alpha  occ. eigenvalues --   -0.23063  -0.22783  -0.22206  -0.20964  -0.19690
 Alpha  occ. eigenvalues --   -0.16611  -0.14470  -0.13138  -0.12601  -0.12233
 Alpha  occ. eigenvalues --   -0.11439  -0.09662   0.03796
 Alpha virt. eigenvalues --    0.05261   0.07413   0.07651   0.08394   0.08961
 Alpha virt. eigenvalues --    0.09821   0.10460   0.10596   0.10914   0.11367
 Alpha virt. eigenvalues --    0.11966   0.12094   0.12636   0.13340   0.13837

  Beta  occ. eigenvalues --  -19.03349 -18.93372 -18.93355 -14.30568 -14.26128
  Beta  occ. eigenvalues --  -14.21185 -14.20227 -10.12844 -10.11629 -10.10642
  Beta  occ. eigenvalues --  -10.09922 -10.09553 -10.07639 -10.07318 -10.07151
  Beta  occ. eigenvalues --  -10.06831 -10.06126 -10.03689 -10.03617  -1.00719
  Beta  occ. eigenvalues --   -0.96405  -0.91310  -0.83506  -0.82400  -0.73563
  Beta  occ. eigenvalues --   -0.69982  -0.67141  -0.66836  -0.65119  -0.59900
  Beta  occ. eigenvalues --   -0.56459  -0.55255  -0.54440  -0.52774  -0.48601
  Beta  occ. eigenvalues --   -0.47953  -0.43571  -0.42293  -0.42015  -0.40065
  Beta  occ. eigenvalues --   -0.37737  -0.36904  -0.35825  -0.34868  -0.34489
  Beta  occ. eigenvalues --   -0.33230  -0.33015  -0.32774  -0.31776  -0.31542
  Beta  occ. eigenvalues --   -0.30859  -0.30633  -0.29681  -0.29538  -0.28496
  Beta  occ. eigenvalues --   -0.27676  -0.26243  -0.25370  -0.25093  -0.23828
  Beta  occ. eigenvalues --   -0.23011  -0.22739  -0.22158  -0.20948  -0.19623
  Beta  occ. eigenvalues --   -0.16556  -0.14439  -0.12213  -0.11815  -0.10840
  Beta  occ. eigenvalues --   -0.09849  -0.09205
  Beta virt. eigenvalues --    0.05599   0.07532   0.07648   0.08370   0.08952
  Beta virt. eigenvalues --    0.09736   0.10255   0.10435   0.10853   0.11326
  Beta virt. eigenvalues --    0.11755   0.11895   0.12025   0.12761   0.13235

 Mulliken charges and spin densities:
               1          2
     1  C   -0.627935  -0.040871
     2  C    0.116919  -0.022330
     3  C   -0.655006  -0.014344
     4  C    0.641558   0.071795
     5  N   -0.137991  -0.028396
     6  N    0.175064   0.011642
     7  C   -0.222748   0.149663
     8  C   -0.310159  -0.040197
     9  N   -0.533110   0.263324
    10  O   -0.175348   0.192854
    11  O   -0.112865   0.184875
    12  O   -0.067696  -0.006883
    13  C    0.187356   0.158513
    14  C   -0.410627  -0.140283
    15  C   -0.250898   0.030272
    16  C    0.086942  -0.464434
    17  N   -0.200088   0.055834
    18  C   -0.567403  -0.266627
    19  C   -0.360647  -0.009731
    20  H    0.151186   0.034916
    21  H    0.104237   0.009879
    22  H    0.111061   0.003753
    23  H    0.168356  -0.000226
    24  H    0.168619   0.021279
    25  H    0.120435   0.000795
    26  H    0.111171   0.002416
    27  H    0.250902   0.046543
    28  H    0.185415   0.001448
    29  H    0.105192   0.023241
    30  H    0.169417  -0.013996
    31  H    0.042913   0.110141
    32  H   -0.187072   0.342115
    33  H    0.030747   0.083143
    34  H    0.081296   0.165120
    35  H    0.035654   0.090117
    36  H    0.233793  -0.009508
    37  H    0.256726  -0.008661
    38  H    0.133331   0.010684
    39  H    0.151304   0.002124
 Sum of Mulliken charges =  -1.00000   1.00000

 Dipole moment (field-independent basis, Debye):
    X=             -4.9525    Y=              4.9161    Z=              0.7418  Tot=              7.0175
 Quadrupole moment (field-independent basis, Debye-Ang):
   XX=           -163.9088   YY=           -152.1776   ZZ=           -125.2542
   XY=             12.8189   XZ=              0.9300   YZ=             -2.4899

 Summary of Natural Population Analysis:

                                       Natural Population
                Natural  -----------------------------------------------
    Atom  No    Charge         Core      Valence    Rydberg      Total
 -----------------------------------------------------------------------
      C    1   -0.28361      0.99965     2.27955    0.00441     3.28361
      C    2   -0.12220      0.99958     2.11381    0.00881     3.12220
      C    3   -0.28338      0.99965     2.27928    0.00445     3.28338
      C    4    0.11075      0.99955     1.87457    0.01514     2.88925
      N    5   -0.18353      0.99970     2.67251    0.01133     3.68353
      N    6   -0.11811      0.99961     2.60675    0.01175     3.61811
      C    7    0.29813      0.99938     1.68540    0.01710     2.70187
      C    8   -0.04420      0.99933     2.03228    0.01258     3.04420
      N    9    0.33201      0.99968     2.14338    0.02493     3.16799
      O   10   -0.20489      0.99990     3.19733    0.00766     4.20489
      O   11   -0.21514      0.99990     3.20768    0.00755     4.21514
      O   12   -0.28400      0.99984     3.27462    0.00954     4.28400
      C   13    0.05808      0.99950     1.92825    0.01416     2.94192
      C   14   -0.19724      0.99960     2.18955    0.00808     3.19724
      C   15   -0.19797      0.99963     2.18886    0.00948     3.19797
      C   16   -0.08721      0.99963     2.07574    0.01184     3.08721
      N   17   -0.34461      0.99974     2.83291    0.01196     3.84461
      C   18   -0.10353      0.99959     2.09228    0.01165     3.10353
      C   19   -0.18201      0.99965     2.17564    0.00672     3.18201
      H   20    0.11746      0.00000     0.38154    0.00100     0.38254
      H   21    0.09375      0.00000     0.40517    0.00108     0.40625
      H   22    0.08757      0.00000     0.41160    0.00083     0.41243
      H   23    0.09536      0.00000     0.40259    0.00205     0.40464
      H   24    0.11764      0.00000     0.38136    0.00100     0.38236
      H   25    0.09446      0.00000     0.40478    0.00075     0.40554
      H   26    0.08723      0.00000     0.41189    0.00088     0.41277
      H   27    0.11847      0.00000     0.37991    0.00163     0.38153
      H   28    0.10927      0.00000     0.38973    0.00099     0.39073
      H   29    0.09619      0.00000     0.40274    0.00107     0.40381
      H   30    0.10320      0.00000     0.39559    0.00121     0.39680
      H   31    0.09571      0.00000     0.40345    0.00084     0.40429
      H   32    0.09446      0.00000     0.40452    0.00102     0.40554
      H   33    0.07435      0.00000     0.42421    0.00145     0.42565
      H   34    0.17383      0.00000     0.32384    0.00234     0.32617
      H   35    0.08227      0.00000     0.41642    0.00131     0.41773
      H   36    0.10482      0.00000     0.39408    0.00110     0.39518
      H   37    0.11660      0.00000     0.38167    0.00173     0.38340
      H   38    0.10013      0.00000     0.39858    0.00129     0.39987
      H   39    0.08986      0.00000     0.40899    0.00115     0.41014
 =======================================================================
   * Total *    0.00000     18.99309    52.77305    0.23385    72.00000

 Normal termination of Gaussian 16 at Sat Dec 12 11:40:34 2020.
