 Gaussian 16, Revision A.03,

 -----------------------------------------------------------
 # opt freq B3LYP/6-31G(d) empiricaldispersion=gd3bj scf=xqc
 -----------------------------------------------------------

 ------------------------------
 CID_14593445_JID_7762_neutraal
 ------------------------------
 Symbolic Z-matrix:
 Charge =  0 Multiplicity = 1

 SCF Done:  E(RB3LYP) =  -1393.72637688     A.U. after   15 cycles
 SCF Done:  E(RB3LYP) =  -1393.73141387     A.U. after   12 cycles
 SCF Done:  E(RB3LYP) =  -1393.73265472     A.U. after   12 cycles
 SCF Done:  E(RB3LYP) =  -1393.73307402     A.U. after   12 cycles
 SCF Done:  E(RB3LYP) =  -1393.73311465     A.U. after   10 cycles
 SCF Done:  E(RB3LYP) =  -1393.73312643     A.U. after   10 cycles
 SCF Done:  E(RB3LYP) =  -1393.73312756     A.U. after    8 cycles
 SCF Done:  E(RB3LYP) =  -1393.73312766     A.U. after    7 cycles
 Optimization completed.
    -- Stationary point found.
 Normal termination of Gaussian 16 at Mon Dec 14 13:14:13 2020.

 --------------------------------------------------------------------
 #N Geom=AllCheck Guess=TCheck SCRF=Check GenChk RB3LYP/6-31G(d) Freq
 --------------------------------------------------------------------

 Structure from the checkpoint file:  "JID_7762.chk"
 ------------------------------
 CID_14593445_JID_7762_neutraal
 ------------------------------
 Charge =  0 Multiplicity = 1

 SCF Done:  E(RB3LYP) =  -1393.73312767     A.U. after    1 cycles

  Exact polarizability: 252.872  -5.215 164.442   1.196  -7.960 126.823
 Approx polarizability: 371.618 -14.516 267.993   7.216 -21.820 214.507

                      1                      2                      3
                      A                      A                      A
 Frequencies --     51.6987                61.0855                87.7304
 Red. masses --      6.3339                 4.0846                 3.6599
 Frc consts  --      0.0100                 0.0090                 0.0166
 IR Inten    --      0.9469                 1.2881                 0.6233

                      4                      5                      6
                      A                      A                      A
 Frequencies --    121.6211               137.5280               164.9858
 Red. masses --      8.9632                 6.8963                 5.2867
 Frc consts  --      0.0781                 0.0769                 0.0848
 IR Inten    --      5.3645                 3.7758                 1.4120

                      7                      8                      9
                      A                      A                      A
 Frequencies --    191.6944               211.8233               226.3469
 Red. masses --      3.3065                 4.3135                 1.9806
 Frc consts  --      0.0716                 0.1140                 0.0598
 IR Inten    --      0.6057                 0.9915                 0.9548

                     10                     11                     12
                      A                      A                      A
 Frequencies --    250.9798               259.5880               286.1617
 Red. masses --      1.3699                 2.1515                 1.4868
 Frc consts  --      0.0508                 0.0854                 0.0717
 IR Inten    --      0.7216                 0.7384                 0.8350

                     13                     14                     15
                      A                      A                      A
 Frequencies --    309.2361               319.1428               340.8825
 Red. masses --      3.4931                 3.7713                 2.4109
 Frc consts  --      0.1968                 0.2263                 0.1651
 IR Inten    --      0.3723                 1.2117                 0.5872

                     16                     17                     18
                      A                      A                      A
 Frequencies --    352.0792               406.3430               429.5895
 Red. masses --      4.3748                 5.4086                 3.5226
 Frc consts  --      0.3195                 0.5262                 0.3830
 IR Inten    --      0.5893                 0.2649                 0.1035

                     19                     20                     21
                      A                      A                      A
 Frequencies --    441.9420               457.6428               473.9563
 Red. masses --      3.3022                 3.7818                 3.9443
 Frc consts  --      0.3800                 0.4667                 0.5220
 IR Inten    --      1.9889                 1.4613                 2.9591

                     22                     23                     24
                      A                      A                      A
 Frequencies --    477.7751               520.1264               547.9912
 Red. masses --      4.8134                 3.3538                 5.7501
 Frc consts  --      0.6474                 0.5346                 1.0174
 IR Inten    --      1.5323                 0.7826                 0.7013

                     25                     26                     27
                      A                      A                      A
 Frequencies --    580.5769               609.8214               660.6099
 Red. masses --      4.8285                 4.0123                 5.5276
 Frc consts  --      0.9589                 0.8791                 1.4213
 IR Inten    --      0.3617                 4.5087                 0.4459

                     28                     29                     30
                      A                      A                      A
 Frequencies --    684.9933               696.2362               729.5204
 Red. masses --      5.7451                 3.6144                 4.5962
 Frc consts  --      1.5883                 1.0323                 1.4412
 IR Inten    --      2.7952                 1.0597                 5.5049

                     31                     32                     33
                      A                      A                      A
 Frequencies --    746.1696               806.8106               827.6767
 Red. masses --      6.6534                 3.0648                 3.4248
 Frc consts  --      2.1826                 1.1754                 1.3823
 IR Inten    --      0.8992                14.2492                 6.7273

                     34                     35                     36
                      A                      A                      A
 Frequencies --    858.8078               878.2609               894.6182
 Red. masses --      1.7647                 2.0154                 2.2660
 Frc consts  --      0.7668                 0.9159                 1.0685
 IR Inten    --      4.2805                 3.9376                 6.4226

                     37                     38                     39
                      A                      A                      A
 Frequencies --    908.2355               924.9804               935.2716
 Red. masses --      1.6037                 3.4160                 2.0220
 Frc consts  --      0.7794                 1.7220                 1.0421
 IR Inten    --      5.3183                13.6323                 2.8210

                     40                     41                     42
                      A                      A                      A
 Frequencies --    950.5119               969.6837               972.0615
 Red. masses --      3.9428                 1.3455                 1.3566
 Frc consts  --      2.0988                 0.7454                 0.7553
 IR Inten    --      8.6314                 0.5020                 0.1435

                     43                     44                     45
                      A                      A                      A
 Frequencies --    987.6301               997.5098              1003.2739
 Red. masses --      1.6055                 2.0420                 1.8124
 Frc consts  --      0.9227                 1.1971                 1.0748
 IR Inten    --      7.1963                 1.2970                 3.4077

                     46                     47                     48
                      A                      A                      A
 Frequencies --   1047.3456              1121.5825              1140.9339
 Red. masses --      1.4267                 2.4425                 1.0493
 Frc consts  --      0.9220                 1.8103                 0.8048
 IR Inten    --      2.8031                 0.8240                 3.0884

                     49                     50                     51
                      A                      A                      A
 Frequencies --   1150.7334              1169.9505              1183.7995
 Red. masses --      1.4742                 1.4694                 1.4075
 Frc consts  --      1.1501                 1.1850                 1.1621
 IR Inten    --      0.5801                 1.0690                 0.1745

                     52                     53                     54
                      A                      A                      A
 Frequencies --   1207.0600              1222.2501              1250.3883
 Red. masses --      2.0330                 2.2602                 2.4434
 Frc consts  --      1.7452                 1.9894                 2.2508
 IR Inten    --      6.4229                 6.8254                 0.8636

                     55                     56                     57
                      A                      A                      A
 Frequencies --   1271.9119              1275.0233              1295.8110
 Red. masses --      2.0957                 4.2696                 1.3095
 Frc consts  --      1.9975                 4.0895                 1.2955
 IR Inten    --      4.7593                 0.8048                 5.5440

                     58                     59                     60
                      A                      A                      A
 Frequencies --   1306.4269              1335.2716              1341.3542
 Red. masses --      1.5754                 1.2638                 1.6431
 Frc consts  --      1.5842                 1.3276                 1.7418
 IR Inten    --      0.6990                18.5728                 5.0405

                     61                     62                     63
                      A                      A                      A
 Frequencies --   1355.5294              1426.2720              1445.7204
 Red. masses --      8.4497                 1.2548                 1.2261
 Frc consts  --      9.1476                 1.5039                 1.5099
 IR Inten    --      3.2072                 7.4166                11.4160

                     64                     65                     66
                      A                      A                      A
 Frequencies --   1466.8597              1493.8814              1506.0448
 Red. masses --      3.9265                 1.0812                 1.1358
 Frc consts  --      4.9777                 1.4216                 1.5178
 IR Inten    --      6.6203                 4.7515                 3.7080

                     67                     68                     69
                      A                      A                      A
 Frequencies --   1508.9390              1518.4722              1525.6705
 Red. masses --      1.1013                 1.1500                 1.2421
 Frc consts  --      1.4775                 1.5624                 1.7035
 IR Inten    --      0.5821                 8.1434                 3.1054

                     70                     71                     72
                      A                      A                      A
 Frequencies --   1529.6196              1536.2385              1546.0723
 Red. masses --      1.5529                 1.0718                 1.0526
 Frc consts  --      2.1407                 1.4903                 1.4825
 IR Inten    --     16.4192                 1.1315                10.8737

                     73                     74                     75
                      A                      A                      A
 Frequencies --   1627.0947              1667.2097              2349.2103
 Red. masses --      6.9161                 6.5127                12.6805
 Frc consts  --     10.7879                10.6658                41.2316
 IR Inten    --      3.8074                 5.7492                49.1139

                     76                     77                     78
                      A                      A                      A
 Frequencies --   3045.6062              3053.1775              3059.3829
 Red. masses --      1.0639                 1.0362                 1.0377
 Frc consts  --      5.8145                 5.6912                 5.7226
 IR Inten    --     13.5019                20.5759                17.9899

                     79                     80                     81
                      A                      A                      A
 Frequencies --   3077.0456              3083.0615              3099.5442
 Red. masses --      1.0565                 1.0580                 1.0984
 Frc consts  --      5.8937                 5.9250                 6.2171
 IR Inten    --     13.8875                36.0439                17.2729

                     82                     83                     84
                      A                      A                      A
 Frequencies --   3114.6991              3122.7814              3127.4502
 Red. masses --      1.1017                 1.1015                 1.1086
 Frc consts  --      6.2973                 6.3288                 6.3887
 IR Inten    --     13.6173                35.7733                 0.4426

                     85                     86                     87
                      A                      A                      A
 Frequencies --   3138.3303              3143.0664              3143.3887
 Red. masses --      1.1019                 1.1053                 1.1046
 Frc consts  --      6.3944                 6.4331                 6.4305
 IR Inten    --      9.5079                10.1957                25.1674

                     88                     89                     90
                      A                      A                      A
 Frequencies --   3210.4448              3211.5221              3225.5467
 Red. masses --      1.0892                 1.0908                 1.0952
 Frc consts  --      6.6142                 6.6288                 6.7132
 IR Inten    --      4.5832                 1.8450                 4.6518

 - Thermochemistry -
 -------------------
 Temperature   298.150 Kelvin.  Pressure   1.00000 Atm.
 Atom     1 has atomic number  6 and mass  12.00000

 Molecular mass:   261.06459 amu.
 Principal axes and moments of inertia in atomic units:
                           1         2         3
     Eigenvalues --  2342.786556898.218687628.61632
           X            0.99999   0.00190  -0.00319
           Y           -0.00189   0.99999   0.00395
           Z            0.00320  -0.00395   0.99999
 This molecule is an asymmetric top.
 Rotational symmetry number  1.
 Warning -- assumption of classical behavior for rotation
           may cause significant error
 Rotational temperatures (Kelvin)      0.03697     0.01256     0.01135
 Rotational constants (GHZ):           0.77034     0.26162     0.23658
 Zero-point vibrational energy     678455.7 (Joules/Mol)
                                  162.15480 (Kcal/Mol)
 Warning -- explicit consideration of  26 degrees of freedom as
           vibrations may cause significant error
 Vibrational temperatures:     74.38    87.89   126.22   174.99   197.87
          (Kelvin)            237.38   275.81   304.77   325.66   361.10
                              373.49   411.72   444.92   459.18   490.45
                              506.56   584.64   618.08   635.86   658.45
                              681.92   687.41   748.35   788.44   835.32
                              877.40   950.47   985.55  1001.73  1049.62
                             1073.57  1160.82  1190.84  1235.63  1263.62
                             1287.16  1306.75  1330.84  1345.65  1367.57
                             1395.16  1398.58  1420.98  1435.19  1443.49
                             1506.90  1613.71  1641.55  1655.65  1683.30
                             1703.22  1736.69  1758.55  1799.03  1830.00
                             1834.47  1864.38  1879.66  1921.16  1929.91
                             1950.30  2052.09  2080.07  2110.48  2149.36
                             2166.86  2171.03  2184.74  2195.10  2200.78
                             2210.30  2224.45  2341.03  2398.74  3379.99
                             4381.95  4392.84  4401.77  4427.18  4435.84
                             4459.55  4481.36  4492.99  4499.70  4515.36
                             4522.17  4522.64  4619.11  4620.66  4640.84

 Zero-point correction=                           0.258410 (Hartree/Particle)
 Thermal correction to Energy=                    0.274098
 Thermal correction to Enthalpy=                  0.275043
 Thermal correction to Gibbs Free Energy=         0.216050
 Sum of electronic and zero-point Energies=          -1393.474718
 Sum of electronic and thermal Energies=             -1393.459029
 Sum of electronic and thermal Enthalpies=           -1393.458085
 Sum of electronic and thermal Free Energies=        -1393.517077

                     E (Thermal)             CV                S
                      KCal/Mol        Cal/Mol-Kelvin    Cal/Mol-Kelvin
 Total                  171.999             62.145            124.159
 Electronic               0.000              0.000              0.000
 Translational            0.889              2.981             42.578
 Rotational               0.889              2.981             33.177
 Vibrational            170.222             56.184             48.404
 Vibration     1          0.596              1.977              4.751
 Vibration     2          0.597              1.973              4.422
 Vibration     3          0.601              1.958              3.710
 Vibration     4          0.609              1.931              3.074
 Vibration     5          0.614              1.916              2.838
 Vibration     6          0.623              1.885              2.492
 Vibration     7          0.634              1.851              2.211
 Vibration     8          0.643              1.823              2.028
 Vibration     9          0.650              1.801              1.908
 Vibration    10          0.663              1.761              1.724
 Vibration    11          0.668              1.747              1.665
 Vibration    12          0.684              1.699              1.497
 Vibration    13          0.699              1.656              1.366
 Vibration    14          0.705              1.637              1.314
 Vibration    15          0.720              1.594              1.208
 Vibration    16          0.729              1.571              1.157
 Vibration    17          0.771              1.456              0.940
 Vibration    18          0.791              1.406              0.860
 Vibration    19          0.802              1.379              0.821
 Vibration    20          0.816              1.344              0.773
 Vibration    21          0.831              1.308              0.727
 Vibration    22          0.834              1.299              0.716
 Vibration    23          0.875              1.205              0.610
 Vibration    24          0.903              1.144              0.548
 Vibration    25          0.937              1.073              0.484
 Vibration    26          0.969              1.011              0.433

 Optimization completed.
    -- Stationary point found.
 Normal termination of Gaussian 16 at Mon Dec 14 13:27:28 2020.

 ----------------------------------------------------------------------
 # B3LYP/6-311++G(d,p) empiricaldispersion=gd3bj scf=xqc pop=npa geom=c
 heck
 ----------------------------------------------------------------------

 --------------------------------------
 CID_14593445_JID_7762_Energie_neutraal
 --------------------------------------
 Structure from the checkpoint file:  "JID_7762.chk"
 Charge =  0 Multiplicity = 1

 SCF Done:  E(RB3LYP) =  -1393.93791678     A.U. after   16 cycles
 Normal termination of Gaussian 16 at Mon Dec 14 13:34:50 2020.

 ----------------------------------------------------------------------
 # B3LYP/6-311++G(d,p) empiricaldispersion=gd3bj scf=xqc pop=npa geom=c
 heck
 ----------------------------------------------------------------------

 ------------------------------------
 CID_14593445_JID_7762_Energie_kation
 ------------------------------------
 Structure from the checkpoint file:  "JID_7762.chk"
 Charge =  1 Multiplicity = 2

 SCF Done:  E(UB3LYP) =  -1393.63656581     A.U. after   26 cycles
 Normal termination of Gaussian 16 at Mon Dec 14 13:51:19 2020.
 Gaussian 16:  ES64L-G16RevA.03 25-Dec-2016

 ----------------------------------------------------------------------
 # B3LYP/6-311++G(d,p) empiricaldispersion=gd3bj scf=xqc pop=npa geom=c
 heck
 ----------------------------------------------------------------------

 -----------------------------------
 CID_14593445_JID_7762_Energie_anion
 -----------------------------------
 Structure from the checkpoint file:  "JID_7762.chk"
 Charge = -1 Multiplicity = 2

                         Standard orientation:
 ---------------------------------------------------------------------
 Center     Atomic      Atomic             Coordinates (Angstroms)
 Number     Number       Type             X           Y           Z
 ---------------------------------------------------------------------
      1          6           0        0.827491    2.057587    1.621536
      2          6           0        1.004138    1.606769    0.157382
      3          6           0       -0.276387    2.000756   -0.633178
      4          6           0       -1.237693    0.881153   -0.313077
      5          6           0       -0.534016   -0.248343    0.124955
      6          6           0        0.955454    0.028772    0.075073
      7         16           0        1.535554   -0.656748   -1.565500
      8          6           0        3.200256   -1.138435   -0.995678
      9          6           0        3.014034   -1.851023    0.336814
     10         16           0        1.962347   -0.794972    1.405093
     11          6           0       -1.194600   -1.418220    0.484465
     12          6           0       -2.584524   -1.455342    0.410939
     13          6           0       -3.298410   -0.324354   -0.026703
     14          6           0       -2.623096    0.854230   -0.392650
     15          6           0       -4.728702   -0.371043   -0.091419
     16          7           0       -5.890258   -0.407408   -0.144539
     17          6           0        2.276519    2.229940   -0.408408
     18          1           0       -0.063536    1.616673    2.080273
     19          1           0        0.719559    3.147210    1.656139
     20          1           0        1.696526    1.786653    2.226617
     21          1           0       -0.065428    2.027976   -1.710540
     22          1           0       -0.650468    2.989338   -0.347258
     23          1           0        3.845080   -0.261802   -0.892049
     24          1           0        3.622694   -1.806492   -1.753153
     25          1           0        3.966488   -1.986705    0.859549
     26          1           0        2.544237   -2.826801    0.189705
     27          1           0       -0.632335   -2.280497    0.827872
     28          1           0       -3.129100   -2.349836    0.693480
     29          1           0       -3.188344    1.720227   -0.722314
     30          1           0        2.224661    3.321672   -0.330706
     31          1           0        3.152237    1.898536    0.160542
     32          1           0        2.420339    1.968547   -1.460197
 ---------------------------------------------------------------------

 SCF Done:  E(UB3LYP) =  -1393.94797847     A.U. after   31 cycles

 The electronic state is 2-A.
 Alpha  occ. eigenvalues --  -88.73591 -88.73591 -14.15722 -10.12832 -10.10847
 Alpha  occ. eigenvalues --  -10.10708 -10.09086 -10.06528 -10.06270 -10.05949
 Alpha  occ. eigenvalues --  -10.05917 -10.05254 -10.05113 -10.04837 -10.04070
 Alpha  occ. eigenvalues --  -10.04048 -10.03586  -7.82243  -7.82224  -5.78641
 Alpha  occ. eigenvalues --   -5.78630  -5.78282  -5.78260  -5.77594  -5.77565
 Alpha  occ. eigenvalues --   -0.77639  -0.76111  -0.73255  -0.71105  -0.65347
 Alpha  occ. eigenvalues --   -0.64176  -0.63094  -0.60907  -0.58900  -0.56911
 Alpha  occ. eigenvalues --   -0.52749  -0.49319  -0.47436  -0.47085  -0.42031
 Alpha  occ. eigenvalues --   -0.39435  -0.38442  -0.36485  -0.36133  -0.35217
 Alpha  occ. eigenvalues --   -0.34160  -0.32882  -0.31706  -0.30570  -0.30331
 Alpha  occ. eigenvalues --   -0.29133  -0.28804  -0.27518  -0.26865  -0.25766
 Alpha  occ. eigenvalues --   -0.25003  -0.24277  -0.23688  -0.23260  -0.22762
 Alpha  occ. eigenvalues --   -0.21682  -0.21390  -0.20538  -0.19177  -0.18804
 Alpha  occ. eigenvalues --   -0.13790  -0.12734  -0.12485  -0.11326   0.03956
 Alpha virt. eigenvalues --    0.05837   0.07458   0.08429   0.08753   0.09317
 Alpha virt. eigenvalues --    0.09855   0.10182   0.10329   0.10890   0.11213
 Alpha virt. eigenvalues --    0.12116   0.12291   0.12961   0.13083   0.13665

  Beta  occ. eigenvalues --  -88.73570 -88.73568 -14.15444 -10.12836 -10.10829
  Beta  occ. eigenvalues --  -10.10664 -10.09083 -10.06525 -10.06268 -10.05957
  Beta  occ. eigenvalues --  -10.05913 -10.05170 -10.04947 -10.04813 -10.04011
  Beta  occ. eigenvalues --  -10.03851 -10.03226  -7.82222  -7.82198  -5.78612
  Beta  occ. eigenvalues --   -5.78591  -5.78263  -5.78216  -5.77580  -5.77545
  Beta  occ. eigenvalues --   -0.77414  -0.75700  -0.73089  -0.70869  -0.64970
  Beta  occ. eigenvalues --   -0.64006  -0.62954  -0.60563  -0.58879  -0.56682
  Beta  occ. eigenvalues --   -0.52344  -0.49192  -0.47180  -0.46872  -0.41898
  Beta  occ. eigenvalues --   -0.39271  -0.38369  -0.36373  -0.36054  -0.35125
  Beta  occ. eigenvalues --   -0.34047  -0.32784  -0.31513  -0.30491  -0.30234
  Beta  occ. eigenvalues --   -0.29019  -0.28746  -0.27423  -0.26688  -0.25210
  Beta  occ. eigenvalues --   -0.24652  -0.23936  -0.23575  -0.23049  -0.22548
  Beta  occ. eigenvalues --   -0.21401  -0.21240  -0.19917  -0.18729  -0.18607
  Beta  occ. eigenvalues --   -0.13165  -0.12400  -0.11901  -0.09895
  Beta virt. eigenvalues --    0.06109   0.07399   0.08410   0.08762   0.09273
  Beta virt. eigenvalues --    0.09486   0.09833   0.10137   0.10316   0.10977
  Beta virt. eigenvalues --    0.11312   0.12082   0.12244   0.12877   0.13084

 Mulliken charges and spin densities:
               1          2
     1  C   -0.827002  -0.028533
     2  C    0.704640   0.004434
     3  C   -0.912599   0.024981
     4  C    0.036616  -0.018389
     5  C    0.562268   0.226817
     6  C    0.774140  -0.009411
     7  S   -0.369817   0.087537
     8  C   -0.459263   0.015043
     9  C   -0.153579  -0.486484
    10  S   -0.053682   0.018923
    11  C   -0.298601   0.074762
    12  C   -0.737513   0.043861
    13  C    1.882988   0.211065
    14  C   -0.337047   0.207706
    15  C   -1.688953  -0.088509
    16  N   -0.306844   0.150451
    17  C   -0.524638  -0.072345
    18  H    0.177959   0.000251
    19  H    0.117869  -0.001444
    20  H    0.103482   0.032109
    21  H    0.162038  -0.003667
    22  H    0.152702   0.005274
    23  H    0.140603  -0.005357
    24  H   -0.036055   0.248628
    25  H   -0.114389   0.324479
    26  H    0.164582   0.009085
    27  H    0.102824   0.011228
    28  H    0.156273   0.000435
    29  H    0.154996  -0.013936
    30  H    0.143798  -0.006324
    31  H    0.109761   0.035668
    32  H    0.172447   0.001662
 Sum of Mulliken charges =  -1.00000   1.00000

 Dipole moment (field-independent basis, Debye):
    X=              9.7839    Y=              2.5203    Z=             -0.0453  Tot=             10.1034
 Quadrupole moment (field-independent basis, Debye-Ang):
   XX=           -217.1192   YY=           -127.5409   ZZ=           -133.6036
   XY=             -2.2041   XZ=             -3.5749   YZ=             -1.7173

 Summary of Natural Population Analysis:

                                       Natural Population
                Natural  -----------------------------------------------
    Atom  No    Charge         Core      Valence    Rydberg      Total
 -----------------------------------------------------------------------
      C    1   -0.29140      0.99962     2.28564    0.00614     3.29140
      C    2   -0.03969      0.99952     2.02719    0.01299     3.03969
      C    3   -0.19243      0.99957     2.18493    0.00793     3.19243
      C    4   -0.02348      0.99946     2.01449    0.00952     3.02348
      C    5    0.02306      0.99940     1.96451    0.01303     2.97694
      C    6   -0.14306      0.99942     2.12460    0.01903     3.14306
      S    7    0.11736      4.99955     2.86678    0.01631     7.88264
      C    8   -0.25821      0.99960     2.24636    0.01224     3.25821
      C    9   -0.25478      0.99959     2.24329    0.01189     3.25478
      S   10    0.10732      4.99954     2.87514    0.01800     7.89268
      C   11   -0.08757      0.99951     2.07977    0.00829     3.08757
      C   12   -0.07587      0.99955     2.06745    0.00886     3.07587
      C   13   -0.04418      0.99943     2.03480    0.00995     3.04418
      C   14   -0.04497      0.99949     2.03691    0.00857     3.04497
      C   15    0.14908      0.99964     1.83305    0.01822     2.85092
      N   16   -0.17118      0.99979     2.66022    0.01117     3.67118
      C   17   -0.29099      0.99962     2.28505    0.00633     3.29099
      H   18    0.10968      0.00000     0.38971    0.00061     0.39032
      H   19    0.09559      0.00000     0.40356    0.00085     0.40441
      H   20    0.10411      0.00000     0.39482    0.00107     0.39589
      H   21    0.10379      0.00000     0.39520    0.00101     0.39621
      H   22    0.09912      0.00000     0.39988    0.00101     0.40088
      H   23    0.09978      0.00000     0.39878    0.00143     0.40022
      H   24    0.10813      0.00000     0.39056    0.00131     0.39187
      H   25    0.10484      0.00000     0.39337    0.00180     0.39516
      H   26    0.10011      0.00000     0.39825    0.00164     0.39989
      H   27    0.10045      0.00000     0.39835    0.00120     0.39955
      H   28    0.09708      0.00000     0.40214    0.00078     0.40292
      H   29    0.09536      0.00000     0.40358    0.00106     0.40464
      H   30    0.09627      0.00000     0.40290    0.00083     0.40373
      H   31    0.10107      0.00000     0.39781    0.00112     0.39893
      H   32    0.10560      0.00000     0.39342    0.00098     0.39440
 =======================================================================
   * Total *   -0.00000     24.99229    43.79253    0.21518    69.00000

 Normal termination of Gaussian 16 at Mon Dec 14 14:11:29 2020.
