 Gaussian 16, Revision A.03,

 -----------------------------------------------------------
 # opt freq B3LYP/6-31G(d) empiricaldispersion=gd3bj scf=xqc
 -----------------------------------------------------------

 ------------------------------
 CID_123149562_JID_184_neutraal
 ------------------------------
 Symbolic Z-matrix:
 Charge =  0 Multiplicity = 1

 SCF Done:  E(RB3LYP) =  -425.188062882     A.U. after   13 cycles
 SCF Done:  E(RB3LYP) =  -425.191993513     A.U. after   11 cycles
 SCF Done:  E(RB3LYP) =  -425.192646404     A.U. after   10 cycles
 SCF Done:  E(RB3LYP) =  -425.193239531     A.U. after   11 cycles
 SCF Done:  E(RB3LYP) =  -425.193397878     A.U. after   11 cycles
 SCF Done:  E(RB3LYP) =  -425.193725530     A.U. after   11 cycles
 SCF Done:  E(RB3LYP) =  -425.193958569     A.U. after   10 cycles
 SCF Done:  E(RB3LYP) =  -425.194043950     A.U. after   10 cycles
 SCF Done:  E(RB3LYP) =  -425.194054510     A.U. after    9 cycles
 SCF Done:  E(RB3LYP) =  -425.194073864     A.U. after    9 cycles
 SCF Done:  E(RB3LYP) =  -425.194076025     A.U. after    8 cycles
 SCF Done:  E(RB3LYP) =  -425.194076173     A.U. after    8 cycles
 SCF Done:  E(RB3LYP) =  -425.194076438     A.U. after    7 cycles
 SCF Done:  E(RB3LYP) =  -425.194076472     A.U. after    7 cycles
 Optimization completed.
    -- Stationary point found.

 1\1\GINC-NODE201\FOpt\RB3LYP\6-31G(d)\C8H18N2\VSC10255\08-Dec-2020\0\\
 # opt freq B3LYP/6-31G(d) empiricaldispersion=gd3bj scf=xqc\\CID_12314
 9562_JID_184_neutraal\\0,1\C,0.8465705844,0.1757095253,-0.0514602815\N
 ,0.1274704951,1.3055948621,0.5236804748\C,-1.3094003692,1.0888583346,0
 .6925457695\C,-1.7409428665,-0.0876038284,1.5889615204\C,-1.1477261774
 ,-0.0421060264,3.0113536909\C,-1.5008237658,1.2034328124,3.7784760996\
 C,-2.2819480112,1.1906269342,4.872033354\N,-2.6150358431,2.261688781,5
 .6963301324\C,-3.9343579033,2.215110851,6.3059448724\C,-2.1856974381,3

 Normal termination of Gaussian 16 at Tue Dec  8 10:20:53 2020.

 --------------------------------------------------------------------
 #N Geom=AllCheck Guess=TCheck SCRF=Check GenChk RB3LYP/6-31G(d) Freq
 --------------------------------------------------------------------

 Structure from the checkpoint file:  "JID_184.chk"
 ------------------------------
 CID_123149562_JID_184_neutraal
 ------------------------------
 Charge =  0 Multiplicity = 1

 SCF Done:  E(RB3LYP) =  -425.194076472     A.U. after    1 cycles

  Exact polarizability: 140.366   1.471  90.882   6.095   0.151  79.333
 Approx polarizability: 173.004  -0.978 129.204   6.481   0.174 113.716

                      1                      2                      3
                      A                      A                      A
 Frequencies --     31.6719                39.0437                79.0738
 Red. masses --      3.0917                 3.3488                 2.5362
 Frc consts  --      0.0018                 0.0030                 0.0093
 IR Inten    --      0.2348                 0.0919                 1.1162

                      4                      5                      6
                      A                      A                      A
 Frequencies --     92.7628               149.2818               162.3272
 Red. masses --      2.8935                 2.3406                 2.0829
 Frc consts  --      0.0147                 0.0307                 0.0323
 IR Inten    --      0.7222                11.9834                 0.7975

                      7                      8                      9
                      A                      A                      A
 Frequencies --    216.1399               228.9576               238.5432
 Red. masses --      1.4627                 1.1965                 1.8565
 Frc consts  --      0.0403                 0.0370                 0.0622
 IR Inten    --      0.2347                 1.3668                 1.3791

                     10                     11                     12
                      A                      A                      A
 Frequencies --    256.5214               284.1437               337.6603
 Red. masses --      1.3106                 1.6415                 2.1862
 Frc consts  --      0.0508                 0.0781                 0.1469
 IR Inten    --      0.3000                 1.2256                 6.1097

                     13                     14                     15
                      A                      A                      A
 Frequencies --    358.8194               390.3951               452.5789
 Red. masses --      2.6099                 1.8922                 2.3716
 Frc consts  --      0.1980                 0.1699                 0.2862
 IR Inten    --      2.0547                 6.9275                 2.2022

                     16                     17                     18
                      A                      A                      A
 Frequencies --    463.0092               539.1255               593.2999
 Red. masses --      2.2269                 2.6051                 3.1279
 Frc consts  --      0.2813                 0.4461                 0.6487
 IR Inten    --      2.0468                 0.4259                 5.8152

                     19                     20                     21
                      A                      A                      A
 Frequencies --    734.2200               766.0223               808.8296
 Red. masses --      1.2270                 1.8148                 1.8269
 Frc consts  --      0.3897                 0.6274                 0.7042
 IR Inten    --     75.1969                34.2216                16.4266

                     22                     23                     24
                      A                      A                      A
 Frequencies --    854.2096               885.1855               926.4120
 Red. masses --      3.0118                 2.4326                 2.0658
 Frc consts  --      1.2948                 1.1230                 1.0446
 IR Inten    --     16.3252                18.6893                 3.2435

                     25                     26                     27
                      A                      A                      A
 Frequencies --    976.0086               984.7329              1020.0527
 Red. masses --      1.1861                 1.5117                 1.9001
 Frc consts  --      0.6657                 0.8637                 1.1648
 IR Inten    --     16.1844                11.2895                 2.4787

                     28                     29                     30
                      A                      A                      A
 Frequencies --   1072.5816              1092.4679              1107.1185
 Red. masses --      1.7809                 1.5173                 2.4818
 Frc consts  --      1.2071                 1.0670                 1.7923
 IR Inten    --      8.8164                12.9094                15.5825

                     31                     32                     33
                      A                      A                      A
 Frequencies --   1120.7337              1138.0589              1145.5416
 Red. masses --      1.9258                 1.2610                 1.8153
 Frc consts  --      1.4252                 0.9623                 1.4035
 IR Inten    --    100.0664                 5.0981                 6.5146

                     34                     35                     36
                      A                      A                      A
 Frequencies --   1167.2221              1183.3631              1188.5861
 Red. masses --      1.5019                 1.4039                 1.6059
 Frc consts  --      1.2056                 1.1583                 1.3367
 IR Inten    --     14.8622                33.0096                 5.5953

                     37                     38                     39
                      A                      A                      A
 Frequencies --   1216.6663              1261.1163              1292.1461
 Red. masses --      1.5853                 1.8120                 1.5802
 Frc consts  --      1.3826                 1.6979                 1.5545
 IR Inten    --     23.8286                 8.3233                11.0083

                     40                     41                     42
                      A                      A                      A
 Frequencies --   1339.7296              1344.5474              1369.1316
 Red. masses --      1.2373                 1.3606                 1.7052
 Frc consts  --      1.3085                 1.4492                 1.8833
 IR Inten    --      4.0033                13.6097                66.1355

                     43                     44                     45
                      A                      A                      A
 Frequencies --   1388.5828              1393.8347              1404.7483
 Red. masses --      1.9897                 1.4178                 1.3225
 Frc consts  --      2.2604                 1.6228                 1.5376
 IR Inten    --     51.8989                 4.4583                 1.7397

                     46                     47                     48
                      A                      A                      A
 Frequencies --   1421.8107              1469.9265              1479.8110
 Red. masses --      1.4373                 1.1570                 1.1578
 Frc consts  --      1.7120                 1.4729                 1.4938
 IR Inten    --      8.4759                 2.0690                 0.2282

                     49                     50                     51
                      A                      A                      A
 Frequencies --   1498.6086              1504.1867              1510.5131
 Red. masses --      1.1869                 1.1136                 1.0818
 Frc consts  --      1.5705                 1.4845                 1.4543
 IR Inten    --      5.7041                 6.5438                23.5667

                     52                     53                     54
                      A                      A                      A
 Frequencies --   1511.4806              1516.9298              1517.6147
 Red. masses --      1.0882                 1.0556                 1.0975
 Frc consts  --      1.4648                 1.4311                 1.4893
 IR Inten    --      0.2669                11.1876                 5.9005

                     55                     56                     57
                      A                      A                      A
 Frequencies --   1519.3057              1527.3933              1538.0898
 Red. masses --      1.1028                 1.1030                 1.0548
 Frc consts  --      1.4998                 1.5161                 1.4702
 IR Inten    --     11.3491                10.4508                10.8066

                     58                     59                     60
                      A                      A                      A
 Frequencies --   1549.8304              1551.8866              1741.6678
 Red. masses --      1.0757                 1.0477                 5.1967
 Frc consts  --      1.5224                 1.4867                 9.2877
 IR Inten    --     18.1972                 4.9992               157.5439

                     61                     62                     63
                      A                      A                      A
 Frequencies --   2969.0621              2971.0148              2978.8360
 Red. masses --      1.0585                 1.0570                 1.0593
 Frc consts  --      5.4975                 5.4969                 5.5380
 IR Inten    --     60.1841                50.8503               132.7243

                     64                     65                     66
                      A                      A                      A
 Frequencies --   3004.8494              3032.0575              3041.7341
 Red. masses --      1.0687                 1.0615                 1.0623
 Frc consts  --      5.6854                 5.7495                 5.7909
 IR Inten    --     46.9812                20.0606                49.1015

                     67                     68                     69
                      A                      A                      A
 Frequencies --   3064.1702              3067.7233              3071.5390
 Red. masses --      1.0919                 1.0780                 1.0990
 Frc consts  --      6.0401                 5.9773                 6.1088
 IR Inten    --     28.4184                69.0229                27.5669

                     70                     71                     72
                      A                      A                      A
 Frequencies --   3082.9258              3086.4933              3088.5001
 Red. masses --      1.0762                 1.1023                 1.0752
 Frc consts  --      6.0264                 6.1869                 6.0427
 IR Inten    --     40.5480                84.2836                31.3728

                     73                     74                     75
                      A                      A                      A
 Frequencies --   3112.7725              3127.5969              3134.1268
 Red. masses --      1.1027                 1.1037                 1.1037
 Frc consts  --      6.2948                 6.3608                 6.3873
 IR Inten    --     33.8627                15.2735                32.5891

                     76                     77                     78
                      A                      A                      A
 Frequencies --   3155.7415              3180.5577              3498.1737
 Red. masses --      1.0894                 1.0867                 1.0736
 Frc consts  --      6.3920                 6.4768                 7.7409
 IR Inten    --     20.1523                24.6546                 2.2134

 - Thermochemistry -
 -------------------
 Temperature   298.150 Kelvin.  Pressure   1.00000 Atm.
 Atom     1 has atomic number  6 and mass  12.00000

 Molecular mass:   142.14700 amu.
 Principal axes and moments of inertia in atomic units:
                           1         2         3
     Eigenvalues --   588.991973878.360634100.77741
           X            0.99995   0.00636   0.00820
           Y           -0.00628   0.99994  -0.00885
           Z           -0.00826   0.00880   0.99993
 This molecule is an asymmetric top.
 Rotational symmetry number  1.
 Warning -- assumption of classical behavior for rotation
           may cause significant error
 Rotational temperatures (Kelvin)      0.14705     0.02233     0.02112
 Rotational constants (GHZ):           3.06412     0.46534     0.44010
 Zero-point vibrational energy     679611.3 (Joules/Mol)
                                  162.43100 (Kcal/Mol)
 Warning -- explicit consideration of  18 degrees of freedom as
           vibrations may cause significant error
 Vibrational temperatures:     45.57    56.18   113.77   133.47   214.78
          (Kelvin)            233.55   310.98   329.42   343.21   369.08
                              408.82   485.82   516.26   561.69   651.16
                              666.17   775.68   853.63  1056.38  1102.14
                             1163.73  1229.02  1273.58  1332.90  1404.26
                             1416.81  1467.63  1543.21  1571.82  1592.90
                             1612.49  1637.41  1648.18  1679.37  1702.60
                             1710.11  1750.51  1814.47  1859.11  1927.57
                             1934.50  1969.87  1997.86  2005.42  2021.12
                             2045.67  2114.90  2129.12  2156.16  2164.19
                             2173.29  2174.68  2182.52  2183.51  2185.94
                             2197.58  2212.97  2229.86  2232.82  2505.87
                             4271.82  4274.63  4285.88  4323.31  4362.45
                             4376.38  4408.66  4413.77  4419.26  4435.64
                             4440.78  4443.66  4478.59  4499.91  4509.31
                             4540.41  4576.11  5033.09

 Zero-point correction=                           0.258850 (Hartree/Particle)
 Thermal correction to Energy=                    0.271504
 Thermal correction to Enthalpy=                  0.272448
 Thermal correction to Gibbs Free Energy=         0.219114
 Sum of electronic and zero-point Energies=           -424.935226
 Sum of electronic and thermal Energies=              -424.922573
 Sum of electronic and thermal Enthalpies=            -424.921628
 Sum of electronic and thermal Free Energies=         -424.974962

                     E (Thermal)             CV                S
                      KCal/Mol        Cal/Mol-Kelvin    Cal/Mol-Kelvin
 Total                  170.371             45.392            112.251
 Electronic               0.000              0.000              0.000
 Translational            0.889              2.981             40.766
 Rotational               0.889              2.981             30.617
 Vibrational            168.594             39.430             40.868
 Vibration     1          0.594              1.983              5.722
 Vibration     2          0.594              1.981              5.307
 Vibration     3          0.600              1.963              3.914
 Vibration     4          0.602              1.954              3.601
 Vibration     5          0.618              1.903              2.681
 Vibration     6          0.622              1.889              2.522
 Vibration     7          0.645              1.816              1.991
 Vibration     8          0.652              1.797              1.887
 Vibration     9          0.657              1.782              1.814
 Vibration    10          0.666              1.752              1.685
 Vibration    11          0.683              1.703              1.509
 Vibration    12          0.718              1.600              1.223
 Vibration    13          0.734              1.557              1.127
 Vibration    14          0.758              1.491              0.999
 Vibration    15          0.811              1.355              0.788
 Vibration    16          0.821              1.332              0.757
 Vibration    17          0.894              1.164              0.567
 Vibration    18          0.951              1.046              0.461

 Optimization completed.
    -- Stationary point found.

 1\1\GINC-NODE201\Freq\RB3LYP\6-31G(d)\C8H18N2\VSC10255\08-Dec-2020\0\\
 #N Geom=AllCheck Guess=TCheck SCRF=Check GenChk RB3LYP/6-31G(d) Freq\\
 CID_123149562_JID_184_neutraal\\0,1\C,0.8465705844,0.1757095253,-0.051
 4602815\N,0.1274704951,1.3055948621,0.5236804748\C,-1.3094003692,1.088
 8583346,0.6925457695\C,-1.7409428665,-0.0876038284,1.5889615204\C,-1.1
 477261774,-0.0421060264,3.0113536909\C,-1.5008237658,1.2034328124,3.77
 84760996\C,-2.2819480112,1.1906269342,4.872033354\N,-2.6150358431,2.26
 1688781,5.6963301324\C,-3.9343579033,2.215110851,6.3059448724\C,-2.185

 Normal termination of Gaussian 16 at Tue Dec  8 10:25:24 2020.

 ----------------------------------------------------------------------
 # B3LYP/6-311++G(d,p) empiricaldispersion=gd3bj scf=xqc pop=npa geom=c
 heck
 ----------------------------------------------------------------------

 --------------------------------------
 CID_123149562_JID_184_Energie_neutraal
 --------------------------------------
 Structure from the checkpoint file:  "JID_184.chk"
 Charge =  0 Multiplicity = 1

 SCF Done:  E(RB3LYP) =  -425.320294740     A.U. after   13 cycles
 Normal termination of Gaussian 16 at Tue Dec  8 10:27:27 2020.

 ----------------------------------------------------------------------
 # B3LYP/6-311++G(d,p) empiricaldispersion=gd3bj scf=xqc pop=npa geom=c
 heck
 ----------------------------------------------------------------------

 ------------------------------------
 CID_123149562_JID_184_Energie_kation
 ------------------------------------
 Structure from the checkpoint file:  "JID_184.chk"
 Charge =  1 Multiplicity = 2

 SCF Done:  E(UB3LYP) =  -425.054591206     A.U. after   25 cycles
 Normal termination of Gaussian 16 at Tue Dec  8 10:34:16 2020.
 Gaussian 16:  ES64L-G16RevA.03 25-Dec-2016

 -----------------------------------
 CID_123149562_JID_184_Energie_anion
 -----------------------------------
 Structure from the checkpoint file:  "JID_184.chk"
 Charge = -1 Multiplicity = 2

                         Standard orientation:
 ---------------------------------------------------------------------
 Center     Atomic      Atomic             Coordinates (Angstroms)
 Number     Number       Type             X           Y           Z
 ---------------------------------------------------------------------
      1          6           0       -4.106935    0.336296   -0.502020
      2          7           0       -2.944827    1.006010    0.068523
      3          6           0       -2.214126    0.216014    1.059518
      4          6           0       -1.639770   -1.135799    0.594145
      5          6           0       -0.714166   -1.033744   -0.634682
      6          6           0        0.476231   -0.136855   -0.427156
      7          6           0        1.739611   -0.594474   -0.401783
      8          7           0        2.913682    0.144735   -0.289029
      9          6           0        4.010491   -0.498172    0.416726
     10          6           0        2.779310    1.565485   -0.039951
     11          1           0       -4.810836    0.097925    0.304620
     12          1           0       -3.894902   -0.602127   -1.044356
     13          1           0       -4.613204    1.018120   -1.193814
     14          1           0       -2.312083    1.282846   -0.679149
     15          1           0       -1.397868    0.842871    1.437931
     16          1           0       -2.891666    0.043421    1.906599
     17          1           0       -1.078034   -1.574818    1.429309
     18          1           0       -2.459332   -1.830316    0.366660
     19          1           0       -0.371475   -2.040918   -0.903816
     20          1           0       -1.308553   -0.682162   -1.492416
     21          1           0        0.280454    0.923440   -0.288422
     22          1           0        1.921784   -1.662491   -0.519010
     23          1           0        4.950373    0.011156    0.179043
     24          1           0        3.881743   -0.492598    1.513259
     25          1           0        4.094152   -1.539387    0.090023
     26          1           0        2.166395    2.020686   -0.824318
     27          1           0        2.308281    1.785873    0.934578
     28          1           0        3.768901    2.030757   -0.061970
 ---------------------------------------------------------------------

 SCF Done:  E(UB3LYP) =  -425.304305647     A.U. after   30 cycles

 The electronic state is 2-A.
 Alpha  occ. eigenvalues --  -14.22389 -14.19979 -10.09211 -10.09116 -10.09067
 Alpha  occ. eigenvalues --  -10.08985 -10.08949 -10.06850 -10.06364 -10.05049
 Alpha  occ. eigenvalues --   -0.84015  -0.80566  -0.69554  -0.64402  -0.61635
 Alpha  occ. eigenvalues --   -0.59750  -0.56287  -0.52605  -0.47583  -0.44608
 Alpha  occ. eigenvalues --   -0.40317  -0.39618  -0.36886  -0.36344  -0.35849
 Alpha  occ. eigenvalues --   -0.33706  -0.32415  -0.31181  -0.29782  -0.29039
 Alpha  occ. eigenvalues --   -0.28695  -0.27883  -0.27390  -0.26718  -0.24774
 Alpha  occ. eigenvalues --   -0.24246  -0.23115  -0.19432  -0.12818  -0.09544
 Alpha  occ. eigenvalues --    0.04472
 Alpha virt. eigenvalues --    0.05962   0.07207   0.07935   0.08367   0.08747
 Alpha virt. eigenvalues --    0.09705   0.10315   0.10691   0.10974   0.11349
 Alpha virt. eigenvalues --    0.11925   0.12487   0.13034   0.13307   0.13743

  Beta  occ. eigenvalues --  -14.22385 -14.19971 -10.09200 -10.09067 -10.09060
  Beta  occ. eigenvalues --  -10.08947 -10.08917 -10.06837 -10.06352 -10.05040
  Beta  occ. eigenvalues --   -0.83995  -0.80547  -0.69531  -0.64373  -0.61569
  Beta  occ. eigenvalues --   -0.59706  -0.56229  -0.52548  -0.47536  -0.44553
  Beta  occ. eigenvalues --   -0.40284  -0.39580  -0.36835  -0.36317  -0.35810
  Beta  occ. eigenvalues --   -0.33678  -0.32372  -0.31150  -0.29740  -0.28995
  Beta  occ. eigenvalues --   -0.28656  -0.27839  -0.27355  -0.26687  -0.24745
  Beta  occ. eigenvalues --   -0.24225  -0.23090  -0.19406  -0.12801  -0.09512
  Beta virt. eigenvalues --    0.06467   0.07140   0.07829   0.08324   0.08923
  Beta virt. eigenvalues --    0.09452   0.10213   0.10813   0.11031   0.11343
  Beta virt. eigenvalues --    0.11645   0.12160   0.12861   0.13246   0.13634

 Mulliken charges and spin densities:
               1          2
     1  C    0.658109  -1.090211
     2  N   -0.235195   0.073858
     3  C   -0.518156   0.011009
     4  C    0.350723  -0.497551
     5  C   -0.207269  -0.400691
     6  C    0.103737   0.345654
     7  C   -0.516182  -0.199484
     8  N   -0.108981   0.266937
     9  C    1.219759  -1.541565
    10  C    0.616807  -1.000911
    11  H   -0.173837   0.319156
    12  H   -0.138804   0.259242
    13  H   -0.261669   0.397639
    14  H    0.055235   0.190143
    15  H    0.134330   0.041272
    16  H   -0.106832   0.244553
    17  H   -0.052538   0.186024
    18  H    0.093444   0.049633
    19  H   -0.208735   0.346812
    20  H   -0.053773   0.219372
    21  H    0.326323  -0.170320
    22  H    0.107632   0.028760
    23  H   -0.450864   0.597926
    24  H   -0.255719   0.390950
    25  H   -0.552271   0.673261
    26  H   -0.288311   0.438438
    27  H   -0.035940   0.164996
    28  H   -0.501027   0.655098
 Sum of Mulliken charges =  -1.00000   1.00000

 Dipole moment (field-independent basis, Debye):
    X=             -4.0281    Y=             -0.9783    Z=              0.2026  Tot=              4.1502
 Quadrupole moment (field-independent basis, Debye-Ang):
   XX=           -168.9755   YY=           -102.7675   ZZ=            -96.1694
   XY=              0.5426   XZ=             -5.0331   YZ=              0.7404

 Summary of Natural Population Analysis:

                                       Natural Population
                Natural  -----------------------------------------------
    Atom  No    Charge         Core      Valence    Rydberg      Total
 -----------------------------------------------------------------------
      C    1   -0.17934      0.99966     2.17202    0.00766     3.17934
      N    2   -0.34061      0.99976     2.82785    0.01300     3.84061
      C    3   -0.08870      0.99962     2.07825    0.01082     3.08870
      C    4   -0.19545      0.99962     2.18915    0.00668     3.19545
      C    5   -0.20174      0.99962     2.19272    0.00940     3.20174
      C    6   -0.15159      0.99954     2.14243    0.00963     3.15159
      C    7    0.01972      0.99949     1.96945    0.01135     2.98028
      N    8   -0.25786      0.99970     2.74512    0.01304     3.75786
      C    9   -0.17063      0.99964     2.16228    0.00871     3.17063
      C   10   -0.17960      0.99965     2.17003    0.00992     3.17960
      H   11    0.08947      0.00000     0.40901    0.00152     0.41053
      H   12    0.07843      0.00000     0.41905    0.00252     0.42157
      H   13    0.09356      0.00000     0.40493    0.00151     0.40644
      H   14    0.16932      0.00000     0.32638    0.00431     0.33068
      H   15    0.09490      0.00000     0.40359    0.00151     0.40510
      H   16    0.08937      0.00000     0.40942    0.00121     0.41063
      H   17    0.09785      0.00000     0.40059    0.00155     0.40215
      H   18    0.09318      0.00000     0.40533    0.00149     0.40682
      H   19    0.09893      0.00000     0.39969    0.00138     0.40107
      H   20    0.09394      0.00000     0.40434    0.00172     0.40606
      H   21    0.09336      0.00000     0.40487    0.00177     0.40664
      H   22    0.08989      0.00000     0.40843    0.00167     0.41011
      H   23    0.09721      0.00000     0.40054    0.00225     0.40279
      H   24    0.08447      0.00000     0.41358    0.00194     0.41553
      H   25    0.09738      0.00000     0.40069    0.00193     0.40262
      H   26    0.09842      0.00000     0.40002    0.00157     0.40158
      H   27    0.08628      0.00000     0.41214    0.00158     0.41372
      H   28    0.09985      0.00000     0.39859    0.00156     0.40015
 =======================================================================
   * Total *    0.00000      9.99629    29.87049    0.13322    40.00000

 Normal termination of Gaussian 16 at Tue Dec  8 10:43:05 2020.
