 Gaussian 16, Revision A.03,

 -----------------------------------------------------------
 # opt freq B3LYP/6-31G(d) empiricaldispersion=gd3bj scf=xqc
 -----------------------------------------------------------

 ------------------------------
 CID_46929849_JID_4201_neutraal
 ------------------------------
 Symbolic Z-matrix:
 Charge =  0 Multiplicity = 1

 SCF Done:  E(RB3LYP) =  -614.716913195     A.U. after   13 cycles
 SCF Done:  E(RB3LYP) =  -614.720335107     A.U. after   12 cycles
 SCF Done:  E(RB3LYP) =  -614.718862105     A.U. after   12 cycles
 SCF Done:  E(RB3LYP) =  -614.722588168     A.U. after   12 cycles
 SCF Done:  E(RB3LYP) =  -614.723601826     A.U. after   12 cycles
 SCF Done:  E(RB3LYP) =  -614.724466763     A.U. after   12 cycles
 SCF Done:  E(RB3LYP) =  -614.724667159     A.U. after   13 cycles
 SCF Done:  E(RB3LYP) =  -614.725072920     A.U. after   11 cycles
 SCF Done:  E(RB3LYP) =  -614.725119376     A.U. after   10 cycles
 SCF Done:  E(RB3LYP) =  -614.725164601     A.U. after   10 cycles
 SCF Done:  E(RB3LYP) =  -614.725235897     A.U. after   11 cycles
 SCF Done:  E(RB3LYP) =  -614.725257754     A.U. after    9 cycles
 SCF Done:  E(RB3LYP) =  -614.725262510     A.U. after    9 cycles
 SCF Done:  E(RB3LYP) =  -614.725263758     A.U. after    9 cycles
 SCF Done:  E(RB3LYP) =  -614.725263858     A.U. after    7 cycles
 Optimization completed.
    -- Stationary point found.
 Normal termination of Gaussian 16 at Thu Dec 10 09:35:35 2020.

 --------------------------------------------------------------------
 #N Geom=AllCheck Guess=TCheck SCRF=Check GenChk RB3LYP/6-31G(d) Freq
 --------------------------------------------------------------------

 Structure from the checkpoint file:  "JID_4201.chk"
 ------------------------------
 CID_46929849_JID_4201_neutraal
 ------------------------------
 Charge =  0 Multiplicity = 1

 SCF Done:  E(RB3LYP) =  -614.725263858     A.U. after    1 cycles

  Exact polarizability: 158.273  -7.223 125.593   9.169  18.505 108.463
 Approx polarizability: 219.680 -16.086 192.917  17.486  38.462 165.251

                      1                      2                      3
                      A                      A                      A
 Frequencies --     37.9296                44.7245                63.8445
 Red. masses --      1.0735                 3.1680                 3.1885
 Frc consts  --      0.0009                 0.0037                 0.0077
 IR Inten    --      0.2532                 0.1551                 0.2121

                      4                      5                      6
                      A                      A                      A
 Frequencies --     79.0969               102.4520               109.9523
 Red. masses --      3.8126                 2.7546                 2.7573
 Frc consts  --      0.0141                 0.0170                 0.0196
 IR Inten    --      0.0803                 2.8417                 0.4733

                      7                      8                      9
                      A                      A                      A
 Frequencies --    157.0474               199.9825               207.1377
 Red. masses --      3.4604                 1.6375                 1.5344
 Frc consts  --      0.0503                 0.0386                 0.0388
 IR Inten    --      1.4934                 3.1133                14.6960

                     10                     11                     12
                      A                      A                      A
 Frequencies --    221.9562               237.2633               277.2030
 Red. masses --      2.2157                 1.4107                 1.6706
 Frc consts  --      0.0643                 0.0468                 0.0756
 IR Inten    --      4.2278                16.3240                 3.9259

                     13                     14                     15
                      A                      A                      A
 Frequencies --    288.1323               311.1470               363.7555
 Red. masses --      2.4603                 3.9437                 2.4199
 Frc consts  --      0.1203                 0.2249                 0.1887
 IR Inten    --      2.9802                 3.4582                 7.1796

                     16                     17                     18
                      A                      A                      A
 Frequencies --    373.9542               396.5990               456.8781
 Red. masses --      2.8661                 3.0195                 2.3163
 Frc consts  --      0.2361                 0.2798                 0.2849
 IR Inten    --      0.3995                 0.9243                 6.7697

                     19                     20                     21
                      A                      A                      A
 Frequencies --    467.8928               473.9752               533.7257
 Red. masses --      2.8040                 3.0194                 4.9781
 Frc consts  --      0.3617                 0.3997                 0.8355
 IR Inten    --      1.1109                 6.8024                 1.0134

                     22                     23                     24
                      A                      A                      A
 Frequencies --    540.8717               618.4072               715.6475
 Red. masses --      3.6609                 4.2180                 5.0761
 Frc consts  --      0.6310                 0.9504                 1.5317
 IR Inten    --     11.3121                11.0319                 1.6917

                     25                     26                     27
                      A                      A                      A
 Frequencies --    732.9647               767.1471               806.9361
 Red. masses --      2.2132                 4.4130                 1.6111
 Frc consts  --      0.7006                 1.5302                 0.6181
 IR Inten    --     29.1128                 7.8798                16.0257

                     28                     29                     30
                      A                      A                      A
 Frequencies --    832.6445               854.1920               914.8740
 Red. masses --      3.9692                 3.8356                 1.3591
 Frc consts  --      1.6213                 1.6489                 0.6702
 IR Inten    --     17.4336                 8.8325                 0.3734

                     31                     32                     33
                      A                      A                      A
 Frequencies --    936.3848               956.9312               976.8706
 Red. masses --      3.0438                 1.3303                 2.5050
 Frc consts  --      1.5724                 0.7177                 1.4084
 IR Inten    --     15.2249                 6.5187                12.3550

                     34                     35                     36
                      A                      A                      A
 Frequencies --    978.6410              1016.2353              1023.0399
 Red. masses --      1.3433                 2.0991                 5.9059
 Frc consts  --      0.7580                 1.2773                 3.6419
 IR Inten    --      0.6541                33.0069                 1.5158

                     37                     38                     39
                      A                      A                      A
 Frequencies --   1038.0956              1055.6557              1076.6812
 Red. masses --      1.6967                 2.9320                 1.5203
 Frc consts  --      1.0773                 1.9251                 1.0383
 IR Inten    --      4.9617                15.4794                 9.3638

                     40                     41                     42
                      A                      A                      A
 Frequencies --   1117.1902              1133.3092              1144.6126
 Red. masses --      2.3579                 2.1501                 2.0586
 Frc consts  --      1.7339                 1.6270                 1.5891
 IR Inten    --     27.3544                55.0824                78.6907

                     43                     44                     45
                      A                      A                      A
 Frequencies --   1154.1750              1183.9733              1193.0233
 Red. masses --      1.4328                 1.5589                 1.3226
 Frc consts  --      1.1245                 1.2875                 1.1091
 IR Inten    --      4.3335                21.1051                 5.1893

                     46                     47                     48
                      A                      A                      A
 Frequencies --   1198.4631              1212.1033              1224.4749
 Red. masses --      1.6826                 1.1467                 1.4656
 Frc consts  --      1.4239                 0.9926                 1.2947
 IR Inten    --     29.9550                 2.2216                32.8385

                     49                     50                     51
                      A                      A                      A
 Frequencies --   1233.5640              1271.9084              1313.4866
 Red. masses --      1.4836                 2.5570                 1.8582
 Frc consts  --      1.3302                 2.4372                 1.8888
 IR Inten    --      6.7082                 2.7100                 4.7751

                     52                     53                     54
                      A                      A                      A
 Frequencies --   1335.9702              1364.8335              1378.0083
 Red. masses --      1.4363                 2.1730                 1.6408
 Frc consts  --      1.5104                 2.3849                 1.8357
 IR Inten    --     13.2424                 1.0377                 0.5569

                     55                     56                     57
                      A                      A                      A
 Frequencies --   1407.0928              1418.5258              1439.8181
 Red. masses --      1.2394                 1.3552                 1.4127
 Frc consts  --      1.4458                 1.6067                 1.7255
 IR Inten    --      9.9934                 7.3861                11.1291

                     58                     59                     60
                      A                      A                      A
 Frequencies --   1442.6679              1471.8148              1482.8000
 Red. masses --      1.2974                 1.1697                 1.9599
 Frc consts  --      1.5910                 1.4929                 2.5390
 IR Inten    --      1.6770                 0.6600                 2.7724

                     61                     62                     63
                      A                      A                      A
 Frequencies --   1496.4124              1498.8048              1515.1341
 Red. masses --      1.1207                 1.1203                 1.0557
 Frc consts  --      1.4786                 1.4827                 1.4279
 IR Inten    --      1.9178                 4.2692                 7.3235

                     64                     65                     66
                      A                      A                      A
 Frequencies --   1517.1177              1517.6496              1525.2615
 Red. masses --      1.0634                 1.0497                 1.2955
 Frc consts  --      1.4421                 1.4245                 1.7757
 IR Inten    --      0.2057                 4.7879                 9.0562

                     67                     68                     69
                      A                      A                      A
 Frequencies --   1535.5870              1543.2701              1553.1520
 Red. masses --      1.0537                 1.9787                 1.0553
 Frc consts  --      1.4639                 2.7765                 1.4998
 IR Inten    --      8.5244                 9.8282                 8.2708

                     70                     71                     72
                      A                      A                      A
 Frequencies --   1648.9404              1664.7265              1705.1231
 Red. masses --      5.3264                 5.6046                 1.0676
 Frc consts  --      8.5329                 9.1513                 1.8288
 IR Inten    --      4.6118                 7.5481                15.1636

                     73                     74                     75
                      A                      A                      A
 Frequencies --   2988.3934              2999.5188              3026.1450
 Red. masses --      1.0657                 1.0525                 1.0346
 Frc consts  --      5.6075                 5.5792                 5.5823
 IR Inten    --     22.3080                91.0238                44.0640

                     76                     77                     78
                      A                      A                      A
 Frequencies --   3042.3181              3063.4347              3085.9911
 Red. masses --      1.0394                 1.0855                 1.0870
 Frc consts  --      5.6682                 6.0022                 6.0990
 IR Inten    --     29.9119                31.7193                33.7632

                     79                     80                     81
                      A                      A                      A
 Frequencies --   3087.6082              3097.4306              3098.6781
 Red. masses --      1.1010                 1.0936                 1.0968
 Frc consts  --      6.1842                 6.1820                 6.2049
 IR Inten    --     41.3692                18.1011                19.6983

                     82                     83                     84
                      A                      A                      A
 Frequencies --   3124.0764              3129.0830              3130.7208
 Red. masses --      1.1027                 1.1032                 1.1014
 Frc consts  --      6.3411                 6.3643                 6.3603
 IR Inten    --     18.9016                39.7344                29.3953

                     85                     86                     87
                      A                      A                      A
 Frequencies --   3176.4420              3185.2464              3203.0610
 Red. masses --      1.0861                 1.0902                 1.0962
 Frc consts  --      6.4566                 6.5170                 6.6265
 IR Inten    --      2.3630                22.6799                30.2626

                     88                     89                     90
                      A                      A                      A
 Frequencies --   3218.5946              3408.6722              3502.8141
 Red. masses --      1.0901                 1.0520                 1.0895
 Frc consts  --      6.6537                 7.2017                 7.8763
 IR Inten    --      1.7196                 6.7325                 5.2890

 - Thermochemistry -
 -------------------
 Temperature   298.150 Kelvin.  Pressure   1.00000 Atm.
 Atom     1 has atomic number  6 and mass  12.00000

 Molecular mass:   194.14191 amu.
 Principal axes and moments of inertia in atomic units:
                           1         2         3
     Eigenvalues --  1931.253453671.453174252.16662
           X            0.99999  -0.00289  -0.00355
           Y            0.00305   0.99890   0.04675
           Z            0.00341  -0.04676   0.99890
 This molecule is an asymmetric top.
 Rotational symmetry number  1.
 Warning -- assumption of classical behavior for rotation
           may cause significant error
 Rotational temperatures (Kelvin)      0.04485     0.02359     0.02037
 Rotational constants (GHZ):           0.93449     0.49156     0.42443
 Zero-point vibrational energy     739639.7 (Joules/Mol)
                                  176.77812 (Kcal/Mol)
 Warning -- explicit consideration of  23 degrees of freedom as
           vibrations may cause significant error
 Vibrational temperatures:     54.57    64.35    91.86   113.80   147.41
          (Kelvin)            158.20   225.96   287.73   298.02   319.35
                              341.37   398.83   414.56   447.67   523.36
                              538.04   570.62   657.35   673.19   681.94
                              767.91   778.19   889.75  1029.66  1054.57
                             1103.75  1161.00  1197.99  1228.99  1316.30
                             1347.25  1376.81  1405.50  1408.05  1462.14
                             1471.93  1493.59  1518.85  1549.10  1607.39
                             1630.58  1646.84  1660.60  1703.47  1716.49
                             1724.32  1743.95  1761.75  1774.82  1829.99
                             1889.81  1922.16  1963.69  1982.65  2024.49
                             2040.94  2071.58  2075.68  2117.61  2133.42
                             2153.00  2156.45  2179.94  2182.79  2183.56
                             2194.51  2209.37  2220.42  2234.64  2372.46
                             2395.17  2453.29  4299.63  4315.64  4353.95
                             4377.22  4407.60  4440.05  4442.38  4456.51
                             4458.31  4494.85  4502.05  4504.41  4570.19
                             4582.86  4608.49  4630.84  4904.32  5039.77

 Zero-point correction=                           0.281714 (Hartree/Particle)
 Thermal correction to Energy=                    0.296839
 Thermal correction to Enthalpy=                  0.297783
 Thermal correction to Gibbs Free Energy=         0.238968
 Sum of electronic and zero-point Energies=           -614.443550
 Sum of electronic and thermal Energies=              -614.428425
 Sum of electronic and thermal Enthalpies=            -614.427481
 Sum of electronic and thermal Free Energies=         -614.486296

                     E (Thermal)             CV                S
                      KCal/Mol        Cal/Mol-Kelvin    Cal/Mol-Kelvin
 Total                  186.269             55.895            123.786
 Electronic               0.000              0.000              0.000
 Translational            0.889              2.981             41.696
 Rotational               0.889              2.981             31.778
 Vibrational            184.492             49.933             50.313
 Vibration     1          0.594              1.982              5.364
 Vibration     2          0.595              1.980              5.038
 Vibration     3          0.597              1.972              4.335
 Vibration     4          0.600              1.963              3.913
 Vibration     5          0.605              1.947              3.407
 Vibration     6          0.606              1.941              3.270
 Vibration     7          0.621              1.895              2.585
 Vibration     8          0.638              1.840              2.133
 Vibration     9          0.641              1.830              2.069
 Vibration    10          0.648              1.808              1.943
 Vibration    11          0.656              1.784              1.823
 Vibration    12          0.678              1.716              1.551
 Vibration    13          0.685              1.696              1.485
 Vibration    14          0.700              1.652              1.356
 Vibration    15          0.737              1.547              1.106
 Vibration    16          0.745              1.526              1.064
 Vibration    17          0.763              1.477              0.975
 Vibration    18          0.815              1.346              0.775
 Vibration    19          0.825              1.321              0.743
 Vibration    20          0.831              1.308              0.726
 Vibration    21          0.889              1.175              0.579
 Vibration    22          0.896              1.160              0.563
 Vibration    23          0.978              0.993              0.419

                           ! Non-Optimized Parameters !
 Normal termination of Gaussian 16 at Thu Dec 10 09:45:02 2020.

 ----------------------------------------------------------------------
 # B3LYP/6-311++G(d,p) empiricaldispersion=gd3bj scf=xqc pop=npa geom=c
 heck
 ----------------------------------------------------------------------

 --------------------------------------
 CID_46929849_JID_4201_Energie_neutraal
 --------------------------------------
 Structure from the checkpoint file:  "JID_4201.chk"
 Charge =  0 Multiplicity = 1

 SCF Done:  E(RB3LYP) =  -614.901904752     A.U. after   15 cycles
 Normal termination of Gaussian 16 at Thu Dec 10 09:48:51 2020.

 ----------------------------------------------------------------------
 # B3LYP/6-311++G(d,p) empiricaldispersion=gd3bj scf=xqc pop=npa geom=c
 heck
 ----------------------------------------------------------------------

 ------------------------------------
 CID_46929849_JID_4201_Energie_kation
 ------------------------------------
 Structure from the checkpoint file:  "JID_4201.chk"
 Charge =  1 Multiplicity = 2

 SCF Done:  E(UB3LYP) =  -614.622914295     A.U. after   28 cycles
 Normal termination of Gaussian 16 at Thu Dec 10 09:58:31 2020.
 Gaussian 16:  ES64L-G16RevA.03 25-Dec-2016

 ----------------------------------------------------------------------
 # B3LYP/6-311++G(d,p) empiricaldispersion=gd3bj scf=xqc pop=npa geom=c
 heck
 ----------------------------------------------------------------------

 -----------------------------------
 CID_46929849_JID_4201_Energie_anion
 -----------------------------------
 Structure from the checkpoint file:  "JID_4201.chk"
 Charge = -1 Multiplicity = 2

                         Standard orientation:
 ---------------------------------------------------------------------
 Center     Atomic      Atomic             Coordinates (Angstroms)
 Number     Number       Type             X           Y           Z
 ---------------------------------------------------------------------
      1          6           0       -2.565240    2.029141    1.285146
      2          6           0       -2.213697    0.830746    0.436597
      3          6           0       -0.904919    0.336894    0.414655
      4          6           0       -0.555023   -0.791412   -0.344841
      5          6           0       -1.555179   -1.424845   -1.091217
      6          6           0       -2.862516   -0.939964   -1.086969
      7          6           0       -3.190460    0.180924   -0.327456
      8          6           0        0.851316   -1.370555   -0.362489
      9          6           0        1.986469   -0.434455   -0.826967
     10          7           0        2.021834    0.913341   -0.239715
     11          6           0        3.399645    1.385644   -0.120972
     12          7           0        1.369140    1.822248   -1.204783
     13          8           0        1.191053   -2.065182    0.844351
     14          6           0        1.218409   -1.319663    2.049281
     15          1           0       -1.686457    2.653452    1.477180
     16          1           0       -3.327585    2.651890    0.804759
     17          1           0       -2.965180    1.720851    2.260033
     18          1           0       -0.134522    0.847209    0.981711
     19          1           0       -1.306040   -2.303018   -1.681329
     20          1           0       -3.626273   -1.436470   -1.679246
     21          1           0       -4.210516    0.557827   -0.327469
     22          1           0        0.848064   -2.184275   -1.096461
     23          1           0        2.913473   -0.954452   -0.564666
     24          1           0        1.957910   -0.347364   -1.925879
     25          1           0        3.926793    1.406942   -1.088763
     26          1           0        3.399155    2.400403    0.292942
     27          1           0        3.936157    0.735980    0.576754
     28          1           0        0.415186    1.463445   -1.282783
     29          1           0        1.247207    2.693472   -0.680492
     30          1           0        1.812063   -0.402256    1.956887
     31          1           0        0.208635   -1.050775    2.387904
     32          1           0        1.673862   -1.975255    2.796999
 ---------------------------------------------------------------------

 SCF Done:  E(UB3LYP) =  -614.888500878     A.U. after   33 cycles
 SCF Done:  E(UB3LYP) =  -614.888500878     a.u. after    1 cycles

 The electronic state is 2-A.
 Alpha  occ. eigenvalues --  -19.02751 -14.23777 -14.22152 -10.13387 -10.10779
 Alpha  occ. eigenvalues --  -10.10044 -10.09003 -10.08817 -10.08755 -10.08118
 Alpha  occ. eigenvalues --  -10.07983 -10.07671 -10.07308 -10.06640  -0.93677
 Alpha  occ. eigenvalues --   -0.87154  -0.76699  -0.71173  -0.68909  -0.66892
 Alpha  occ. eigenvalues --   -0.63691  -0.60114  -0.58831  -0.54422  -0.51683
 Alpha  occ. eigenvalues --   -0.49976  -0.46757  -0.41819  -0.41012  -0.39832
 Alpha  occ. eigenvalues --   -0.38576  -0.37635  -0.36857  -0.35488  -0.34396
 Alpha  occ. eigenvalues --   -0.32512  -0.32210  -0.31743  -0.31338  -0.29957
 Alpha  occ. eigenvalues --   -0.29313  -0.28966  -0.28305  -0.26815  -0.26478
 Alpha  occ. eigenvalues --   -0.25241  -0.24256  -0.22284  -0.21459  -0.16751
 Alpha  occ. eigenvalues --   -0.15890  -0.15061  -0.10793   0.04311
 Alpha virt. eigenvalues --    0.06270   0.06858   0.07284   0.07595   0.08187
 Alpha virt. eigenvalues --    0.08277   0.08581   0.09824   0.10291   0.10572
 Alpha virt. eigenvalues --    0.10916   0.11275   0.11590   0.12725   0.13160

  Beta  occ. eigenvalues --  -19.02747 -14.23768 -14.22124 -10.13384 -10.10762
  Beta  occ. eigenvalues --  -10.10034 -10.08969 -10.08818 -10.08753 -10.08107
  Beta  occ. eigenvalues --  -10.07976 -10.07649 -10.07295 -10.06595  -0.93666
  Beta  occ. eigenvalues --   -0.87127  -0.76680  -0.71131  -0.68880  -0.66863
  Beta  occ. eigenvalues --   -0.63663  -0.60074  -0.58772  -0.54376  -0.51633
  Beta  occ. eigenvalues --   -0.49943  -0.46722  -0.41779  -0.40989  -0.39786
  Beta  occ. eigenvalues --   -0.38551  -0.37609  -0.36823  -0.35463  -0.34368
  Beta  occ. eigenvalues --   -0.32478  -0.32171  -0.31709  -0.31299  -0.29927
  Beta  occ. eigenvalues --   -0.29283  -0.28929  -0.28269  -0.26782  -0.26446
  Beta  occ. eigenvalues --   -0.25211  -0.24231  -0.22257  -0.21439  -0.16737
  Beta  occ. eigenvalues --   -0.15857  -0.15035  -0.10752
  Beta virt. eigenvalues --    0.06412   0.07080   0.07393   0.07544   0.07842
  Beta virt. eigenvalues --    0.08369   0.08713   0.09236   0.10197   0.10525
  Beta virt. eigenvalues --    0.11112   0.11330   0.11562   0.11801   0.12931

 Mulliken charges and spin densities:
               1          2
     1  C    2.012718  -2.638162
     2  C   -0.736296   1.268166
     3  C   -0.566878   0.470597
     4  C   -0.236954   0.407015
     5  C   -0.254199   0.227809
     6  C    0.434425  -0.771475
     7  C    0.054178  -0.582928
     8  C   -0.264017  -0.173406
     9  C   -0.279995  -0.388097
    10  N   -0.039057   0.213308
    11  C    0.789312  -1.132689
    12  N   -0.416036  -0.082353
    13  O   -0.043791   0.010387
    14  C    0.158789  -0.498759
    15  H   -0.650782   0.806883
    16  H   -0.372751   0.525088
    17  H   -0.042167   0.212294
    18  H    0.854769  -0.610838
    19  H   -0.026362   0.167910
    20  H   -0.393189   0.560656
    21  H   -0.504544   0.664714
    22  H    0.016706   0.157658
    23  H    0.164517   0.036340
    24  H    0.044091   0.113531
    25  H   -0.031485   0.160855
    26  H   -0.523282   0.679614
    27  H   -0.079911   0.212549
    28  H    0.296319  -0.045803
    29  H   -0.044875   0.276280
    30  H   -0.259032   0.407581
    31  H    0.008283   0.121270
    32  H   -0.068504   0.224002
 Sum of Mulliken charges =  -1.00000   1.00000

 Dipole moment (field-independent basis, Debye):
    X=              1.4664    Y=             -5.0227    Z=             -1.4889  Tot=              5.4401
 Quadrupole moment (field-independent basis, Debye-Ang):
   XX=           -155.4687   YY=           -141.0890   ZZ=           -122.1712
   XY=             -1.4271   XZ=             -2.6654   YZ=             -2.0347

 Summary of Natural Population Analysis:

                                       Natural Population
                Natural  -----------------------------------------------
    Atom  No    Charge         Core      Valence    Rydberg      Total
 -----------------------------------------------------------------------
      C    1   -0.29290      0.99963     2.28702    0.00624     3.29290
      C    2   -0.01294      0.99951     2.00305    0.01038     3.01294
      C    3   -0.11337      0.99947     2.10259    0.01132     3.11337
      C    4   -0.03153      0.99947     2.02086    0.01119     3.03153
      C    5   -0.09961      0.99951     2.09000    0.01009     3.09961
      C    6   -0.09762      0.99956     2.08746    0.01059     3.09762
      C    7   -0.09745      0.99951     2.08823    0.00972     3.09745
      C    8    0.06052      0.99948     1.92469    0.01531     2.93948
      C    9   -0.09940      0.99957     2.08944    0.01039     3.09940
      N   10   -0.21282      0.99974     2.69827    0.01481     3.71282
      C   11   -0.17739      0.99964     2.16812    0.00962     3.17739
      N   12   -0.33003      0.99978     2.81963    0.01063     3.83003
      O   13   -0.30097      0.99989     3.29173    0.00935     4.30097
      C   14   -0.10460      0.99960     2.09536    0.00964     3.10460
      H   15    0.10653      0.00000     0.39166    0.00181     0.39347
      H   16    0.10503      0.00000     0.39327    0.00170     0.39497
      H   17    0.10489      0.00000     0.39400    0.00111     0.39511
      H   18    0.11318      0.00000     0.38322    0.00359     0.38682
      H   19    0.09901      0.00000     0.39996    0.00103     0.40099
      H   20    0.10046      0.00000     0.39856    0.00097     0.39954
      H   21    0.10150      0.00000     0.39719    0.00131     0.39850
      H   22    0.09271      0.00000     0.40535    0.00194     0.40729
      H   23    0.10233      0.00000     0.39613    0.00154     0.39767
      H   24    0.09574      0.00000     0.40241    0.00185     0.40426
      H   25    0.08526      0.00000     0.41315    0.00159     0.41474
      H   26    0.09808      0.00000     0.40020    0.00172     0.40192
      H   27    0.09547      0.00000     0.40324    0.00128     0.40453
      H   28    0.17818      0.00000     0.31915    0.00267     0.32182
      H   29    0.17522      0.00000     0.32222    0.00256     0.32478
      H   30    0.08720      0.00000     0.41081    0.00198     0.41280
      H   31    0.08288      0.00000     0.41587    0.00126     0.41712
      H   32    0.08643      0.00000     0.41263    0.00094     0.41357
 =======================================================================
   * Total *    0.00000     13.99436    38.82548    0.18015    53.00000

 Normal termination of Gaussian 16 at Thu Dec 10 10:10:18 2020.
