 Gaussian 16, Revision A.03,

 -----------------------------------------------------------
 # opt freq B3LYP/6-31G(d) empiricaldispersion=gd3bj scf=xqc
 -----------------------------------------------------------

 -------------------------------
 CID_115892017_JID_5288_neutraal
 -------------------------------
 Symbolic Z-matrix:
 Charge =  0 Multiplicity = 1

 SCF Done:  E(RB3LYP) =  -1000.54305974     A.U. after   13 cycles
 SCF Done:  E(RB3LYP) =  -1000.54765511     A.U. after   11 cycles
 SCF Done:  E(RB3LYP) =  -1000.54751037     A.U. after   11 cycles
 SCF Done:  E(RB3LYP) =  -1000.54833994     A.U. after   11 cycles
 SCF Done:  E(RB3LYP) =  -1000.54903866     A.U. after   11 cycles
 SCF Done:  E(RB3LYP) =  -1000.54923520     A.U. after   10 cycles
 SCF Done:  E(RB3LYP) =  -1000.54932455     A.U. after   10 cycles
 SCF Done:  E(RB3LYP) =  -1000.54940665     A.U. after   10 cycles
 SCF Done:  E(RB3LYP) =  -1000.54950348     A.U. after   11 cycles
 SCF Done:  E(RB3LYP) =  -1000.51486052     A.U. after   13 cycles
 SCF Done:  E(RB3LYP) =  -1000.55641301     A.U. after    8 cycles
 SCF Done:  E(RB3LYP) =  -1000.55642032     A.U. after    9 cycles
 SCF Done:  E(RB3LYP) =  -1000.55642634     A.U. after    9 cycles
 SCF Done:  E(RB3LYP) =  -1000.55643267     A.U. after    9 cycles
 SCF Done:  E(RB3LYP) =  -1000.55643382     A.U. after    8 cycles
 SCF Done:  E(RB3LYP) =  -1000.55643397     A.U. after    7 cycles
 Optimization completed.
    -- Stationary point found.
 Normal termination of Gaussian 16 at Thu Dec 10 15:50:37 2020.

 --------------------------------------------------------------------
 #N Geom=AllCheck Guess=TCheck SCRF=Check GenChk RB3LYP/6-31G(d) Freq
 --------------------------------------------------------------------

 Structure from the checkpoint file:  "JID_5288.chk"
 -------------------------------
 CID_115892017_JID_5288_neutraal
 -------------------------------
 Charge =  0 Multiplicity = 1

 SCF Done:  E(RB3LYP) =  -1000.55643397     A.U. after    1 cycles

  Exact polarizability: 168.020   4.424 152.963   4.888  -4.955 134.115
 Approx polarizability: 212.988  10.504 221.059   6.222 -10.831 208.698

                      1                      2                      3
                      A                      A                      A
 Frequencies --     23.5350                48.6107                61.1595
 Red. masses --      3.5754                 3.1777                 2.7977
 Frc consts  --      0.0012                 0.0044                 0.0062
 IR Inten    --      0.2427                 0.2315                 0.8624

                      4                      5                      6
                      A                      A                      A
 Frequencies --     64.8541                89.1529               120.1844
 Red. masses --      2.8560                 2.9828                 4.2843
 Frc consts  --      0.0071                 0.0140                 0.0365
 IR Inten    --      0.2240                 0.0896                 1.2124

                      7                      8                      9
                      A                      A                      A
 Frequencies --    153.8611               173.2925               197.6441
 Red. masses --      1.7442                 2.2734                 2.2189
 Frc consts  --      0.0243                 0.0402                 0.0511
 IR Inten    --      0.3877                 0.0852                 0.7191

                     10                     11                     12
                      A                      A                      A
 Frequencies --    205.2229               212.2774               223.8198
 Red. masses --      1.3399                 2.6559                 1.3241
 Frc consts  --      0.0332                 0.0705                 0.0391
 IR Inten    --      0.6159                 2.2880                 0.0346

                     13                     14                     15
                      A                      A                      A
 Frequencies --    252.6964               278.4676               288.8060
 Red. masses --      2.1512                 1.2436                 2.1724
 Frc consts  --      0.0809                 0.0568                 0.1068
 IR Inten    --      0.2724                 0.8242                 2.8907

                     16                     17                     18
                      A                      A                      A
 Frequencies --    304.8779               308.8726               330.4468
 Red. masses --      2.6598                 1.8912                 2.2707
 Frc consts  --      0.1457                 0.1063                 0.1461
 IR Inten    --      7.1975                 2.5621                 1.2728

                     19                     20                     21
                      A                      A                      A
 Frequencies --    378.8217               386.5958               407.4379
 Red. masses --      1.9924                 2.1584                 2.3146
 Frc consts  --      0.1685                 0.1901                 0.2264
 IR Inten    --      0.8808                 2.6819                 7.0239

                     22                     23                     24
                      A                      A                      A
 Frequencies --    417.7950               426.2187               454.2251
 Red. masses --      2.1873                 2.4322                 2.0062
 Frc consts  --      0.2249                 0.2603                 0.2439
 IR Inten    --      7.7418                 2.5600                18.2277

                     25                     26                     27
                      A                      A                      A
 Frequencies --    464.4442               504.0561               527.7056
 Red. masses --      4.5627                 3.0150                 3.4528
 Frc consts  --      0.5799                 0.4513                 0.5665
 IR Inten    --      7.1972                 0.1853                 7.5804

                     28                     29                     30
                      A                      A                      A
 Frequencies --    584.9243               590.9541               682.3080
 Red. masses --      1.9025                 1.9717                 3.5018
 Frc consts  --      0.3835                 0.4057                 0.9605
 IR Inten    --     64.5949                 2.8146                18.7428

                     31                     32                     33
                      A                      A                      A
 Frequencies --    721.1890               796.7375               821.7963
 Red. masses --      6.0563                 1.9250                 2.2627
 Frc consts  --      1.8559                 0.7200                 0.9003
 IR Inten    --      1.4738                 0.1612                 6.3840

                     34                     35                     36
                      A                      A                      A
 Frequencies --    826.1583               868.4380               879.9628
 Red. masses --      2.0481                 2.0923                 2.9765
 Frc consts  --      0.8236                 0.9297                 1.3580
 IR Inten    --      3.9891                 3.3621                 2.8348

                     37                     38                     39
                      A                      A                      A
 Frequencies --    908.2916               936.0387               945.2121
 Red. masses --      2.1375                 1.2916                 1.6365
 Frc consts  --      1.0390                 0.6668                 0.8614
 IR Inten    --      4.5778                 3.8047                 2.5240

                     40                     41                     42
                      A                      A                      A
 Frequencies --    974.7033               983.8996               986.6609
 Red. masses --      1.4168                 1.3962                 1.2924
 Frc consts  --      0.7931                 0.7963                 0.7413
 IR Inten    --      0.9734                 1.9277                 4.2654

                     43                     44                     45
                      A                      A                      A
 Frequencies --    990.6990              1004.6150              1011.3563
 Red. masses --      1.4617                 1.8412                 1.4661
 Frc consts  --      0.8452                 1.0949                 0.8835
 IR Inten    --     11.7119                14.8906                 0.6404

                     46                     47                     48
                      A                      A                      A
 Frequencies --   1031.8901              1058.4142              1061.2569
 Red. masses --      2.0495                 1.7084                 2.8011
 Frc consts  --      1.2858                 1.1276                 1.8588
 IR Inten    --     15.8979                 8.5846                 0.0621

                     49                     50                     51
                      A                      A                      A
 Frequencies --   1114.6154              1134.4096              1146.7860
 Red. masses --      3.3879                 2.6280                 2.9365
 Frc consts  --      2.4799                 1.9925                 2.2753
 IR Inten    --     14.0376                23.5533                34.0259

                     52                     53                     54
                      A                      A                      A
 Frequencies --   1148.2538              1161.1175              1175.2834
 Red. masses --      3.1573                 2.1484                 2.9179
 Frc consts  --      2.4527                 1.7065                 2.3747
 IR Inten    --    108.5103                19.1686                 6.5617

                     55                     56                     57
                      A                      A                      A
 Frequencies --   1202.1970              1217.1811              1222.6252
 Red. masses --      1.8530                 1.9617                 2.0795
 Frc consts  --      1.5779                 1.7123                 1.8315
 IR Inten    --      8.0555                 9.4591                25.4561

                     58                     59                     60
                      A                      A                      A
 Frequencies --   1242.9178              1281.1607              1301.4483
 Red. masses --      1.4465                 1.3135                 1.2769
 Frc consts  --      1.3166                 1.2703                 1.2742
 IR Inten    --      5.7131                22.3608                 4.8978

                     61                     62                     63
                      A                      A                      A
 Frequencies --   1327.3893              1334.5383              1342.1579
 Red. masses --      1.3745                 1.2819                 1.2712
 Frc consts  --      1.4269                 1.3452                 1.3492
 IR Inten    --      6.8332                 0.3280                 6.2161

                     64                     65                     66
                      A                      A                      A
 Frequencies --   1359.1365              1370.1597              1381.2453
 Red. masses --      1.3148                 1.3766                 1.2503
 Frc consts  --      1.4310                 1.5226                 1.4054
 IR Inten    --      4.9457                 0.1985                 1.8673

                     67                     68                     69
                      A                      A                      A
 Frequencies --   1392.3230              1394.8908              1405.3249
 Red. masses --      1.2075                 1.3614                 1.2404
 Frc consts  --      1.3792                 1.5607                 1.4434
 IR Inten    --      2.6061                 3.5052                 4.8364

                     70                     71                     72
                      A                      A                      A
 Frequencies --   1409.2055              1415.9599              1423.7629
 Red. masses --      1.3467                 1.2637                 1.2821
 Frc consts  --      1.5757                 1.4927                 1.5312
 IR Inten    --     14.3101                 4.2079                 1.9602

                     73                     74                     75
                      A                      A                      A
 Frequencies --   1436.7954              1445.4796              1446.5478
 Red. masses --      1.2618                 1.3019                 1.2284
 Frc consts  --      1.5347                 1.6027                 1.5144
 IR Inten    --     11.7269                14.5132                 5.0607

                     76                     77                     78
                      A                      A                      A
 Frequencies --   1495.2882              1500.9631              1503.5400
 Red. masses --      1.0764                 1.0774                 1.0807
 Frc consts  --      1.4180                 1.4300                 1.4394
 IR Inten    --      5.8664                 3.7141                 6.0643

                     79                     80                     81
                      A                      A                      A
 Frequencies --   1510.9027              1518.6440              1520.7800
 Red. masses --      1.0689                 1.0539                 1.0758
 Frc consts  --      1.4377                 1.4321                 1.4660
 IR Inten    --     19.4613                 0.7318                 0.8596

                     82                     83                     84
                      A                      A                      A
 Frequencies --   1521.4828              1522.5722              1524.7002
 Red. masses --      1.0683                 1.0673                 1.1511
 Frc consts  --      1.4570                 1.4577                 1.5767
 IR Inten    --      1.8762                 5.5249                14.6254

                     85                     86                     87
                      A                      A                      A
 Frequencies --   1530.5258              1535.0545              1535.8966
 Red. masses --      1.0563                 1.1004                 1.1026
 Frc consts  --      1.4579                 1.5278                 1.5325
 IR Inten    --      5.9267                12.1734                 3.4763

                     88                     89                     90
                      A                      A                      A
 Frequencies --   1539.9247              1551.0550              2994.0180
 Red. masses --      1.0523                 1.0492                 1.0809
 Frc consts  --      1.4702                 1.4872                 5.7086
 IR Inten    --      6.9248                10.8841                12.0789

                     91                     92                     93
                      A                      A                      A
 Frequencies --   3013.6764              3021.3822              3023.5369
 Red. masses --      1.0688                 1.0821                 1.0689
 Frc consts  --      5.7190                 5.8202                 5.7574
 IR Inten    --     37.1177                14.9478                41.4346

                     94                     95                     96
                      A                      A                      A
 Frequencies --   3033.4673              3039.4258              3041.4265
 Red. masses --      1.0431                 1.0592                 1.0427
 Frc consts  --      5.6555                 5.7654                 5.6827
 IR Inten    --     19.2485                21.1650                53.8116

                     97                     98                     99
                      A                      A                      A
 Frequencies --   3044.9797              3045.6723              3062.3154
 Red. masses --      1.0678                 1.0410                 1.0327
 Frc consts  --      5.8333                 5.6897                 5.7057
 IR Inten    --     26.7140                16.1879                12.7771

                    100                    101                    102
                      A                      A                      A
 Frequencies --   3071.8221              3083.7104              3095.3856
 Red. masses --      1.0606                 1.1015                 1.0972
 Frc consts  --      5.8963                 6.1713                 6.1941
 IR Inten    --     24.0747                38.8679                12.6823

                    103                    104                    105
                      A                      A                      A
 Frequencies --   3103.7761              3105.2149              3105.8281
 Red. masses --      1.0975                 1.0962                 1.0995
 Frc consts  --      6.2293                 6.2277                 6.2486
 IR Inten    --     47.9822                65.6393                48.1652

                    106                    107                    108
                      A                      A                      A
 Frequencies --   3108.5455              3117.5918              3119.0576
 Red. masses --      1.0980                 1.0955                 1.0988
 Frc consts  --      6.2514                 6.2733                 6.2980
 IR Inten    --     38.4128                20.2692                22.5491

                    109                    110                    111
                      A                      A                      A
 Frequencies --   3121.3672              3142.4205              3143.0224
 Red. masses --      1.1010                 1.1021                 1.1031
 Frc consts  --      6.3200                 6.4121                 6.4204
 IR Inten    --     48.7249                17.9591                13.7309

                    112                    113                    114
                      A                      A                      A
 Frequencies --   3145.4123              3153.1368              3562.5739
 Red. masses --      1.0974                 1.1034                 1.0745
 Frc consts  --      6.3970                 6.4634                 8.0353
 IR Inten    --     36.0344                 7.3083                 0.5172

 - Thermochemistry -
 -------------------
 Temperature   298.150 Kelvin.  Pressure   1.00000 Atm.
 Atom     1 has atomic number  6 and mass  12.00000

 Molecular mass:   231.16569 amu.
 Principal axes and moments of inertia in atomic units:
                           1         2         3
     Eigenvalues --  2313.954655775.907356818.51939
           X            0.99999  -0.00105   0.00372
           Y            0.00115   0.99966  -0.02620
           Z           -0.00369   0.02620   0.99965
 This molecule is an asymmetric top.
 Rotational symmetry number  1.
 Warning -- assumption of classical behavior for rotation
           may cause significant error
 Rotational temperatures (Kelvin)      0.03743     0.01500     0.01270
 Rotational constants (GHZ):           0.77994     0.31246     0.26468
 Zero-point vibrational energy     957093.8 (Joules/Mol)
                                  228.75092 (Kcal/Mol)
 Warning -- explicit consideration of  29 degrees of freedom as
           vibrations may cause significant error
 Vibrational temperatures:     33.86    69.94    87.99    93.31   128.27
          (Kelvin)            172.92   221.37   249.33   284.37   295.27
                              305.42   322.03   363.57   400.65   415.53
                              438.65   444.40   475.44   545.04   556.23
                              586.21   601.11   613.23   653.53   668.23
                              725.22   759.25   841.58   850.25   981.69
                             1037.63  1146.33  1182.38  1188.66  1249.49
                             1266.07  1306.83  1346.75  1359.95  1402.38
                             1415.61  1419.59  1425.39  1445.42  1455.12
                             1484.66  1522.82  1526.91  1603.68  1632.16
                             1649.97  1652.08  1670.59  1690.97  1729.69
                             1751.25  1759.08  1788.28  1843.30  1872.49
                             1909.82  1920.10  1931.07  1955.49  1971.35
                             1987.30  2003.24  2006.94  2021.95  2027.53
                             2037.25  2048.48  2067.23  2079.72  2081.26
                             2151.39  2159.55  2163.26  2173.85  2184.99
                             2188.06  2189.07  2190.64  2193.70  2202.09
                             2208.60  2209.81  2215.61  2231.62  4307.72
                             4336.01  4347.10  4350.20  4364.48  4373.06
                             4375.93  4381.05  4382.04  4405.99  4419.67
                             4436.77  4453.57  4465.64  4467.71  4468.59
                             4472.50  4485.52  4487.63  4490.95  4521.24
                             4522.11  4525.55  4536.66  5125.75

 Zero-point correction=                           0.364538 (Hartree/Particle)
 Thermal correction to Energy=                    0.382386
 Thermal correction to Enthalpy=                  0.383330
 Thermal correction to Gibbs Free Energy=         0.318776
 Sum of electronic and zero-point Energies=          -1000.191896
 Sum of electronic and thermal Energies=             -1000.174048
 Sum of electronic and thermal Enthalpies=           -1000.173104
 Sum of electronic and thermal Free Energies=        -1000.237658

                     E (Thermal)             CV                S
                      KCal/Mol        Cal/Mol-Kelvin    Cal/Mol-Kelvin
 Total                  239.951             67.900            135.865
 Electronic               0.000              0.000              0.000
 Translational            0.889              2.981             42.216
 Rotational               0.889              2.981             32.877
 Vibrational            238.173             61.939             60.772
 Vibration     1          0.593              1.985              6.311
 Vibration     2          0.595              1.978              4.873
 Vibration     3          0.597              1.973              4.419
 Vibration     4          0.597              1.971              4.304
 Vibration     5          0.602              1.957              3.679
 Vibration     6          0.609              1.932              3.097
 Vibration     7          0.619              1.898              2.624
 Vibration     8          0.627              1.875              2.399
 Vibration     9          0.637              1.843              2.155
 Vibration    10          0.640              1.832              2.086
 Vibration    11          0.643              1.822              2.024
 Vibration    12          0.649              1.805              1.928
 Vibration    13          0.664              1.758              1.712
 Vibration    14          0.679              1.713              1.543
 Vibration    15          0.685              1.695              1.481
 Vibration    16          0.696              1.664              1.390
 Vibration    17          0.698              1.657              1.368
 Vibration    18          0.713              1.615              1.258
 Vibration    19          0.749              1.515              1.044
 Vibration    20          0.755              1.499              1.013
 Vibration    21          0.772              1.454              0.936
 Vibration    22          0.781              1.432              0.899
 Vibration    23          0.788              1.413              0.871
 Vibration    24          0.813              1.352              0.783
 Vibration    25          0.822              1.329              0.753
 Vibration    26          0.859              1.241              0.648
 Vibration    27          0.883              1.189              0.592
 Vibration    28          0.942              1.064              0.476
 Vibration    29          0.948              1.051              0.465

 Optimization completed.
    -- Stationary point found.
 Normal termination of Gaussian 16 at Thu Dec 10 16:05:26 2020.

 ----------------------------------------------------------------------
 # B3LYP/6-311++G(d,p) empiricaldispersion=gd3bj scf=xqc pop=npa geom=c
 heck
 ----------------------------------------------------------------------

 ---------------------------------------
 CID_115892017_JID_5288_Energie_neutraal
 ---------------------------------------
 Structure from the checkpoint file:  "JID_5288.chk"
 Charge =  0 Multiplicity = 1

 SCF Done:  E(RB3LYP) =  -1000.75711856     A.U. after   14 cycles
 Normal termination of Gaussian 16 at Thu Dec 10 16:13:27 2020.

 ----------------------------------------------------------------------
 # B3LYP/6-311++G(d,p) empiricaldispersion=gd3bj scf=xqc pop=npa geom=c
 heck
 ----------------------------------------------------------------------

 -------------------------------------
 CID_115892017_JID_5288_Energie_kation
 -------------------------------------
 Structure from the checkpoint file:  "JID_5288.chk"
 Charge =  1 Multiplicity = 2

 SCF Done:  E(UB3LYP) =  -1000.47934582     A.U. after   21 cycles
 Normal termination of Gaussian 16 at Thu Dec 10 16:33:20 2020.
 Gaussian 16:  ES64L-G16RevA.03 25-Dec-2016

 ----------------------------------------------------------------------
 # B3LYP/6-311++G(d,p) empiricaldispersion=gd3bj scf=xqc pop=npa geom=c
 heck
 ----------------------------------------------------------------------

 ------------------------------------
 CID_115892017_JID_5288_Energie_anion
 ------------------------------------
 Structure from the checkpoint file:  "JID_5288.chk"
 Charge = -1 Multiplicity = 2

                         Standard orientation:
 ---------------------------------------------------------------------
 Center     Atomic      Atomic             Coordinates (Angstroms)
 Number     Number       Type             X           Y           Z
 ---------------------------------------------------------------------
      1          6           0        4.505403    0.209233    0.980980
      2          6           0        3.563706   -0.074250   -0.198101
      3          6           0        3.425680   -1.586369   -0.406899
      4          6           0        2.180253    0.602081   -0.013562
      5          6           0        2.300461    2.126239    0.093389
      6          7           0        1.280964    0.259851   -1.123846
      7          6           0        0.223220   -0.716938   -0.929407
      8          6           0       -1.135364   -0.225646   -0.351696
      9          6           0       -1.808459    0.767161   -1.321516
     10          6           0       -3.051914    1.433817   -0.726960
     11          8           0       -2.763663    2.056961    0.517381
     12          6           0       -2.306818    1.111709    1.476116
     13          6           0       -1.003723    0.454863    1.020752
     14         16           0       -2.272056   -1.708245   -0.290112
     15          6           0       -1.605220   -2.674215    1.107663
     16          1           0        4.048289   -0.106074    1.928740
     17          1           0        4.762131    1.269272    1.069191
     18          1           0        5.442853   -0.346968    0.869069
     19          1           0        4.002703    0.351513   -1.112469
     20          1           0        2.978781   -2.066518    0.474815
     21          1           0        2.799499   -1.807050   -1.274873
     22          1           0        4.407503   -2.046394   -0.567051
     23          1           0        1.759794    0.221884    0.930853
     24          1           0        2.746532    2.535380   -0.822495
     25          1           0        1.315824    2.589005    0.224037
     26          1           0        2.926547    2.432485    0.934774
     27          1           0        0.959360    1.082436   -1.619855
     28          1           0        0.000313   -1.195253   -1.891879
     29          1           0        0.620226   -1.502783   -0.281227
     30          1           0       -1.081359    1.556995   -1.550295
     31          1           0       -2.059300    0.269463   -2.267144
     32          1           0       -3.411946    2.227769   -1.388055
     33          1           0       -3.858958    0.696931   -0.601650
     34          1           0       -3.081426    0.350450    1.655882
     35          1           0       -2.150687    1.671550    2.403090
     36          1           0       -0.642956   -0.247743    1.780495
     37          1           0       -0.249741    1.243125    0.931839
     38          1           0       -0.534372   -2.866720    1.000149
     39          1           0       -1.796763   -2.189111    2.068545
     40          1           0       -2.130743   -3.632482    1.090627
 ---------------------------------------------------------------------

 SCF Done:  E(UB3LYP) =  -1000.74337135     A.U. after   32 cycles

 The electronic state is 2-A.
 Alpha  occ. eigenvalues --  -88.73938 -19.03493 -14.20309 -10.13064 -10.12042
 Alpha  occ. eigenvalues --  -10.12012 -10.10521 -10.10269 -10.09242 -10.09063
 Alpha  occ. eigenvalues --  -10.07623 -10.07376 -10.06954 -10.05945 -10.05644
 Alpha  occ. eigenvalues --   -7.82574  -5.78972  -5.78601  -5.77939  -0.94972
 Alpha  occ. eigenvalues --   -0.81885  -0.74310  -0.70109  -0.67978  -0.66170
 Alpha  occ. eigenvalues --   -0.64531  -0.59624  -0.58271  -0.55802  -0.54619
 Alpha  occ. eigenvalues --   -0.52654  -0.51953  -0.46757  -0.44381  -0.41119
 Alpha  occ. eigenvalues --   -0.39265  -0.38832  -0.37568  -0.37298  -0.35991
 Alpha  occ. eigenvalues --   -0.35559  -0.35167  -0.34061  -0.32796  -0.31837
 Alpha  occ. eigenvalues --   -0.31293  -0.30613  -0.29744  -0.29342  -0.28689
 Alpha  occ. eigenvalues --   -0.28286  -0.27773  -0.26921  -0.26601  -0.25858
 Alpha  occ. eigenvalues --   -0.23931  -0.23746  -0.23114  -0.22429  -0.22181
 Alpha  occ. eigenvalues --   -0.20540  -0.17169  -0.13726  -0.12069   0.04370
 Alpha virt. eigenvalues --    0.06146   0.06629   0.07235   0.07921   0.08505
 Alpha virt. eigenvalues --    0.08697   0.09265   0.09594   0.10134   0.10744
 Alpha virt. eigenvalues --    0.11012   0.11213   0.11535   0.12340   0.12459

  Beta  occ. eigenvalues --  -88.73931 -19.03490 -14.20306 -10.13062 -10.12039
  Beta  occ. eigenvalues --  -10.11994 -10.10514 -10.10263 -10.09176 -10.09061
  Beta  occ. eigenvalues --  -10.07603 -10.07370 -10.06933 -10.05914 -10.05624
  Beta  occ. eigenvalues --   -7.82567  -5.78956  -5.78592  -5.77935  -0.94965
  Beta  occ. eigenvalues --   -0.81874  -0.74290  -0.70087  -0.67960  -0.66112
  Beta  occ. eigenvalues --   -0.64503  -0.59591  -0.58219  -0.55771  -0.54557
  Beta  occ. eigenvalues --   -0.52603  -0.51920  -0.46712  -0.44352  -0.41097
  Beta  occ. eigenvalues --   -0.39249  -0.38811  -0.37544  -0.37271  -0.35971
  Beta  occ. eigenvalues --   -0.35534  -0.35135  -0.34032  -0.32742  -0.31801
  Beta  occ. eigenvalues --   -0.31261  -0.30579  -0.29716  -0.29317  -0.28661
  Beta  occ. eigenvalues --   -0.28259  -0.27749  -0.26898  -0.26554  -0.25808
  Beta  occ. eigenvalues --   -0.23905  -0.23717  -0.23079  -0.22405  -0.22161
  Beta  occ. eigenvalues --   -0.20505  -0.17153  -0.13705  -0.12054
  Beta virt. eigenvalues --    0.06244   0.06869   0.07179   0.07692   0.08222
  Beta virt. eigenvalues --    0.08936   0.09069   0.09375   0.10009   0.10452
  Beta virt. eigenvalues --    0.10922   0.11167   0.11580   0.11907   0.12647

 Mulliken charges and spin densities:
               1          2
     1  C    0.860190  -1.550720
     2  C   -1.164665   1.881031
     3  C   -0.005639  -0.694738
     4  C   -0.325934  -0.258971
     5  C    0.651624  -1.308296
     6  N    0.193420   0.004443
     7  C   -1.522781   0.599939
     8  C    1.411702  -0.056488
     9  C   -0.248040   0.149724
    10  C   -0.295043  -0.175229
    11  O   -0.123830   0.025066
    12  C    0.151323  -0.838601
    13  C   -0.633034   0.195243
    14  S   -0.171083  -0.094303
    15  C    0.712634  -1.344004
    16  H   -0.381752   0.538382
    17  H   -0.137022   0.260269
    18  H   -0.124125   0.265540
    19  H    0.046892   0.102303
    20  H    0.016889   0.136064
    21  H   -0.003779   0.140755
    22  H   -0.141102   0.292567
    23  H    0.255787  -0.086668
    24  H   -0.043145   0.187649
    25  H   -0.095333   0.229516
    26  H   -0.174177   0.333349
    27  H    0.232476  -0.002304
    28  H   -0.017913   0.165137
    29  H    0.914590  -0.696689
    30  H    0.062924   0.036348
    31  H    0.188764  -0.009322
    32  H    0.140346   0.040626
    33  H    0.081158   0.050886
    34  H    0.200451  -0.034600
    35  H   -0.384189   0.586793
    36  H   -0.296744   0.478473
    37  H    0.549027  -0.430462
    38  H   -0.618099   0.759980
    39  H   -0.378609   0.571471
    40  H   -0.384160   0.549840
 Sum of Mulliken charges =  -1.00000   1.00000

 Dipole moment (field-independent basis, Debye):
    X=             -3.3502    Y=              3.2154    Z=             -6.9117  Tot=              8.3267
 Quadrupole moment (field-independent basis, Debye-Ang):
   XX=           -178.9245   YY=           -161.3487   ZZ=           -148.6957
   XY=             -4.1193   XZ=             -0.1049   YZ=              1.6721

 Summary of Natural Population Analysis:

                                       Natural Population
                Natural  -----------------------------------------------
    Atom  No    Charge         Core      Valence    Rydberg      Total
 -----------------------------------------------------------------------
      C    1   -0.28762      0.99965     2.28213    0.00585     3.28762
      C    2   -0.11081      0.99959     2.10096    0.01026     3.11081
      C    3   -0.28696      0.99965     2.28135    0.00596     3.28696
      C    4   -0.01161      0.99957     1.99892    0.01312     3.01161
      C    5   -0.29045      0.99964     2.28473    0.00608     3.29045
      N    6   -0.34765      0.99973     2.83725    0.01067     3.84765
      C    7   -0.09319      0.99954     2.07929    0.01436     3.09319
      C    8   -0.08724      0.99953     2.07131    0.01640     3.08724
      C    9   -0.21229      0.99957     2.20422    0.00850     3.21229
      C   10   -0.00923      0.99958     1.99787    0.01178     3.00923
      O   11   -0.30070      0.99989     3.29229    0.00852     4.30070
      C   12   -0.01020      0.99957     1.99670    0.01392     3.01020
      C   13   -0.22113      0.99955     2.20862    0.01296     3.22113
      S   14    0.08474      4.99957     2.89872    0.01697     7.91526
      C   15   -0.35109      0.99962     2.34502    0.00645     3.35109
      H   16    0.09992      0.00000     0.39871    0.00137     0.40008
      H   17    0.09869      0.00000     0.40025    0.00106     0.40131
      H   18    0.09897      0.00000     0.40009    0.00094     0.40103
      H   19    0.09021      0.00000     0.40798    0.00181     0.40979
      H   20    0.09755      0.00000     0.40124    0.00121     0.40245
      H   21    0.10373      0.00000     0.39523    0.00104     0.39627
      H   22    0.09725      0.00000     0.40199    0.00076     0.40275
      H   23    0.08901      0.00000     0.40802    0.00297     0.41099
      H   24    0.09601      0.00000     0.40302    0.00097     0.40399
      H   25    0.09922      0.00000     0.39966    0.00112     0.40078
      H   26    0.10623      0.00000     0.39284    0.00093     0.39377
      H   27    0.17457      0.00000     0.32275    0.00268     0.32543
      H   28    0.09588      0.00000     0.40285    0.00126     0.40412
      H   29    0.10182      0.00000     0.39652    0.00166     0.39818
      H   30    0.09924      0.00000     0.39916    0.00160     0.40076
      H   31    0.10442      0.00000     0.39461    0.00097     0.39558
      H   32    0.08791      0.00000     0.41107    0.00102     0.41209
      H   33    0.08396      0.00000     0.41465    0.00139     0.41604
      H   34    0.08374      0.00000     0.41481    0.00145     0.41626
      H   35    0.09331      0.00000     0.40538    0.00131     0.40669
      H   36    0.11020      0.00000     0.38762    0.00217     0.38980
      H   37    0.10504      0.00000     0.39225    0.00270     0.39496
      H   38    0.10368      0.00000     0.39424    0.00208     0.39632
      H   39    0.10421      0.00000     0.39325    0.00254     0.39579
      H   40    0.11066      0.00000     0.38806    0.00128     0.38934
 =======================================================================
   * Total *    0.00000     18.99424    44.80567    0.20009    64.00000

 Normal termination of Gaussian 16 at Thu Dec 10 17:05:35 2020.
