 Gaussian 16, Revision A.03,

 -----------------------------------------------------------
 # opt freq B3LYP/6-31G(d) empiricaldispersion=gd3bj scf=xqc
 -----------------------------------------------------------

 ------------------------------
 CID_21800317_JID_7193_neutraal
 ------------------------------
 Symbolic Z-matrix:
 Charge =  0 Multiplicity = 1

 SCF Done:  E(RB3LYP) =  -805.998971894     A.U. after   14 cycles
 SCF Done:  E(RB3LYP) =  -806.003751979     A.U. after   13 cycles
 SCF Done:  E(RB3LYP) =  -806.003433657     A.U. after   14 cycles
 SCF Done:  E(RB3LYP) =  -806.005976863     A.U. after   13 cycles
 SCF Done:  E(RB3LYP) =  -806.006630892     A.U. after   13 cycles
 SCF Done:  E(RB3LYP) =  -806.007200872     A.U. after   13 cycles
 SCF Done:  E(RB3LYP) =  -806.006999050     A.U. after   13 cycles
 SCF Done:  E(RB3LYP) =  -806.007927681     A.U. after   12 cycles
 SCF Done:  E(RB3LYP) =  -806.008271169     A.U. after   13 cycles
 SCF Done:  E(RB3LYP) =  -806.008663582     A.U. after   13 cycles
 SCF Done:  E(RB3LYP) =  -806.010791498     A.U. after   10 cycles
 SCF Done:  E(RB3LYP) =  -806.010795283     A.U. after    9 cycles
 SCF Done:  E(RB3LYP) =  -806.010796846     A.U. after    8 cycles
 SCF Done:  E(RB3LYP) =  -806.010797156     A.U. after    8 cycles
 SCF Done:  E(RB3LYP) =  -806.010797159     A.U. after    7 cycles
 Optimization completed.
    -- Stationary point found.
 Normal termination of Gaussian 16 at Sun Dec 13 16:34:08 2020.

 --------------------------------------------------------------------
 #N Geom=AllCheck Guess=TCheck SCRF=Check GenChk RB3LYP/6-31G(d) Freq
 --------------------------------------------------------------------

 Structure from the checkpoint file:  "JID_7193.chk"
 ------------------------------
 CID_21800317_JID_7193_neutraal
 ------------------------------
 Charge =  0 Multiplicity = 1

 SCF Done:  E(RB3LYP) =  -806.010797159     A.U. after    1 cycles

  Exact polarizability: 134.743  17.022 145.239   2.775  -0.642 131.377
 Approx polarizability: 174.136  30.265 211.911   4.212   0.100 244.362

                      1                      2                      3
                      A                      A                      A
 Frequencies --     32.4730                45.7488                46.9469
 Red. masses --      3.5100                 5.0648                 7.1659
 Frc consts  --      0.0022                 0.0062                 0.0093
 IR Inten    --      0.2314                 0.6320                 0.1414

                      4                      5                      6
                      A                      A                      A
 Frequencies --     55.1508                72.9006                81.4785
 Red. masses --      6.4558                 4.7100                 3.6530
 Frc consts  --      0.0116                 0.0147                 0.0143
 IR Inten    --      1.6963                 1.4464                 0.1901

                      7                      8                      9
                      A                      A                      A
 Frequencies --     93.9173               125.7351               136.0596
 Red. masses --      4.1816                 5.4665                 2.1110
 Frc consts  --      0.0217                 0.0509                 0.0230
 IR Inten    --      0.9300                 0.7488                 0.5767

                     10                     11                     12
                      A                      A                      A
 Frequencies --    183.4819               212.5262               251.3179
 Red. masses --      3.2445                 5.3283                 1.2543
 Frc consts  --      0.0644                 0.1418                 0.0467
 IR Inten    --      1.2387                 0.4071                 1.0603

                     13                     14                     15
                      A                      A                      A
 Frequencies --    266.3162               288.6438               335.6294
 Red. masses --      3.8521                 5.9362                 3.2029
 Frc consts  --      0.1610                 0.2914                 0.2126
 IR Inten    --      2.1973                 2.1974                 2.4896

                     16                     17                     18
                      A                      A                      A
 Frequencies --    342.3248               371.9677               415.7611
 Red. masses --      3.3390                 4.0761                 2.9717
 Frc consts  --      0.2305                 0.3323                 0.3027
 IR Inten    --      0.6801                13.2994                 0.1108

                     19                     20                     21
                      A                      A                      A
 Frequencies --    462.4672               499.4832               512.2121
 Red. masses --      3.9216                 2.1918                 3.4521
 Frc consts  --      0.4942                 0.3222                 0.5336
 IR Inten    --      1.0990                 4.7679                 2.6966

                     22                     23                     24
                      A                      A                      A
 Frequencies --    582.3815               613.2813               629.3521
 Red. masses --      3.2587                 3.9293                 3.4284
 Frc consts  --      0.6512                 0.8707                 0.8001
 IR Inten    --     30.8038                62.0858                 3.3030

                     25                     26                     27
                      A                      A                      A
 Frequencies --    641.6397               650.0781               713.7536
 Red. masses --      3.5008                 1.6823                 1.8542
 Frc consts  --      0.8492                 0.4189                 0.5566
 IR Inten    --     10.0294                70.8196                37.7201

                     28                     29                     30
                      A                      A                      A
 Frequencies --    722.1958               755.3909               772.7314
 Red. masses --      4.5260                 3.3132                 2.1455
 Frc consts  --      1.3908                 1.1139                 0.7548
 IR Inten    --     11.8671                19.1994                12.5415

                     31                     32                     33
                      A                      A                      A
 Frequencies --    789.8042               828.6137               860.6734
 Red. masses --      1.3730                 3.7552                 1.3595
 Frc consts  --      0.5046                 1.5191                 0.5933
 IR Inten    --      0.0685                19.9419                 1.1533

                     34                     35                     36
                      A                      A                      A
 Frequencies --    862.3788               895.1981               924.6140
 Red. masses --      2.5108                 3.0242                 1.6840
 Frc consts  --      1.1002                 1.4279                 0.8482
 IR Inten    --      2.8257                 1.3881                 5.8898

                     37                     38                     39
                      A                      A                      A
 Frequencies --    933.0957               948.1225               971.4418
 Red. masses --      1.5232                 2.4680                 1.3574
 Frc consts  --      0.7814                 1.3071                 0.7547
 IR Inten    --      5.7698                24.7468                 0.1259

                     40                     41                     42
                      A                      A                      A
 Frequencies --    990.1823               994.5252               997.1658
 Red. masses --      2.1822                 2.3855                 1.3806
 Frc consts  --      1.2606                 1.3901                 0.8088
 IR Inten    --     15.6882                14.3321                 3.0092

                     43                     44                     45
                      A                      A                      A
 Frequencies --   1023.6497              1062.0653              1070.9978
 Red. masses --      6.2450                 2.3407                 2.3919
 Frc consts  --      3.8555                 1.5556                 1.6165
 IR Inten    --      1.3084                 0.8197                11.6884

                     46                     47                     48
                      A                      A                      A
 Frequencies --   1089.1029              1116.7405              1126.2380
 Red. masses --      3.0693                 1.6434                 1.9520
 Frc consts  --      2.1450                 1.2075                 1.4588
 IR Inten    --     13.1875                 7.1910                 5.3352

                     49                     50                     51
                      A                      A                      A
 Frequencies --   1180.9885              1192.6616              1195.0948
 Red. masses --      1.7440                 2.1637                 1.1217
 Frc consts  --      1.4332                 1.8133                 0.9439
 IR Inten    --    146.8128               203.2003                 5.5724

                     52                     53                     54
                      A                      A                      A
 Frequencies --   1203.2658              1217.8933              1221.1486
 Red. masses --      1.7483                 2.5852                 1.1600
 Frc consts  --      1.4914                 2.2592                 1.0192
 IR Inten    --     14.7511                11.2502                 0.3851

                     55                     56                     57
                      A                      A                      A
 Frequencies --   1254.0076              1301.1578              1309.8497
 Red. masses --      1.6873                 1.4435                 1.2609
 Frc consts  --      1.5633                 1.4399                 1.2746
 IR Inten    --    149.8918                38.1927                17.0675

                     58                     59                     60
                      A                      A                      A
 Frequencies --   1322.0597              1326.3432              1365.2163
 Red. masses --      1.2808                 1.7759                 2.6165
 Frc consts  --      1.3190                 1.8407                 2.8733
 IR Inten    --     41.6523                 5.9122                23.2103

                     61                     62                     63
                      A                      A                      A
 Frequencies --   1375.0939              1391.1118              1397.2005
 Red. masses --      2.3094                 1.5318                 1.3420
 Frc consts  --      2.5729                 1.7465                 1.5435
 IR Inten    --     23.6367                24.2267                 7.2041

                     64                     65                     66
                      A                      A                      A
 Frequencies --   1405.2698              1429.7833              1449.5096
 Red. masses --      1.4624                 1.4442                 1.2792
 Frc consts  --      1.7015                 1.7395                 1.5835
 IR Inten    --     23.4308                16.2400                10.5036

                     67                     68                     69
                      A                      A                      A
 Frequencies --   1498.5430              1506.1695              1509.3056
 Red. masses --      1.0945                 2.0622                 1.1021
 Frc consts  --      1.4481                 2.7564                 1.4793
 IR Inten    --     15.5361                 4.1773                 4.3037

                     70                     71                     72
                      A                      A                      A
 Frequencies --   1519.9991              1531.3414              1538.3203
 Red. masses --      1.0706                 1.0781                 1.0662
 Frc consts  --      1.4574                 1.4896                 1.4866
 IR Inten    --      1.3395                18.8610                 4.0956

                     73                     74                     75
                      A                      A                      A
 Frequencies --   1547.4883              1647.0948              1665.3795
 Red. masses --      2.1190                 5.4921                 5.5028
 Frc consts  --      2.9898                 8.7785                 8.9920
 IR Inten    --     13.3280                 1.3766                 3.3831

                     76                     77                     78
                      A                      A                      A
 Frequencies --   1816.8687              1853.8413              3040.8693
 Red. masses --     10.9444                 9.7360                 1.0609
 Frc consts  --     21.2857                19.7141                 5.7798
 IR Inten    --    160.7137               300.3134                30.9621

                     79                     80                     81
                      A                      A                      A
 Frequencies --   3062.4180              3062.6785              3075.8481
 Red. masses --      1.0389                 1.0694                 1.0980
 Frc consts  --      5.7408                 5.9101                 6.1207
 IR Inten    --     11.4657                15.4547                16.8476

                     82                     83                     84
                      A                      A                      A
 Frequencies --   3092.3447              3125.8353              3126.9557
 Red. masses --      1.0625                 1.1027                 1.0852
 Frc consts  --      5.9864                 6.3482                 6.2520
 IR Inten    --     51.8787                25.8988                 1.2974

                     85                     86                     87
                      A                      A                      A
 Frequencies --   3148.1759              3152.5337              3157.0681
 Red. masses --      1.1010                 1.1064                 1.0932
 Frc consts  --      6.4291                 6.4788                 6.4199
 IR Inten    --     12.8252                16.1901                 5.8430

                     88                     89                     90
                      A                      A                      A
 Frequencies --   3184.4821              3193.8475              3204.3849
 Red. masses --      1.0851                 1.0883                 1.0918
 Frc consts  --      6.4830                 6.5410                 6.6049
 IR Inten    --      0.4533                 8.8384                21.5070

                     91                     92                     93
                      A                      A                      A
 Frequencies --   3211.4289              3216.2750              3680.3166
 Red. masses --      1.0936                 1.0972                 1.0640
 Frc consts  --      6.6451                 6.6873                 8.4909
 IR Inten    --     17.6924                 7.1222                55.8849

 - Thermochemistry -
 -------------------
 Temperature   298.150 Kelvin.  Pressure   1.00000 Atm.
 Atom     1 has atomic number  6 and mass  12.00000

 Molecular mass:   236.10486 amu.
 Principal axes and moments of inertia in atomic units:
                           1         2         3
     Eigenvalues --  3033.317984716.386516401.75208
           X            0.99994   0.01077   0.00101
           Y           -0.01077   0.99993   0.00509
           Z           -0.00096  -0.00510   0.99999
 This molecule is an asymmetric top.
 Rotational symmetry number  1.
 Warning -- assumption of classical behavior for rotation
           may cause significant error
 Rotational temperatures (Kelvin)      0.02855     0.01836     0.01353
 Rotational constants (GHZ):           0.59497     0.38265     0.28191
 Zero-point vibrational energy     719586.2 (Joules/Mol)
                                  171.98524 (Kcal/Mol)
 Warning -- explicit consideration of  23 degrees of freedom as
           vibrations may cause significant error
 Vibrational temperatures:     46.72    65.82    67.55    79.35   104.89
          (Kelvin)            117.23   135.13   180.90   195.76   263.99
                              305.78   361.59   383.17   415.29   482.90
                              492.53   535.18   598.19   665.39   718.64
                              736.96   837.92   882.38   905.50   923.18
                              935.32  1026.93  1039.08  1086.84  1111.79
                             1136.35  1192.19  1238.32  1240.77  1287.99
                             1330.31  1342.52  1364.14  1397.69  1424.65
                             1430.90  1434.70  1472.80  1528.08  1540.93
                             1566.98  1606.74  1620.41  1699.18  1715.97
                             1719.47  1731.23  1752.28  1756.96  1804.24
                             1872.08  1884.58  1902.15  1908.31  1964.24
                             1978.45  2001.50  2010.26  2021.87  2057.14
                             2085.52  2156.07  2167.04  2171.55  2186.94
                             2203.26  2213.30  2226.49  2369.80  2396.11
                             2614.07  2667.26  4375.13  4406.14  4406.51
                             4425.46  4449.19  4497.38  4498.99  4529.52
                             4535.79  4542.32  4581.76  4595.23  4610.40
                             4620.53  4627.50  5295.15

 Zero-point correction=                           0.274076 (Hartree/Particle)
 Thermal correction to Energy=                    0.290700
 Thermal correction to Enthalpy=                  0.291644
 Thermal correction to Gibbs Free Energy=         0.227925
 Sum of electronic and zero-point Energies=           -805.736721
 Sum of electronic and thermal Energies=              -805.720097
 Sum of electronic and thermal Enthalpies=            -805.719153
 Sum of electronic and thermal Free Energies=         -805.782873

                     E (Thermal)             CV                S
                      KCal/Mol        Cal/Mol-Kelvin    Cal/Mol-Kelvin
 Total                  182.417             61.292            134.110
 Electronic               0.000              0.000              0.000
 Translational            0.889              2.981             42.279
 Rotational               0.889              2.981             32.882
 Vibrational            180.640             55.330             58.949
 Vibration     1          0.594              1.983              5.672
 Vibration     2          0.595              1.979              4.993
 Vibration     3          0.595              1.979              4.942
 Vibration     4          0.596              1.976              4.624
 Vibration     5          0.599              1.967              4.073
 Vibration     6          0.600              1.962              3.855
 Vibration     7          0.603              1.954              3.577
 Vibration     8          0.611              1.927              3.010
 Vibration     9          0.614              1.917              2.859
 Vibration    10          0.631              1.862              2.293
 Vibration    11          0.644              1.822              2.022
 Vibration    12          0.663              1.761              1.721
 Vibration    13          0.672              1.735              1.620
 Vibration    14          0.685              1.695              1.482
 Vibration    15          0.717              1.604              1.233
 Vibration    16          0.721              1.591              1.201
 Vibration    17          0.744              1.530              1.072
 Vibration    18          0.779              1.436              0.906
 Vibration    19          0.820              1.333              0.759
 Vibration    20          0.855              1.251              0.659
 Vibration    21          0.867              1.223              0.628
 Vibration    22          0.939              1.069              0.481
 Vibration    23          0.973              1.004              0.427

                           ! Non-Optimized Parameters !
 Normal termination of Gaussian 16 at Sun Dec 13 16:46:37 2020.

 ----------------------------------------------------------------------
 # B3LYP/6-311++G(d,p) empiricaldispersion=gd3bj scf=xqc pop=npa geom=c
 heck
 ----------------------------------------------------------------------

 --------------------------------------
 CID_21800317_JID_7193_Energie_neutraal
 --------------------------------------
 Structure from the checkpoint file:  "JID_7193.chk"
 Charge =  0 Multiplicity = 1

 SCF Done:  E(RB3LYP) =  -806.247873883     A.U. after   15 cycles
 Normal termination of Gaussian 16 at Sun Dec 13 16:52:40 2020.

 ----------------------------------------------------------------------
 # B3LYP/6-311++G(d,p) empiricaldispersion=gd3bj scf=xqc pop=npa geom=c
 heck
 ----------------------------------------------------------------------

 ------------------------------------
 CID_21800317_JID_7193_Energie_kation
 ------------------------------------
 Structure from the checkpoint file:  "JID_7193.chk"
 Charge =  1 Multiplicity = 2

 SCF Done:  E(UB3LYP) =  -805.923851431     A.U. after   27 cycles
 Normal termination of Gaussian 16 at Sun Dec 13 17:08:10 2020.
 Gaussian 16:  ES64L-G16RevA.03 25-Dec-2016

 ----------------------------------------------------------------------
 # B3LYP/6-311++G(d,p) empiricaldispersion=gd3bj scf=xqc pop=npa geom=c
 heck
 ----------------------------------------------------------------------

 -----------------------------------
 CID_21800317_JID_7193_Energie_anion
 -----------------------------------
 Structure from the checkpoint file:  "JID_7193.chk"
 Charge = -1 Multiplicity = 2

                         Standard orientation:
 ---------------------------------------------------------------------
 Center     Atomic      Atomic             Coordinates (Angstroms)
 Number     Number       Type             X           Y           Z
 ---------------------------------------------------------------------
      1          6           0        2.941420    1.043161   -0.074507
      2          6           0        3.742187   -0.130616   -0.643444
      3          6           0        3.249948   -1.490491   -0.162662
      4          8           0        1.877001   -1.692262   -0.579703
      5          6           0        0.921651   -1.616438    0.367747
      6          8           0        1.128891   -1.456488    1.552339
      7          6           0       -0.458904   -1.759860   -0.242310
      8          6           0       -1.437879   -0.788863    0.446775
      9          6           0       -1.020747    0.662581    0.235216
     10          6           0       -0.552976    1.412035    1.319083
     11          6           0       -0.120510    2.725662    1.138951
     12          6           0       -0.150530    3.305114   -0.129537
     13          6           0       -0.615962    2.563294   -1.216544
     14          6           0       -1.048769    1.249946   -1.036376
     15          6           0       -2.876123   -0.998049    0.005867
     16          8           0       -3.841702   -0.937491    0.730583
     17          8           0       -2.984736   -1.243198   -1.328145
     18          1           0        1.906551    1.024086   -0.426377
     19          1           0        3.377628    1.998545   -0.384560
     20          1           0        2.918565    1.016300    1.020094
     21          1           0        3.713338   -0.107591   -1.740245
     22          1           0        4.798932   -0.048502   -0.354621
     23          1           0        3.817172   -2.305254   -0.620971
     24          1           0        3.299826   -1.575590    0.924749
     25          1           0       -0.411538   -1.583899   -1.317581
     26          1           0       -0.789530   -2.795510   -0.091445
     27          1           0       -1.426461   -0.992499    1.518931
     28          1           0       -0.509102    0.953490    2.301944
     29          1           0        0.244542    3.293346    1.990063
     30          1           0        0.188099    4.327443   -0.271456
     31          1           0       -0.643061    3.007263   -2.207763
     32          1           0       -1.416273    0.679982   -1.884130
     33          1           0       -3.941152   -1.320956   -1.506782
 ---------------------------------------------------------------------

 SCF Done:  E(UB3LYP) =  -806.237620690     A.U. after   33 cycles
 SCF Done:  E(UB3LYP) =  -806.237620690     a.u. after    1 cycles

 The electronic state is 2-A.
 Alpha  occ. eigenvalues --  -19.07648 -19.07084 -19.01991 -19.01782 -10.21138
 Alpha  occ. eigenvalues --  -10.20831 -10.13318 -10.10326 -10.09339 -10.08709
 Alpha  occ. eigenvalues --  -10.08109 -10.07856 -10.07844 -10.07724 -10.07532
 Alpha  occ. eigenvalues --  -10.07446 -10.06068  -1.01550  -1.01168  -0.93097
 Alpha  occ. eigenvalues --   -0.92332  -0.76847  -0.72350  -0.69983  -0.65163
 Alpha  occ. eigenvalues --   -0.65032  -0.61961  -0.58429  -0.52795  -0.51663
 Alpha  occ. eigenvalues --   -0.50996  -0.48340  -0.46704  -0.42865  -0.41758
 Alpha  occ. eigenvalues --   -0.40566  -0.38883  -0.38703  -0.38101  -0.37474
 Alpha  occ. eigenvalues --   -0.35790  -0.35262  -0.34892  -0.34124  -0.32578
 Alpha  occ. eigenvalues --   -0.32163  -0.31448  -0.30139  -0.29435  -0.27879
 Alpha  occ. eigenvalues --   -0.27379  -0.26969  -0.26937  -0.25333  -0.24787
 Alpha  occ. eigenvalues --   -0.24537  -0.24348  -0.22690  -0.21206  -0.19612
 Alpha  occ. eigenvalues --   -0.18551  -0.16049  -0.15466   0.04170
 Alpha virt. eigenvalues --    0.05749   0.06570   0.06966   0.07788   0.08002
 Alpha virt. eigenvalues --    0.08107   0.08547   0.09360   0.09418   0.09565
 Alpha virt. eigenvalues --    0.10128   0.10673   0.11028   0.11874   0.12528

  Beta  occ. eigenvalues --  -19.07639 -19.07025 -19.01987 -19.01748 -10.21133
  Beta  occ. eigenvalues --  -10.20797 -10.13303 -10.10326 -10.09305 -10.08639
  Beta  occ. eigenvalues --  -10.08092 -10.07848 -10.07843 -10.07716 -10.07454
  Beta  occ. eigenvalues --  -10.07408 -10.06057  -1.01535  -1.01071  -0.93084
  Beta  occ. eigenvalues --   -0.92244  -0.76748  -0.72280  -0.69942  -0.65090
  Beta  occ. eigenvalues --   -0.64939  -0.61895  -0.58363  -0.52665  -0.51611
  Beta  occ. eigenvalues --   -0.50936  -0.48242  -0.46667  -0.42798  -0.41723
  Beta  occ. eigenvalues --   -0.40511  -0.38832  -0.38653  -0.38048  -0.37412
  Beta  occ. eigenvalues --   -0.35708  -0.35215  -0.34824  -0.34093  -0.32551
  Beta  occ. eigenvalues --   -0.32128  -0.31384  -0.30059  -0.29381  -0.27831
  Beta  occ. eigenvalues --   -0.27307  -0.26905  -0.26895  -0.25245  -0.24727
  Beta  occ. eigenvalues --   -0.24498  -0.24326  -0.22568  -0.21177  -0.19569
  Beta  occ. eigenvalues --   -0.18477  -0.15881  -0.15112
  Beta virt. eigenvalues --    0.06212   0.06930   0.07016   0.07759   0.08007
  Beta virt. eigenvalues --    0.08113   0.08735   0.08913   0.09511   0.09705
  Beta virt. eigenvalues --    0.09859   0.10377   0.10769   0.11418   0.12075

 Mulliken charges and spin densities:
               1          2
     1  C   -0.571444   0.226605
     2  C    0.126355  -0.462498
     3  C    0.349487  -0.526548
     4  O    0.049472   0.028840
     5  C   -0.987016   0.529045
     6  O   -0.220187   0.002766
     7  C    1.006828  -1.274201
     8  C    1.473171  -1.404226
     9  C   -0.035227   0.939637
    10  C   -0.588377   0.602855
    11  C   -0.483467   0.115252
    12  C    0.449753  -0.698933
    13  C   -0.032205  -0.429157
    14  C   -0.717841   0.221797
    15  C   -0.197726  -0.112621
    16  O   -0.272739   0.010822
    17  O   -0.192417   0.054008
    18  H    0.700391  -0.529410
    19  H   -0.238812   0.390651
    20  H    0.146714  -0.015000
    21  H    0.005900   0.155109
    22  H   -0.308245   0.449366
    23  H   -0.258026   0.431395
    24  H    0.119675   0.056434
    25  H    0.237728   0.008822
    26  H   -0.261562   0.489751
    27  H    0.330135  -0.058174
    28  H    0.089736   0.083649
    29  H    0.050545   0.109048
    30  H   -0.051849   0.197183
    31  H   -0.306880   0.482416
    32  H   -0.012509   0.229607
    33  H   -0.399358   0.695712
 Sum of Mulliken charges =  -1.00000   1.00000

 Dipole moment (field-independent basis, Debye):
    X=              2.5894    Y=              0.9215    Z=              2.5288  Tot=              3.7348
 Quadrupole moment (field-independent basis, Debye-Ang):
   XX=           -180.4093   YY=           -143.3329   ZZ=           -133.3216
   XY=             -5.5178   XZ=             -2.3307   YZ=              1.1925

 Summary of Natural Population Analysis:

                                       Natural Population
                Natural  -----------------------------------------------
    Atom  No    Charge         Core      Valence    Rydberg      Total
 -----------------------------------------------------------------------
      C    1   -0.28953      0.99966     2.28368    0.00619     3.28953
      C    2   -0.20056      0.99964     2.19353    0.00739     3.20056
      C    3   -0.01669      0.99955     2.00605    0.01110     3.01669
      O    4   -0.28044      0.99986     3.27142    0.00916     4.28044
      C    5    0.41487      0.99968     1.55959    0.02585     2.58513
      O    6   -0.31237      0.99987     3.30739    0.00511     4.31237
      C    7   -0.22832      0.99956     2.21918    0.00957     3.22832
      C    8   -0.15992      0.99951     2.14688    0.01353     3.15992
      C    9   -0.00902      0.99949     1.99799    0.01154     3.00902
      C   10   -0.09236      0.99950     2.08458    0.00828     3.09236
      C   11   -0.10084      0.99956     2.09199    0.00928     3.10084
      C   12   -0.09214      0.99956     2.08263    0.00994     3.09214
      C   13   -0.10215      0.99957     2.09260    0.00999     3.10215
      C   14   -0.09715      0.99950     2.08779    0.00986     3.09715
      C   15    0.42115      0.99967     1.55342    0.02576     2.57885
      O   16   -0.30184      0.99987     3.29592    0.00605     4.30184
      O   17   -0.34923      0.99988     3.34183    0.00753     4.34923
      H   18    0.10479      0.00000     0.39308    0.00213     0.39521
      H   19    0.09984      0.00000     0.39917    0.00099     0.40016
      H   20    0.09825      0.00000     0.40078    0.00098     0.40175
      H   21    0.09727      0.00000     0.40162    0.00111     0.40273
      H   22    0.09796      0.00000     0.40073    0.00130     0.40204
      H   23    0.09132      0.00000     0.40751    0.00117     0.40868
      H   24    0.09788      0.00000     0.40081    0.00131     0.40212
      H   25    0.11679      0.00000     0.38127    0.00194     0.38321
      H   26    0.11720      0.00000     0.38156    0.00123     0.38280
      H   27    0.12001      0.00000     0.37833    0.00166     0.37999
      H   28    0.10368      0.00000     0.39535    0.00098     0.39632
      H   29    0.09834      0.00000     0.40088    0.00077     0.40166
      H   30    0.09865      0.00000     0.40054    0.00081     0.40135
      H   31    0.10053      0.00000     0.39861    0.00087     0.39947
      H   32    0.10875      0.00000     0.38966    0.00159     0.39125
      H   33    0.24528      0.00000     0.23521    0.01951     0.25472
 =======================================================================
   * Total *   -0.00000     16.99392    45.78158    0.22450    63.00000

 Normal termination of Gaussian 16 at Sun Dec 13 17:27:21 2020.
