 Gaussian 16, Revision A.03,

 -----------------------------------------------------------
 # opt freq B3LYP/6-31G(d) empiricaldispersion=gd3bj scf=xqc
 -----------------------------------------------------------

 -------------------------------
 CID_106698064_JID_7324_neutraal
 -------------------------------
 Symbolic Z-matrix:
 Charge =  0 Multiplicity = 1

 SCF Done:  E(RB3LYP) =  -1160.98892620     A.U. after   15 cycles
 SCF Done:  E(RB3LYP) =  -1160.99825193     A.U. after   14 cycles
 SCF Done:  E(RB3LYP) =  -1160.99999810     A.U. after   13 cycles
 SCF Done:  E(RB3LYP) =  -1161.00030763     A.U. after   14 cycles
 SCF Done:  E(RB3LYP) =  -1161.00138646     A.U. after   13 cycles
 SCF Done:  E(RB3LYP) =  -1161.00130092     A.U. after   13 cycles
 SCF Done:  E(RB3LYP) =  -1161.00260542     A.U. after   13 cycles
 SCF Done:  E(RB3LYP) =  -1161.00348061     A.U. after   13 cycles
 SCF Done:  E(RB3LYP) =  -1161.00328364     A.U. after   14 cycles
 SCF Done:  E(RB3LYP) =  -1161.00415593     A.U. after   12 cycles
 SCF Done:  E(RB3LYP) =  -1161.00436251     A.U. after    8 cycles
 SCF Done:  E(RB3LYP) =  -1161.00436282     A.U. after    8 cycles
 SCF Done:  E(RB3LYP) =  -1161.00436301     A.U. after    8 cycles
 SCF Done:  E(RB3LYP) =  -1161.00436308     A.U. after    8 cycles
 SCF Done:  E(RB3LYP) =  -1161.00436311     A.U. after    7 cycles
 SCF Done:  E(RB3LYP) =  -1161.00436312     A.U. after    7 cycles
 Optimization completed.
    -- Stationary point found.
 Normal termination of Gaussian 16 at Sun Dec 13 20:16:12 2020.

 --------------------------------------------------------------------
 #N Geom=AllCheck Guess=TCheck SCRF=Check GenChk RB3LYP/6-31G(d) Freq
 --------------------------------------------------------------------

 Structure from the checkpoint file:  "JID_7324.chk"
 -------------------------------
 CID_106698064_JID_7324_neutraal
 -------------------------------
 Charge =  0 Multiplicity = 1

 SCF Done:  E(RB3LYP) =  -1161.00436312     A.U. after    1 cycles

  Exact polarizability: 220.603  10.005 163.003   7.916  -0.108  94.145
 Approx polarizability: 292.070  28.020 293.442  20.036  -4.287 147.361

                      1                      2                      3
                      A                      A                      A
 Frequencies --     17.8905                31.3880                35.9908
 Red. masses --      4.1891                 3.7849                 9.8123
 Frc consts  --      0.0008                 0.0022                 0.0075
 IR Inten    --      0.0498                 0.1427                 0.7038

                      4                      5                      6
                      A                      A                      A
 Frequencies --     54.2018                62.1475                86.0810
 Red. masses --      3.8405                 4.4480                 5.7845
 Frc consts  --      0.0066                 0.0101                 0.0253
 IR Inten    --      2.6468                 0.1967                 0.6730

                      7                      8                      9
                      A                      A                      A
 Frequencies --    130.9115               153.6402               165.7049
 Red. masses --      6.6463                 4.8021                 2.2289
 Frc consts  --      0.0671                 0.0668                 0.0361
 IR Inten    --      4.7966                 2.5266                 0.1796

                     10                     11                     12
                      A                      A                      A
 Frequencies --    172.5706               202.6555               206.5198
 Red. masses --      1.5790                 2.7043                 1.6268
 Frc consts  --      0.0277                 0.0654                 0.0409
 IR Inten    --      1.6348                11.4387                 0.7434

                     13                     14                     15
                      A                      A                      A
 Frequencies --    233.8628               276.2723               280.9986
 Red. masses --      2.6472                 3.0568                 3.0510
 Frc consts  --      0.0853                 0.1375                 0.1419
 IR Inten    --      4.8328                 2.1072                 1.1633

                     16                     17                     18
                      A                      A                      A
 Frequencies --    289.3891               333.5215               363.7420
 Red. masses --      6.3427                 3.8780                 1.6846
 Frc consts  --      0.3130                 0.2542                 0.1313
 IR Inten    --      0.2326                 1.7493                77.3376

                     19                     20                     21
                      A                      A                      A
 Frequencies --    380.6108               389.5709               419.6991
 Red. masses --      4.6453                 2.4363                 6.7688
 Frc consts  --      0.3965                 0.2178                 0.7025
 IR Inten    --      5.1619                37.6669                 1.8386

                     22                     23                     24
                      A                      A                      A
 Frequencies --    472.4384               487.9822               528.1519
 Red. masses --      3.0420                 3.7296                 2.7725
 Frc consts  --      0.4000                 0.5233                 0.4557
 IR Inten    --     14.8989                 0.8676                 4.6042

                     25                     26                     27
                      A                      A                      A
 Frequencies --    579.2146               598.9188               608.2087
 Red. masses --      3.7258                 3.9705                 2.4385
 Frc consts  --      0.7365                 0.8391                 0.5315
 IR Inten    --      2.9502                39.2895                 3.6769

                     28                     29                     30
                      A                      A                      A
 Frequencies --    637.8936               672.1762               687.7700
 Red. masses --      4.4805                 3.1059                 4.9150
 Frc consts  --      1.0742                 0.8268                 1.3698
 IR Inten    --      8.3294                42.0681                84.1200

                     31                     32                     33
                      A                      A                      A
 Frequencies --    693.8222               775.2977               781.4727
 Red. masses --      3.5116                 3.3168                 2.8475
 Frc consts  --      0.9960                 1.1747                 1.0246
 IR Inten    --     73.8732                 5.4024                 6.2982

                     34                     35                     36
                      A                      A                      A
 Frequencies --    803.4693               862.8159               866.5054
 Red. masses --      6.1588                 4.2678                 1.1602
 Frc consts  --      2.3425                 1.8720                 0.5132
 IR Inten    --     11.3339                 4.1356                 6.0881

                     37                     38                     39
                      A                      A                      A
 Frequencies --    904.7665               910.1177               983.8952
 Red. masses --      2.3768                 1.9832                 1.3088
 Frc consts  --      1.1463                 0.9679                 0.7465
 IR Inten    --     17.0280                 0.7403                 1.5386

                     40                     41                     42
                      A                      A                      A
 Frequencies --   1001.5703              1027.1168              1046.2958
 Red. masses --      3.4497                 2.7993                 1.6840
 Frc consts  --      2.0389                 1.7400                 1.0862
 IR Inten    --     47.6231                 3.0913                 2.1451

                     43                     44                     45
                      A                      A                      A
 Frequencies --   1055.4547              1072.4602              1085.0596
 Red. masses --      1.7710                 2.6013                 1.5973
 Frc consts  --      1.1624                 1.7628                 1.1080
 IR Inten    --      5.2313                 5.0152                 2.7715

                     46                     47                     48
                      A                      A                      A
 Frequencies --   1097.7986              1126.1482              1157.7777
 Red. masses --      4.1992                 1.5180                 1.3621
 Frc consts  --      2.9817                 1.1343                 1.0758
 IR Inten    --     29.1603                 3.8461                 9.2549

                     49                     50                     51
                      A                      A                      A
 Frequencies --   1185.3814              1198.1143              1210.9064
 Red. masses --      1.6645                 2.8501                 1.6687
 Frc consts  --      1.3780                 2.4105                 1.4416
 IR Inten    --     14.0128               302.4818                 1.9528

                     52                     53                     54
                      A                      A                      A
 Frequencies --   1235.9444              1251.6719              1283.4333
 Red. masses --      2.2416                 1.4458                 1.3103
 Frc consts  --      2.0175                 1.3345                 1.2716
 IR Inten    --     54.5784                 3.3053               105.4478

                     55                     56                     57
                      A                      A                      A
 Frequencies --   1295.5762              1334.1395              1363.8390
 Red. masses --      3.6471                 4.4339                 1.3676
 Frc consts  --      3.6068                 4.6499                 1.4987
 IR Inten    --    341.1592                16.4914                30.3521

                     58                     59                     60
                      A                      A                      A
 Frequencies --   1409.2890              1418.8149              1421.5769
 Red. masses --      3.2219                 1.4525                 1.3293
 Frc consts  --      3.7702                 1.7228                 1.5827
 IR Inten    --    255.5316                 7.5216                39.0126

                     61                     62                     63
                      A                      A                      A
 Frequencies --   1448.8136              1456.3747              1478.8102
 Red. masses --      1.4531                 1.5458                 1.0625
 Frc consts  --      1.7971                 1.9318                 1.3690
 IR Inten    --      6.2420                13.9578                20.8911

                     64                     65                     66
                      A                      A                      A
 Frequencies --   1501.5665              1516.1003              1521.9838
 Red. masses --      1.0518                 1.5377                 1.0765
 Frc consts  --      1.3972                 2.0824                 1.4693
 IR Inten    --      8.6097                 8.8278                12.6017

                     67                     68                     69
                      A                      A                      A
 Frequencies --   1524.7892              1534.2984              1548.3979
 Red. masses --      1.3879                 1.1810                 1.0776
 Frc consts  --      1.9013                 1.6380                 1.5222
 IR Inten    --     22.5186                12.1811                52.6969

                     70                     71                     72
                      A                      A                      A
 Frequencies --   1557.8660              1596.0424              1729.1025
 Red. masses --      6.4046                 7.6191                10.4308
 Frc consts  --      9.1580                11.4352                18.3743
 IR Inten    --    147.7914               756.2671               151.8875

                     73                     74                     75
                      A                      A                      A
 Frequencies --   1818.7857              3039.8839              3044.8478
 Red. masses --      9.8084                 1.0601                 1.0491
 Frc consts  --     19.1166                 5.7717                 5.7303
 IR Inten    --    283.0004                34.0211                29.2890

                     76                     77                     78
                      A                      A                      A
 Frequencies --   3079.8504              3100.5440              3110.2246
 Red. masses --      1.0351                 1.0996                 1.0929
 Frc consts  --      5.7846                 6.2282                 6.2288
 IR Inten    --      3.1887                35.9852                10.9400

                     79                     80                     81
                      A                      A                      A
 Frequencies --   3121.7488              3144.5973              3149.2685
 Red. masses --      1.0989                 1.0557                 1.0887
 Frc consts  --      6.3094                 6.1508                 6.3620
 IR Inten    --     11.7924                15.1674                20.1026

                     82                     83                     84
                      A                      A                      A
 Frequencies --   3150.9269              3160.2079              3175.8428
 Red. masses --      1.0986                 1.0906                 1.1060
 Frc consts  --      6.4266                 6.4172                 6.5721
 IR Inten    --      5.9473                25.3314                12.3757

                     85                     86                     87
                      A                      A                      A
 Frequencies --   3226.3436              3632.3656              3687.2377
 Red. masses --      1.1164                 1.0771                 1.0639
 Frc consts  --      6.8470                 8.3733                 8.5222
 IR Inten    --     15.6647                63.1623                70.2965

 - Thermochemistry -
 -------------------
 Temperature   298.150 Kelvin.  Pressure   1.00000 Atm.
 Atom     1 has atomic number  6 and mass  12.00000

 Molecular mass:   254.07251 amu.
 Principal axes and moments of inertia in atomic units:
                           1         2         3
     Eigenvalues --  2260.441338896.05948**********
           X            0.99998  -0.00249  -0.00489
           Y            0.00255   0.99993   0.01155
           Z            0.00486  -0.01156   0.99992
 This molecule is an asymmetric top.
 Rotational symmetry number  1.
 Warning -- assumption of classical behavior for rotation
           may cause significant error
 Rotational temperatures (Kelvin)      0.03832     0.00974     0.00814
 Rotational constants (GHZ):           0.79840     0.20287     0.16961
 Zero-point vibrational energy     642858.1 (Joules/Mol)
                                  153.64677 (Kcal/Mol)
 Warning -- explicit consideration of  27 degrees of freedom as
           vibrations may cause significant error
 Vibrational temperatures:     25.74    45.16    51.78    77.98    89.42
          (Kelvin)            123.85   188.35   221.05   238.41   248.29
                              291.58   297.14   336.48   397.49   404.29
                              416.37   479.86   523.34   547.61   560.51
                              603.85   679.73   702.10   759.89   833.36
                              861.71   875.08   917.79   967.11   989.55
                              998.26  1115.48  1124.36  1156.01  1241.40
                             1246.71  1301.76  1309.46  1415.61  1441.04
                             1477.79  1505.39  1518.56  1543.03  1561.16
                             1579.49  1620.28  1665.78  1705.50  1723.82
                             1742.22  1778.25  1800.88  1846.57  1864.05
                             1919.53  1962.26  2027.65  2041.36  2045.33
                             2084.52  2095.40  2127.68  2160.42  2181.33
                             2189.80  2193.83  2207.51  2227.80  2241.42
                             2296.35  2487.79  2616.83  4373.71  4380.86
                             4431.22  4460.99  4474.92  4491.50  4524.37
                             4531.09  4533.48  4546.83  4569.33  4641.99
                             5226.16  5305.11

 Zero-point correction=                           0.244852 (Hartree/Particle)
 Thermal correction to Energy=                    0.262501
 Thermal correction to Enthalpy=                  0.263445
 Thermal correction to Gibbs Free Energy=         0.196637
 Sum of electronic and zero-point Energies=          -1160.759511
 Sum of electronic and thermal Energies=             -1160.741862
 Sum of electronic and thermal Enthalpies=           -1160.740918
 Sum of electronic and thermal Free Energies=        -1160.807726

                     E (Thermal)             CV                S
                      KCal/Mol        Cal/Mol-Kelvin    Cal/Mol-Kelvin
 Total                  164.722             63.910            140.610
 Electronic               0.000              0.000              0.000
 Translational            0.889              2.981             42.497
 Rotational               0.889              2.981             33.725
 Vibrational            162.945             57.948             64.388
 Vibration     1          0.593              1.986              6.856
 Vibration     2          0.594              1.983              5.740
 Vibration     3          0.594              1.982              5.468
 Vibration     4          0.596              1.976              4.658
 Vibration     5          0.597              1.972              4.388
 Vibration     6          0.601              1.959              3.747
 Vibration     7          0.612              1.922              2.933
 Vibration     8          0.619              1.899              2.627
 Vibration     9          0.624              1.885              2.484
 Vibration    10          0.626              1.876              2.407
 Vibration    11          0.639              1.836              2.109
 Vibration    12          0.641              1.831              2.074
 Vibration    13          0.654              1.789              1.849
 Vibration    14          0.678              1.717              1.557
 Vibration    15          0.681              1.709              1.528
 Vibration    16          0.686              1.693              1.478
 Vibration    17          0.715              1.609              1.243
 Vibration    18          0.737              1.547              1.106
 Vibration    19          0.750              1.512              1.037
 Vibration    20          0.757              1.492              1.002
 Vibration    21          0.782              1.427              0.893
 Vibration    22          0.829              1.311              0.731
 Vibration    23          0.844              1.277              0.689
 Vibration    24          0.883              1.188              0.591
 Vibration    25          0.936              1.076              0.487
 Vibration    26          0.957              1.034              0.452
 Vibration    27          0.967              1.014              0.436

                           ! Non-Optimized Parameters !
 Normal termination of Gaussian 16 at Sun Dec 13 20:25:37 2020.

 ----------------------------------------------------------------------
 # B3LYP/6-311++G(d,p) empiricaldispersion=gd3bj scf=xqc pop=npa geom=c
 heck
 ----------------------------------------------------------------------

 ---------------------------------------
 CID_106698064_JID_7324_Energie_neutraal
 ---------------------------------------
 Structure from the checkpoint file:  "JID_7324.chk"
 Charge =  0 Multiplicity = 1

 SCF Done:  E(RB3LYP) =  -1161.25487375     A.U. after   16 cycles
 Normal termination of Gaussian 16 at Sun Dec 13 20:30:36 2020.

 ----------------------------------------------------------------------
 # B3LYP/6-311++G(d,p) empiricaldispersion=gd3bj scf=xqc pop=npa geom=c
 heck
 ----------------------------------------------------------------------

 -------------------------------------
 CID_106698064_JID_7324_Energie_kation
 -------------------------------------
 Structure from the checkpoint file:  "JID_7324.chk"
 Charge =  1 Multiplicity = 2

 SCF Done:  E(UB3LYP) =  -1160.95882463     A.U. after   29 cycles
 Normal termination of Gaussian 16 at Sun Dec 13 20:43:52 2020.
 Gaussian 16:  ES64L-G16RevA.03 25-Dec-2016

 ----------------------------------------------------------------------
 # B3LYP/6-311++G(d,p) empiricaldispersion=gd3bj scf=xqc pop=npa geom=c
 heck
 ----------------------------------------------------------------------

 ------------------------------------
 CID_106698064_JID_7324_Energie_anion
 ------------------------------------
 Structure from the checkpoint file:  "JID_7324.chk"
 Charge = -1 Multiplicity = 2

                         Standard orientation:
 ---------------------------------------------------------------------
 Center     Atomic      Atomic             Coordinates (Angstroms)
 Number     Number       Type             X           Y           Z
 ---------------------------------------------------------------------
      1          6           0        4.503231   -1.000322   -1.463498
      2          6           0        4.917120   -0.493126   -0.097048
      3          6           0        5.202577    0.970075    0.130442
      4          6           0        3.997012    0.338049    0.782583
      5          6           0        2.609500    0.717845    0.330424
      6          7           0        1.713244   -0.430362    0.470761
      7          6           0        0.379363   -0.309385    0.288097
      8          7           0       -0.217126    0.855369    0.136489
      9          6           0       -1.569496    0.687302   -0.004230
     10          6           0       -2.049114   -0.612257    0.038780
     11         16           0       -0.686242   -1.709447    0.274172
     12          6           0       -3.356061   -1.298490   -0.001816
     13          8           0       -3.352195   -2.526453    0.038827
     14          6           0       -4.656206   -0.534355   -0.064039
     15          6           0       -2.378871    1.916147   -0.238346
     16          8           0       -3.442713    1.964531   -0.822919
     17          8           0       -1.783584    3.016444    0.268839
     18          1           0        3.959807   -1.951419   -1.396309
     19          1           0        5.384351   -1.169712   -2.092911
     20          1           0        3.860760   -0.286300   -1.988275
     21          1           0        5.558904   -1.181498    0.450103
     22          1           0        6.041731    1.255082    0.757867
     23          1           0        5.020145    1.648057   -0.700388
     24          1           0        4.070398    0.147164    1.851490
     25          1           0        2.207675    1.533626    0.938095
     26          1           0        2.610450    1.074579   -0.708090
     27          1           0        2.129842   -1.345426    0.375783
     28          1           0       -4.698557    0.251920    0.695137
     29          1           0       -4.760038   -0.033757   -1.029473
     30          1           0       -5.468570   -1.248228    0.083956
     31          1           0       -2.376243    3.756934    0.039436
 ---------------------------------------------------------------------

 SCF Done:  E(UB3LYP) =  -1161.28364406     A.U. after   26 cycles

 The electronic state is 2-A.
 Alpha  occ. eigenvalues --  -88.72315 -19.02303 -18.95258 -18.92559 -14.21930
 Alpha  occ. eigenvalues --  -14.15643 -10.14160 -10.11804 -10.11002 -10.10953
 Alpha  occ. eigenvalues --  -10.10334 -10.10057 -10.09451 -10.08079 -10.04843
 Alpha  occ. eigenvalues --  -10.03733 -10.01560  -7.80944  -5.77265  -5.76891
 Alpha  occ. eigenvalues --   -5.76501  -0.96260  -0.86794  -0.86659  -0.85360
 Alpha  occ. eigenvalues --   -0.79997  -0.77771  -0.65264  -0.64652  -0.62824
 Alpha  occ. eigenvalues --   -0.59266  -0.57693  -0.52052  -0.50745  -0.48364
 Alpha  occ. eigenvalues --   -0.47102  -0.43658  -0.43335  -0.38943  -0.37996
 Alpha  occ. eigenvalues --   -0.36447  -0.35403  -0.34657  -0.33446  -0.33208
 Alpha  occ. eigenvalues --   -0.32571  -0.32086  -0.30643  -0.29352  -0.28762
 Alpha  occ. eigenvalues --   -0.28528  -0.27852  -0.26435  -0.25861  -0.25653
 Alpha  occ. eigenvalues --   -0.23292  -0.21852  -0.21316  -0.20861  -0.20505
 Alpha  occ. eigenvalues --   -0.18485  -0.17011  -0.14403  -0.13289  -0.13029
 Alpha  occ. eigenvalues --   -0.08710  -0.07770   0.03183
 Alpha virt. eigenvalues --    0.05392   0.07161   0.07405   0.08882   0.09619
 Alpha virt. eigenvalues --    0.10106   0.10459   0.11141   0.11514   0.11803
 Alpha virt. eigenvalues --    0.12967   0.13857   0.14213   0.14562   0.14890

  Beta  occ. eigenvalues --  -88.72276 -19.02234 -18.95005 -18.92126 -14.21899
  Beta  occ. eigenvalues --  -14.15721 -10.13993 -10.11632 -10.11002 -10.10954
  Beta  occ. eigenvalues --  -10.10334 -10.10057 -10.09449 -10.07860 -10.04553
  Beta  occ. eigenvalues --  -10.03521 -10.01578  -7.80909  -5.77247  -5.76877
  Beta  occ. eigenvalues --   -5.76371  -0.96006  -0.86366  -0.85954  -0.85185
  Beta  occ. eigenvalues --   -0.79942  -0.77674  -0.65196  -0.64436  -0.62550
  Beta  occ. eigenvalues --   -0.58990  -0.57294  -0.52038  -0.50319  -0.48248
  Beta  occ. eigenvalues --   -0.46889  -0.43607  -0.42970  -0.38814  -0.37760
  Beta  occ. eigenvalues --   -0.36374  -0.35183  -0.34479  -0.33278  -0.32983
  Beta  occ. eigenvalues --   -0.32493  -0.31910  -0.29819  -0.29306  -0.28519
  Beta  occ. eigenvalues --   -0.28046  -0.27509  -0.26064  -0.25585  -0.25336
  Beta  occ. eigenvalues --   -0.23080  -0.21795  -0.20991  -0.20681  -0.19307
  Beta  occ. eigenvalues --   -0.17470  -0.16041  -0.14324  -0.12855  -0.12436
  Beta  occ. eigenvalues --   -0.08331  -0.06182
  Beta virt. eigenvalues --    0.05349   0.07114   0.07358   0.08856   0.09252
  Beta virt. eigenvalues --    0.09696   0.10065   0.10511   0.11134   0.11474
  Beta virt. eigenvalues --    0.11759   0.12947   0.14195   0.14325   0.14635

 Mulliken charges and spin densities:
               1          2
     1  C   -0.577864  -0.035184
     2  C    0.059196   0.016539
     3  C   -0.539366  -0.004569
     4  C    0.227885  -0.003569
     5  C   -0.582989   0.003638
     6  N    0.052349   0.013101
     7  C    0.349629   0.090385
     8  N    0.011254  -0.052362
     9  C   -0.339055   0.209675
    10  C    0.689285   0.092661
    11  S   -0.403544   0.082693
    12  C   -0.382797   0.173456
    13  O   -0.400972   0.152854
    14  C   -0.563209  -0.007783
    15  C   -0.386490   0.108551
    16  O   -0.373629   0.084316
    17  O   -0.182786   0.012609
    18  H    0.117177   0.017223
    19  H    0.123406   0.008403
    20  H    0.158940   0.003250
    21  H    0.174712   0.005473
    22  H    0.138140   0.001671
    23  H    0.131770  -0.000185
    24  H    0.218255  -0.001435
    25  H    0.196241   0.000709
    26  H    0.140894   0.003094
    27  H    0.251835   0.007199
    28  H    0.144107   0.007086
    29  H    0.173671   0.006314
    30  H    0.126543   0.000978
    31  H    0.247414   0.003211
 Sum of Mulliken charges =  -1.00000   1.00000

 Dipole moment (field-independent basis, Debye):
    X=             11.8210    Y=              2.4021    Z=              0.5900  Tot=             12.0771
 Quadrupole moment (field-independent basis, Debye-Ang):
   XX=           -152.3491   YY=           -134.7361   ZZ=           -115.6526
   XY=            -13.3767   XZ=             -3.3908   YZ=              1.6535

 Summary of Natural Population Analysis:

                                       Natural Population
                Natural  -----------------------------------------------
    Atom  No    Charge         Core      Valence    Rydberg      Total
 -----------------------------------------------------------------------
      C    1   -0.28983      0.99966     2.28479    0.00538     3.28983
      C    2   -0.11345      0.99960     2.10557    0.00828     3.11345
      C    3   -0.19762      0.99961     2.19096    0.00705     3.19762
      C    4   -0.11234      0.99958     2.10381    0.00895     3.11234
      C    5   -0.08869      0.99960     2.07735    0.01174     3.08869
      N    6   -0.31857      0.99963     2.80639    0.01254     3.81857
      C    7    0.15705      0.99962     1.82400    0.01933     2.84295
      N    8   -0.29069      0.99964     2.78079    0.01026     3.79069
      C    9    0.07581      0.99941     1.91099    0.01379     2.92419
      C   10   -0.09238      0.99945     2.08243    0.01050     3.09238
      S   11    0.18671      4.99945     2.79319    0.02065     7.81329
      C   12    0.27956      0.99961     1.70039    0.02043     2.72044
      O   13   -0.27036      0.99988     3.26324    0.00723     4.27036
      C   14   -0.32411      0.99963     2.31986    0.00461     3.32411
      C   15    0.41304      0.99968     1.56262    0.02467     2.58696
      O   16   -0.30461      0.99987     3.29699    0.00775     4.30461
      O   17   -0.33934      0.99988     3.33298    0.00649     4.33934
      H   18    0.10011      0.00000     0.39886    0.00103     0.39989
      H   19    0.09683      0.00000     0.40230    0.00087     0.40317
      H   20    0.10309      0.00000     0.39599    0.00091     0.39691
      H   21    0.09800      0.00000     0.40088    0.00112     0.40200
      H   22    0.09968      0.00000     0.39947    0.00085     0.40032
      H   23    0.10049      0.00000     0.39848    0.00103     0.39951
      H   24    0.10364      0.00000     0.39526    0.00110     0.39636
      H   25    0.10942      0.00000     0.38919    0.00140     0.39058
      H   26    0.08787      0.00000     0.41015    0.00197     0.41213
      H   27    0.18856      0.00000     0.30966    0.00178     0.31144
      H   28    0.10473      0.00000     0.39411    0.00116     0.39527
      H   29    0.11697      0.00000     0.38203    0.00100     0.38303
      H   30    0.09551      0.00000     0.40285    0.00164     0.40449
      H   31    0.22492      0.00000     0.26930    0.00578     0.27508
 =======================================================================
   * Total *    0.00000     20.99381    45.78488    0.22130    67.00000

 Normal termination of Gaussian 16 at Sun Dec 13 20:55:35 2020.
