 Gaussian 16, Revision A.03,

 -----------------------------------------------------------
 # opt freq B3LYP/6-31G(d) empiricaldispersion=gd3bj scf=xqc
 -----------------------------------------------------------

 ------------------------------
 CID_59531603_JID_8842_neutraal
 ------------------------------
 Symbolic Z-matrix:
 Charge =  0 Multiplicity = 1

 SCF Done:  E(RB3LYP) =  -803.152493603     A.U. after   15 cycles
 SCF Done:  E(RB3LYP) =  -803.157065807     A.U. after   13 cycles
 SCF Done:  E(RB3LYP) =  -803.157085084     A.U. after   14 cycles
 SCF Done:  E(RB3LYP) =  -803.158486421     A.U. after   14 cycles
 SCF Done:  E(RB3LYP) =  -803.159110021     A.U. after   13 cycles
 SCF Done:  E(RB3LYP) =  -803.158276721     A.U. after   14 cycles
 SCF Done:  E(RB3LYP) =  -803.159577535     A.U. after   13 cycles
 SCF Done:  E(RB3LYP) =  -803.159962072     A.U. after   13 cycles
 SCF Done:  E(RB3LYP) =  -803.160149947     A.U. after   12 cycles
 SCF Done:  E(RB3LYP) =  -803.160281939     A.U. after   13 cycles
 SCF Done:  E(RB3LYP) =  -803.160529601     A.U. after   12 cycles
 SCF Done:  E(RB3LYP) =  -803.160541542     A.U. after   12 cycles
 SCF Done:  E(RB3LYP) =  -803.160542768     A.U. after   10 cycles
 SCF Done:  E(RB3LYP) =  -803.160542858     A.U. after    8 cycles
 SCF Done:  E(RB3LYP) =  -803.160542900     A.U. after    7 cycles
 Optimization completed.
    -- Stationary point found.
 Normal termination of Gaussian 16 at Fri Dec 11 22:22:35 2020.

 --------------------------------------------------------------------
 #N Geom=AllCheck Guess=TCheck SCRF=Check GenChk RB3LYP/6-31G(d) Freq
 --------------------------------------------------------------------

 Structure from the checkpoint file:  "JID_8842.chk"
 ------------------------------
 CID_59531603_JID_8842_neutraal
 ------------------------------
 Charge =  0 Multiplicity = 1

 SCF Done:  E(RB3LYP) =  -803.160542900     A.U. after    1 cycles

  Exact polarizability: 194.557  14.721 173.439  25.545 -13.032 110.386
 Approx polarizability: 268.558  19.456 310.380  53.645 -26.659 179.266

                      1                      2                      3
                      A                      A                      A
 Frequencies --     19.7135                44.6874                54.7327
 Red. masses --      4.6838                 6.2921                 5.2356
 Frc consts  --      0.0011                 0.0074                 0.0092
 IR Inten    --      1.2826                 0.6654                 0.9037

                      4                      5                      6
                      A                      A                      A
 Frequencies --     79.5457                90.1527               109.8283
 Red. masses --      3.1587                 4.4792                 5.1628
 Frc consts  --      0.0118                 0.0214                 0.0367
 IR Inten    --      2.1198                 5.9622                 4.1409

                      7                      8                      9
                      A                      A                      A
 Frequencies --    141.6225               185.1243               203.0685
 Red. masses --      5.1399                 4.7854                 2.6064
 Frc consts  --      0.0607                 0.0966                 0.0633
 IR Inten    --      0.2055                 0.1321                 1.8302

                     10                     11                     12
                      A                      A                      A
 Frequencies --    228.1625               230.8706               259.3073
 Red. masses --      2.7112                 2.9567                 1.3338
 Frc consts  --      0.0832                 0.0929                 0.0528
 IR Inten    --      2.7778                 7.2168                 0.3398

                     13                     14                     15
                      A                      A                      A
 Frequencies --    282.5848               297.1793               324.8051
 Red. masses --      1.2324                 4.5766                 2.7616
 Frc consts  --      0.0580                 0.2381                 0.1717
 IR Inten    --      0.4948                 2.4011                 1.8899

                     16                     17                     18
                      A                      A                      A
 Frequencies --    357.7036               370.9794               426.0207
 Red. masses --      4.2681                 3.8247                 4.5261
 Frc consts  --      0.3218                 0.3101                 0.4840
 IR Inten    --      6.0923                 4.1036                 7.3383

                     19                     20                     21
                      A                      A                      A
 Frequencies --    436.1557               450.7165               480.7991
 Red. masses --      2.3309                 1.5858                 2.4845
 Frc consts  --      0.2613                 0.1898                 0.3384
 IR Inten    --     43.1005                44.8026                 4.8695

                     22                     23                     24
                      A                      A                      A
 Frequencies --    521.4815               539.9426               581.5965
 Red. masses --      4.3805                 4.0905                 4.3392
 Frc consts  --      0.7019                 0.7026                 0.8648
 IR Inten    --     11.0849                 2.7113                 5.4276

                     25                     26                     27
                      A                      A                      A
 Frequencies --    592.2138               601.0539               629.1326
 Red. masses --      4.8278                 3.6264                 2.7585
 Frc consts  --      0.9976                 0.7719                 0.6433
 IR Inten    --     17.4262                 9.8063                 8.4198

                     28                     29                     30
                      A                      A                      A
 Frequencies --    667.7506               698.9739               734.2064
 Red. masses --      5.0327                 2.4737                 2.4026
 Frc consts  --      1.3221                 0.7121                 0.7631
 IR Inten    --      2.6965                26.4638                41.6900

                     31                     32                     33
                      A                      A                      A
 Frequencies --    758.4037               764.4574               778.1325
 Red. masses --      1.3572                 2.8454                 2.9993
 Frc consts  --      0.4599                 0.9797                 1.0700
 IR Inten    --     19.6220                84.0190                 4.8801

                     34                     35                     36
                      A                      A                      A
 Frequencies --    783.5188               801.3228               848.8145
 Red. masses --      3.4684                 4.9113                 1.7120
 Frc consts  --      1.2545                 1.8581                 0.7267
 IR Inten    --     11.6170                30.6159                 5.0408

                     37                     38                     39
                      A                      A                      A
 Frequencies --    865.2188               893.9470               904.0110
 Red. masses --      1.4658                 4.8260                 2.4143
 Frc consts  --      0.6465                 2.2723                 1.1625
 IR Inten    --      0.1266                 0.8112                 3.0733

                     40                     41                     42
                      A                      A                      A
 Frequencies --    935.3498               952.9080               963.7948
 Red. masses --      1.3320                 1.2424                 1.9187
 Frc consts  --      0.6866                 0.6647                 1.0501
 IR Inten    --      1.2912                 1.0843                29.4638

                     43                     44                     45
                      A                      A                      A
 Frequencies --    977.0632               987.7646              1043.3316
 Red. masses --      1.2376                 1.5613                 3.4667
 Frc consts  --      0.6961                 0.8975                 2.2234
 IR Inten    --      0.3968                 2.7992                 2.6937

                     46                     47                     48
                      A                      A                      A
 Frequencies --   1048.6855              1080.2445              1108.6994
 Red. masses --      2.4058                 1.7985                 2.6807
 Frc consts  --      1.5589                 1.2365                 1.9414
 IR Inten    --      8.0440                28.5785                11.4591

                     49                     50                     51
                      A                      A                      A
 Frequencies --   1123.1273              1144.9259              1160.9211
 Red. masses --      1.4578                 2.7538                 1.4847
 Frc consts  --      1.0834                 2.1269                 1.1789
 IR Inten    --     37.8136                10.6916                10.7318

                     52                     53                     54
                      A                      A                      A
 Frequencies --   1189.5147              1202.1435              1215.7795
 Red. masses --      1.1350                 1.9690                 2.0926
 Frc consts  --      0.9462                 1.6765                 1.8224
 IR Inten    --      1.2075                 6.5639                88.5484

                     55                     56                     57
                      A                      A                      A
 Frequencies --   1241.2743              1278.5296              1289.6675
 Red. masses --      1.9077                 1.7031                 2.1652
 Frc consts  --      1.7318                 1.6402                 2.1218
 IR Inten    --     15.8725                51.1523                60.7956

                     58                     59                     60
                      A                      A                      A
 Frequencies --   1317.6217              1346.6150              1362.9532
 Red. masses --      2.4204                 1.3580                 1.4887
 Frc consts  --      2.4758                 1.4509                 1.6294
 IR Inten    --     25.2563                 0.3307                 1.9438

                     61                     62                     63
                      A                      A                      A
 Frequencies --   1368.3074              1374.4480              1388.6756
 Red. masses --      1.7092                 1.5323                 4.9354
 Frc consts  --      1.8854                 1.7055                 5.6075
 IR Inten    --     17.5813                 3.1860                13.7888

                     64                     65                     66
                      A                      A                      A
 Frequencies --   1418.6649              1432.8742              1454.1553
 Red. masses --      3.5099                 1.2107                 1.2452
 Frc consts  --      4.1620                 1.4645                 1.5513
 IR Inten    --    121.6079                 3.5924                 9.4017

                     67                     68                     69
                      A                      A                      A
 Frequencies --   1461.8259              1492.1173              1500.3236
 Red. masses --      2.4337                 1.5486                 2.5073
 Frc consts  --      3.0641                 2.0314                 3.3252
 IR Inten    --     66.6617                25.2343                24.1205

                     70                     71                     72
                      A                      A                      A
 Frequencies --   1505.0834              1524.5239              1532.8360
 Red. masses --      1.1307                 1.0437                 1.0516
 Frc consts  --      1.5091                 1.4292                 1.4557
 IR Inten    --      1.8500                 1.6090                 0.6558

                     73                     74                     75
                      A                      A                      A
 Frequencies --   1540.1161              1542.4994              1549.5650
 Red. masses --      1.0451                 2.8660                 1.0603
 Frc consts  --      1.4606                 4.0177                 1.5000
 IR Inten    --      8.1818                 3.9950                 8.4228

                     76                     77                     78
                      A                      A                      A
 Frequencies --   1585.2853              1633.1534              1680.3888
 Red. masses --      5.0721                 5.6566                 6.2518
 Frc consts  --      7.5103                 8.8892                10.4009
 IR Inten    --    156.3541                 0.7408                 5.7201

                     79                     80                     81
                      A                      A                      A
 Frequencies --   1745.1401              1800.8763              3052.0191
 Red. masses --      7.6008                10.8359                 1.0364
 Frc consts  --     13.6386                20.7055                 5.6879
 IR Inten    --    313.6123               180.0115                27.9917

                     82                     83                     84
                      A                      A                      A
 Frequencies --   3054.0966              3064.3050              3083.8571
 Red. masses --      1.0385                 1.0829                 1.0639
 Frc consts  --      5.7074                 5.9909                 5.9614
 IR Inten    --     18.8539                18.1462                20.0839

                     85                     86                     87
                      A                      A                      A
 Frequencies --   3113.6218              3117.3504              3138.4260
 Red. masses --      1.1023                 1.1019                 1.1007
 Frc consts  --      6.2962                 6.3093                 6.3876
 IR Inten    --     20.9029                23.7694                10.3333

                     88                     89                     90
                      A                      A                      A
 Frequencies --   3144.1359              3155.4979              3188.5222
 Red. masses --      1.1018                 1.1000                 1.0860
 Frc consts  --      6.4173                 6.4534                 6.5053
 IR Inten    --     11.0230                 4.7571                 0.6787

                     91                     92                     93
                      A                      A                      A
 Frequencies --   3197.3858              3211.1169              3223.5349
 Red. masses --      1.0899                 1.0944                 1.0943
 Frc consts  --      6.5647                 6.6488                 6.6996
 IR Inten    --     13.8922                27.6242                10.2290

                     94                     95                     96
                      A                      A                      A
 Frequencies --   3290.1483              3565.4035              3664.8561
 Red. masses --      1.0973                 1.0750                 1.0803
 Frc consts  --      6.9988                 8.0515                 8.5485
 IR Inten    --      1.2543                20.8408                77.3673

 - Thermochemistry -
 -------------------
 Temperature   298.150 Kelvin.  Pressure   1.00000 Atm.
 Atom     1 has atomic number  6 and mass  12.00000

 Molecular mass:   244.12118 amu.
 Principal axes and moments of inertia in atomic units:
                           1         2         3
     Eigenvalues --  2516.261206506.035307352.20576
           X            0.99979   0.01988  -0.00443
           Y           -0.02009   0.99828  -0.05508
           Z            0.00333   0.05516   0.99847
 This molecule is an asymmetric top.
 Rotational symmetry number  1.
 Warning -- assumption of classical behavior for rotation
           may cause significant error
 Rotational temperatures (Kelvin)      0.03442     0.01331     0.01178
 Rotational constants (GHZ):           0.71723     0.27739     0.24547
 Zero-point vibrational energy     740512.3 (Joules/Mol)
                                  176.98669 (Kcal/Mol)
 Warning -- explicit consideration of  26 degrees of freedom as
           vibrations may cause significant error
 Vibrational temperatures:     28.36    64.30    78.75   114.45   129.71
          (Kelvin)            158.02   203.76   266.35   292.17   328.27
                              332.17   373.09   406.58   427.57   467.32
                              514.66   533.76   612.95   627.53   648.48
                              691.76   750.30   776.86   836.79   852.06
                              864.78   905.18   960.74  1005.67  1056.36
                             1091.17  1099.88  1119.56  1127.31  1152.92
                             1221.25  1244.86  1286.19  1300.67  1345.76
                             1371.02  1386.69  1405.78  1421.17  1501.12
                             1508.82  1554.23  1595.17  1615.93  1647.29
                             1670.31  1711.45  1729.62  1749.24  1785.92
                             1839.52  1855.54  1895.76  1937.48  1960.99
                             1968.69  1977.52  1997.99  2041.14  2061.59
                             2092.21  2103.24  2146.82  2158.63  2165.48
                             2193.45  2205.41  2215.88  2219.31  2229.48
                             2280.87  2349.74  2417.70  2510.87  2591.06
                             4391.17  4394.16  4408.85  4436.98  4479.81
                             4485.17  4515.50  4523.71  4540.06  4587.57
                             4600.32  4620.08  4637.95  4733.79  5129.82
                             5272.91

 Zero-point correction=                           0.282046 (Hartree/Particle)
 Thermal correction to Energy=                    0.298655
 Thermal correction to Enthalpy=                  0.299599
 Thermal correction to Gibbs Free Energy=         0.236837
 Sum of electronic and zero-point Energies=           -802.878497
 Sum of electronic and thermal Energies=              -802.861888
 Sum of electronic and thermal Enthalpies=            -802.860944
 Sum of electronic and thermal Free Energies=         -802.923706

                     E (Thermal)             CV                S
                      KCal/Mol        Cal/Mol-Kelvin    Cal/Mol-Kelvin
 Total                  187.409             63.828            132.094
 Electronic               0.000              0.000              0.000
 Translational            0.889              2.981             42.378
 Rotational               0.889              2.981             33.153
 Vibrational            185.631             57.866             56.562
 Vibration     1          0.593              1.986              6.663
 Vibration     2          0.595              1.980              5.040
 Vibration     3          0.596              1.976              4.639
 Vibration     4          0.600              1.963              3.902
 Vibration     5          0.602              1.956              3.657
 Vibration     6          0.606              1.941              3.272
 Vibration     7          0.615              1.912              2.782
 Vibration     8          0.631              1.860              2.276
 Vibration     9          0.639              1.836              2.105
 Vibration    10          0.651              1.798              1.893
 Vibration    11          0.653              1.794              1.872
 Vibration    12          0.668              1.747              1.666
 Vibration    13          0.682              1.706              1.518
 Vibration    14          0.691              1.679              1.433
 Vibration    15          0.709              1.626              1.286
 Vibration    16          0.733              1.559              1.132
 Vibration    17          0.743              1.532              1.076
 Vibration    18          0.788              1.414              0.872
 Vibration    19          0.797              1.391              0.839
 Vibration    20          0.809              1.359              0.794
 Vibration    21          0.837              1.293              0.708
 Vibration    22          0.876              1.202              0.607
 Vibration    23          0.895              1.162              0.565
 Vibration    24          0.938              1.071              0.482
 Vibration    25          0.950              1.048              0.463
 Vibration    26          0.959              1.030              0.448

 Optimization completed.
    -- Stationary point found.
 Normal termination of Gaussian 16 at Fri Dec 11 22:37:56 2020.

 ----------------------------------------------------------------------
 # B3LYP/6-311++G(d,p) empiricaldispersion=gd3bj scf=xqc pop=npa geom=c
 heck
 ----------------------------------------------------------------------

 --------------------------------------
 CID_59531603_JID_8842_Energie_neutraal
 --------------------------------------
 Structure from the checkpoint file:  "JID_8842.chk"
 Charge =  0 Multiplicity = 1

 SCF Done:  E(RB3LYP) =  -803.385850286     A.U. after   16 cycles
 Normal termination of Gaussian 16 at Fri Dec 11 22:45:17 2020.

 ----------------------------------------------------------------------
 # B3LYP/6-311++G(d,p) empiricaldispersion=gd3bj scf=xqc pop=npa geom=c
 heck
 ----------------------------------------------------------------------

 ------------------------------------
 CID_59531603_JID_8842_Energie_kation
 ------------------------------------
 Structure from the checkpoint file:  "JID_8842.chk"
 Charge =  1 Multiplicity = 2

 SCF Done:  E(UB3LYP) =  -803.093458505     A.U. after   28 cycles
 Normal termination of Gaussian 16 at Fri Dec 11 23:03:23 2020.
 Gaussian 16:  ES64L-G16RevA.03 25-Dec-2016

 ----------------------------------------------------------------------
 # B3LYP/6-311++G(d,p) empiricaldispersion=gd3bj scf=xqc pop=npa geom=c
 heck
 ----------------------------------------------------------------------

 -----------------------------------
 CID_59531603_JID_8842_Energie_anion
 -----------------------------------
 Structure from the checkpoint file:  "JID_8842.chk"
 Charge = -1 Multiplicity = 2

                         Standard orientation:
 ---------------------------------------------------------------------
 Center     Atomic      Atomic             Coordinates (Angstroms)
 Number     Number       Type             X           Y           Z
 ---------------------------------------------------------------------
      1          6           0        2.039686    0.503076   -1.991711
      2          6           0        3.142364   -0.104306   -1.114165
      3          6           0        3.791952    0.954335   -0.197517
      4          6           0        2.683017   -1.318838   -0.305563
      5          8           0        3.411440   -2.284472   -0.167368
      6          6           0        1.302064   -1.322307    0.371584
      7          7           0        1.203386   -0.300999    1.410094
      8          6           0        0.556828    0.917894    1.301143
      9          8           0        1.016367    1.916799    1.854175
     10          6           0       -0.699495    0.964501    0.530814
     11          6           0       -1.122190    2.119993   -0.092702
     12          7           0       -2.328464    1.901010   -0.703356
     13          6           0       -2.740949    0.598419   -0.467684
     14          6           0       -3.907011   -0.061473   -0.860840
     15          6           0       -4.069935   -1.376137   -0.440297
     16          6           0       -3.099661   -2.008603    0.361666
     17          6           0       -1.940466   -1.348146    0.747701
     18          6           0       -1.734068   -0.026154    0.318707
     19          1           0        1.243512    0.958775   -1.395849
     20          1           0        1.584678   -0.248662   -2.647159
     21          1           0        2.464786    1.286426   -2.628805
     22          1           0        3.930753   -0.506521   -1.760907
     23          1           0        3.061241    1.452560    0.446428
     24          1           0        4.563970    0.499955    0.432883
     25          1           0        4.273120    1.722231   -0.813823
     26          1           0        0.518928   -1.144706   -0.367419
     27          1           0        1.160456   -2.321348    0.794492
     28          1           0        2.013374   -0.224370    2.016648
     29          1           0       -0.627110    3.078923   -0.134714
     30          1           0       -2.843916    2.587273   -1.232682
     31          1           0       -4.661046    0.435424   -1.464749
     32          1           0       -4.964766   -1.920582   -0.726474
     33          1           0       -3.266052   -3.030716    0.688590
     34          1           0       -1.211664   -1.836884    1.385096
 ---------------------------------------------------------------------

 SCF Done:  E(UB3LYP) =  -803.384131884     A.U. after   33 cycles
 SCF Done:  E(UB3LYP) =  -803.386539773     a.u. after    9 cycles

 The electronic state is 2-A.
 Alpha  occ. eigenvalues --  -18.99563 -18.96831 -14.25222 -14.22520 -10.15248
 Alpha  occ. eigenvalues --  -10.13370 -10.10285 -10.10224 -10.09404 -10.07975
 Alpha  occ. eigenvalues --  -10.07205 -10.06983 -10.06926 -10.06607 -10.06549
 Alpha  occ. eigenvalues --  -10.06338 -10.06230 -10.05811  -0.93160  -0.92000
 Alpha  occ. eigenvalues --   -0.87773  -0.81024  -0.74122  -0.69961  -0.68562
 Alpha  occ. eigenvalues --   -0.63727  -0.62356  -0.61434  -0.58936  -0.53920
 Alpha  occ. eigenvalues --   -0.52325  -0.51892  -0.49127  -0.44900  -0.44018
 Alpha  occ. eigenvalues --   -0.43550  -0.39103  -0.38884  -0.37700  -0.36062
 Alpha  occ. eigenvalues --   -0.35590  -0.34051  -0.33583  -0.33111  -0.32617
 Alpha  occ. eigenvalues --   -0.32292  -0.31643  -0.30961  -0.30012  -0.28991
 Alpha  occ. eigenvalues --   -0.28842  -0.28052  -0.26718  -0.26330  -0.25935
 Alpha  occ. eigenvalues --   -0.24326  -0.24070  -0.23837  -0.22966  -0.17966
 Alpha  occ. eigenvalues --   -0.16911  -0.14387  -0.13073  -0.12774  -0.10943
 Alpha  occ. eigenvalues --    0.03988
 Alpha virt. eigenvalues --    0.05864   0.06896   0.07455   0.07586   0.08828
 Alpha virt. eigenvalues --    0.09352   0.09646   0.09976   0.10622   0.10896
 Alpha virt. eigenvalues --    0.11195   0.11611   0.11962   0.12625   0.13098

  Beta  occ. eigenvalues --  -18.99356 -18.96725 -14.25151 -14.22515 -10.15123
  Beta  occ. eigenvalues --  -10.13163 -10.10298 -10.10230 -10.09189 -10.07990
  Beta  occ. eigenvalues --  -10.07203 -10.06972 -10.06850 -10.06565 -10.06505
  Beta  occ. eigenvalues --  -10.06328 -10.06203 -10.05825  -0.92768  -0.91792
  Beta  occ. eigenvalues --   -0.87610  -0.80952  -0.74032  -0.69873  -0.68434
  Beta  occ. eigenvalues --   -0.63602  -0.62183  -0.61268  -0.58890  -0.53713
  Beta  occ. eigenvalues --   -0.52117  -0.51690  -0.49050  -0.44778  -0.43893
  Beta  occ. eigenvalues --   -0.43322  -0.38980  -0.38773  -0.37570  -0.35938
  Beta  occ. eigenvalues --   -0.35430  -0.33905  -0.33474  -0.33033  -0.32436
  Beta  occ. eigenvalues --   -0.32070  -0.31414  -0.30798  -0.29929  -0.28920
  Beta  occ. eigenvalues --   -0.28745  -0.27758  -0.26427  -0.25986  -0.25862
  Beta  occ. eigenvalues --   -0.24275  -0.23706  -0.23478  -0.22755  -0.17717
  Beta  occ. eigenvalues --   -0.16645  -0.14278  -0.12762  -0.12559  -0.10464
  Beta virt. eigenvalues --    0.06952   0.07329   0.07792   0.07950   0.08404
  Beta virt. eigenvalues --    0.09063   0.09580   0.09719   0.10587   0.10777
  Beta virt. eigenvalues --    0.10963   0.11445   0.11651   0.11993   0.12634

 Mulliken charges and spin densities:
               1          2
     1  C   -0.598898  -0.141178
     2  C    0.276522   0.149608
     3  C   -0.445570  -0.166276
     4  C   -0.415241   0.099644
     5  O   -0.292170   0.066287
     6  C   -0.020949  -0.016801
     7  N   -0.127843  -0.006044
     8  C   -0.644145   0.113133
     9  O   -0.319135   0.041122
    10  C    1.077533  -0.572045
    11  C   -0.373356   0.289872
    12  N   -0.120595   0.052733
    13  C    0.572043  -0.818496
    14  C   -1.094178   0.696165
    15  C   -0.018622  -0.252995
    16  C   -0.485685   0.153166
    17  C   -0.508740   0.190959
    18  C    1.492211  -0.774569
    19  H    0.211328   0.083509
    20  H    0.123812   0.010563
    21  H    0.059759   0.064450
    22  H    0.176036   0.033149
    23  H    0.214943  -0.003241
    24  H    0.131196   0.006332
    25  H    0.029652   0.091417
    26  H    0.106986  -0.005904
    27  H    0.197950  -0.003868
    28  H    0.323528  -0.002312
    29  H   -0.042289   0.222441
    30  H   -0.433476   0.764857
    31  H   -0.492336   0.634672
    32  H    0.158240  -0.023606
    33  H    0.116237   0.016636
    34  H    0.165251   0.006621
 Sum of Mulliken charges =  -1.00000   1.00000

 Dipole moment (field-independent basis, Debye):
    X=              1.5705    Y=             -3.1849    Z=              0.5301  Tot=              3.5904
 Quadrupole moment (field-independent basis, Debye-Ang):
   XX=           -169.8367   YY=           -147.8438   ZZ=           -132.6527
   XY=             18.1271   XZ=             -9.6551   YZ=             -0.2937

 Summary of Natural Population Analysis:

                                       Natural Population
                Natural  -----------------------------------------------
    Atom  No    Charge         Core      Valence    Rydberg      Total
 -----------------------------------------------------------------------
      C    1   -0.28892      0.99965     2.28280    0.00647     3.28892
      C    2   -0.15492      0.99957     2.14527    0.01007     3.15492
      C    3   -0.28433      0.99964     2.27987    0.00482     3.28433
      C    4    0.31574      0.99964     1.66282    0.02180     2.68426
      O    5   -0.27725      0.99987     3.26993    0.00744     4.27725
      C    6   -0.13395      0.99957     2.12385    0.01053     3.13395
      N    7   -0.32326      0.99968     2.81463    0.00895     3.82326
      C    8    0.34691      0.99960     1.62943    0.02406     2.65309
      O    9   -0.31988      0.99988     3.31503    0.00497     4.31988
      C   10   -0.12372      0.99943     2.11326    0.01102     3.12372
      C   11    0.07783      0.99953     1.91032    0.01232     2.92217
      N   12   -0.26112      0.99966     2.75167    0.00980     3.76112
      C   13    0.07270      0.99947     1.91556    0.01226     2.92730
      C   14   -0.10122      0.99952     2.09205    0.00966     3.10122
      C   15   -0.11580      0.99958     2.10551    0.01071     3.11580
      C   16   -0.11037      0.99958     2.10191    0.00888     3.11037
      C   17   -0.09247      0.99953     2.08512    0.00782     3.09247
      C   18   -0.03885      0.99947     2.03007    0.00931     3.03885
      H   19    0.10697      0.00000     0.39177    0.00126     0.39303
      H   20    0.09762      0.00000     0.40159    0.00078     0.40238
      H   21    0.09761      0.00000     0.40162    0.00078     0.40239
      H   22    0.09964      0.00000     0.39809    0.00228     0.40036
      H   23    0.11137      0.00000     0.38713    0.00150     0.38863
      H   24    0.09797      0.00000     0.40114    0.00089     0.40203
      H   25    0.09541      0.00000     0.40355    0.00103     0.40459
      H   26    0.11504      0.00000     0.38379    0.00118     0.38496
      H   27    0.09739      0.00000     0.40096    0.00166     0.40261
      H   28    0.18836      0.00000     0.31011    0.00153     0.31164
      H   29    0.10496      0.00000     0.39413    0.00090     0.39504
      H   30    0.20534      0.00000     0.28015    0.01450     0.29466
      H   31    0.10263      0.00000     0.39620    0.00117     0.39737
      H   32    0.09604      0.00000     0.40325    0.00071     0.40396
      H   33    0.09457      0.00000     0.40450    0.00092     0.40543
      H   34    0.10196      0.00000     0.39683    0.00121     0.39804
 =======================================================================
   * Total *   -0.00000     17.99288    46.78393    0.22319    65.00000

 Normal termination of Gaussian 16 at Sat Dec 12 02:03:01 2020.
