 Gaussian 16, Revision A.03,

 -----------------------------------------------------------
 # opt freq B3LYP/6-31G(d) empiricaldispersion=gd3bj scf=xqc
 -----------------------------------------------------------

 -----------------------------
 CID_22904572_JID_499_neutraal
 -----------------------------
 Symbolic Z-matrix:
 Charge =  0 Multiplicity = 1

 SCF Done:  E(RB3LYP) =  -536.713741879     A.U. after   12 cycles
 SCF Done:  E(RB3LYP) =  -536.727635090     A.U. after   11 cycles
 SCF Done:  E(RB3LYP) =  -536.728419185     A.U. after   11 cycles
 SCF Done:  E(RB3LYP) =  -536.728644905     A.U. after   11 cycles
 SCF Done:  E(RB3LYP) =  -536.729169776     A.U. after   10 cycles
 SCF Done:  E(RB3LYP) =  -536.729498783     A.U. after   11 cycles
 SCF Done:  E(RB3LYP) =  -536.729466845     A.U. after   12 cycles
 SCF Done:  E(RB3LYP) =  -536.729812164     A.U. after   11 cycles
 SCF Done:  E(RB3LYP) =  -536.729673667     A.U. after   10 cycles
 SCF Done:  E(RB3LYP) =  -536.729884426     A.U. after   11 cycles
 SCF Done:  E(RB3LYP) =  -536.729928558     A.U. after    9 cycles
 SCF Done:  E(RB3LYP) =  -536.729949812     A.U. after   10 cycles
 SCF Done:  E(RB3LYP) =  -536.729937409     A.U. after   10 cycles
 SCF Done:  E(RB3LYP) =  -536.729952477     A.U. after   10 cycles
 SCF Done:  E(RB3LYP) =  -536.729953226     A.U. after    8 cycles
 SCF Done:  E(RB3LYP) =  -536.729953297     A.U. after    7 cycles
 Optimization completed.
    -- Stationary point found.

 1\1\GINC-NODE109\FOpt\RB3LYP\6-31G(d)\C6H12O4\VSC10255\08-Dec-2020\0\\
 # opt freq B3LYP/6-31G(d) empiricaldispersion=gd3bj scf=xqc\\CID_22904
 572_JID_499_neutraal\\0,1\C,1.0200060127,0.0809549298,0.0238654253\C,0
 .4984890742,-1.037098858,-0.8477041786\C,0.9662833194,-2.504312911,-0.
 5922879612\C,-0.4634103245,-2.9901422869,-1.0044143602\C,-0.9737000351
 ,-1.5436682668,-0.6703060579\O,-1.5536602399,-1.3675784705,0.607113717
 5\C,-1.0783011251,-4.1850764134,-0.3125085525\O,-0.4434684358,-3.15725
 52788,-2.434311407\O,2.0934622353,-2.9524285856,-1.275587677\O,0.77419

 Normal termination of Gaussian 16 at Tue Dec  8 10:48:09 2020.

 --------------------------------------------------------------------
 #N Geom=AllCheck Guess=TCheck SCRF=Check GenChk RB3LYP/6-31G(d) Freq
 --------------------------------------------------------------------

 Structure from the checkpoint file:  "JID_499.chk"
 -----------------------------
 CID_22904572_JID_499_neutraal
 -----------------------------
 Charge =  0 Multiplicity = 1

 SCF Done:  E(RB3LYP) =  -536.729953297     A.U. after    1 cycles

  Exact polarizability:  79.686   0.805  72.047   1.199  -2.071  69.821
 Approx polarizability:  99.623   2.454 106.677   0.928  -4.116 105.404

                      1                      2                      3
                      A                      A                      A
 Frequencies --    121.2556               174.3924               189.5314
 Red. masses --      4.3696                 1.1201                 1.7745
 Frc consts  --      0.0379                 0.0201                 0.0376
 IR Inten    --      3.1739                 4.9035                 2.8295

                      4                      5                      6
                      A                      A                      A
 Frequencies --    204.1023               207.3760               223.1515
 Red. masses --      2.1083                 1.9890                 2.5376
 Frc consts  --      0.0517                 0.0504                 0.0745
 IR Inten    --      5.5527                 3.8079                25.0739

                      7                      8                      9
                      A                      A                      A
 Frequencies --    249.2598               257.2820               275.8876
 Red. masses --      3.8553                 1.1672                 4.2825
 Frc consts  --      0.1411                 0.0455                 0.1920
 IR Inten    --      3.3529                93.1451                 8.9635

                     10                     11                     12
                      A                      A                      A
 Frequencies --    304.3670               348.9576               363.4589
 Red. masses --      2.9899                 1.7416                 3.6802
 Frc consts  --      0.1632                 0.1250                 0.2864
 IR Inten    --      3.0109                26.4775                 9.3746

                     13                     14                     15
                      A                      A                      A
 Frequencies --    384.7590               425.7100               447.2704
 Red. masses --      2.0980                 1.6337                 1.8535
 Frc consts  --      0.1830                 0.1744                 0.2185
 IR Inten    --     72.0147                11.5769                70.1454

                     16                     17                     18
                      A                      A                      A
 Frequencies --    503.9005               603.2964               605.8416
 Red. masses --      4.9944                 3.0122                 3.6935
 Frc consts  --      0.7472                 0.6459                 0.7987
 IR Inten    --      4.7980                 2.6551                13.5563

                     19                     20                     21
                      A                      A                      A
 Frequencies --    649.8901               706.0179               784.8766
 Red. masses --      2.1940                 1.4016                 3.5001
 Frc consts  --      0.5460                 0.4116                 1.2704
 IR Inten    --     46.9925               120.4205                24.9538

                     22                     23                     24
                      A                      A                      A
 Frequencies --    813.5688               882.9291               902.8890
 Red. masses --      3.8384                 2.4565                 2.2362
 Frc consts  --      1.4969                 1.1283                 1.0741
 IR Inten    --     12.6170                 1.3281                 7.7793

                     25                     26                     27
                      A                      A                      A
 Frequencies --    958.6101               962.8525              1092.8296
 Red. masses --      1.9577                 1.8602                 1.9886
 Frc consts  --      1.0600                 1.0161                 1.3993
 IR Inten    --      1.7666                25.4067                51.4336

                     28                     29                     30
                      A                      A                      A
 Frequencies --   1095.2631              1108.3641              1137.5597
 Red. masses --      2.8199                 1.7897                 1.7313
 Frc consts  --      1.9931                 1.2953                 1.3200
 IR Inten    --    146.4327                30.9150                11.0977

                     31                     32                     33
                      A                      A                      A
 Frequencies --   1165.2784              1193.6847              1195.3737
 Red. masses --      2.5321                 2.0009                 2.2210
 Frc consts  --      2.0257                 1.6798                 1.8699
 IR Inten    --     56.6034                 4.9221               115.7277

                     34                     35                     36
                      A                      A                      A
 Frequencies --   1231.5069              1253.8665              1278.2076
 Red. masses --      2.2334                 1.6479                 2.0612
 Frc consts  --      1.9957                 1.5265                 1.9842
 IR Inten    --     21.6064                12.9950                43.6816

                     37                     38                     39
                      A                      A                      A
 Frequencies --   1286.5111              1333.8981              1396.6861
 Red. masses --      1.9264                 1.6133                 1.7515
 Frc consts  --      1.8786                 1.6913                 2.0131
 IR Inten    --     22.3324                 8.0636                18.3572

                     40                     41                     42
                      A                      A                      A
 Frequencies --   1422.2941              1431.9548              1437.8514
 Red. masses --      1.2226                 1.2901                 1.2863
 Frc consts  --      1.4571                 1.5586                 1.5668
 IR Inten    --     62.1377                43.7526                10.6878

                     43                     44                     45
                      A                      A                      A
 Frequencies --   1453.3012              1487.6597              1507.3005
 Red. masses --      1.3149                 1.5789                 1.0508
 Frc consts  --      1.6363                 2.0588                 1.4066
 IR Inten    --     37.8294                76.5314                 3.8892

                     46                     47                     48
                      A                      A                      A
 Frequencies --   1515.9697              1518.6108              1526.5502
 Red. masses --      1.0546                 1.0617                 1.0859
 Frc consts  --      1.4279                 1.4426                 1.4910
 IR Inten    --     10.8511                 7.9131                 3.7601

                     49                     50                     51
                      A                      A                      A
 Frequencies --   3043.8060              3052.2438              3062.2216
 Red. masses --      1.0425                 1.0804                 1.0379
 Frc consts  --      5.6906                 5.9300                 5.7341
 IR Inten    --     21.4797                27.0402                21.8119

                     52                     53                     54
                      A                      A                      A
 Frequencies --   3091.0993              3111.5515              3131.3338
 Red. masses --      1.0881                 1.0955                 1.1020
 Frc consts  --      6.1254                 6.2491                 6.3664
 IR Inten    --     26.6117                23.0903                22.9261

                     55                     56                     57
                      A                      A                      A
 Frequencies --   3137.5736              3138.2909              3618.0679
 Red. masses --      1.1030                 1.1032                 1.0655
 Frc consts  --      6.3976                 6.4016                 8.2177
 IR Inten    --     18.3228                15.4519                93.2293

                     58                     59                     60
                      A                      A                      A
 Frequencies --   3670.1298              3720.9823              3746.8632
 Red. masses --      1.0645                 1.0660                 1.0660
 Frc consts  --      8.4481                 8.6962                 8.8174
 IR Inten    --     42.3281                14.3252                 9.5153

 - Thermochemistry -
 -------------------
 Temperature   298.150 Kelvin.  Pressure   1.00000 Atm.
 Atom     1 has atomic number  6 and mass  12.00000

 Molecular mass:   148.07356 amu.
 Principal axes and moments of inertia in atomic units:
                           1         2         3
     Eigenvalues --  1118.109121324.070281761.45097
           X            0.99987  -0.01316   0.00933
           Y            0.01348   0.99930  -0.03495
           Z           -0.00886   0.03507   0.99935
 This molecule is an asymmetric top.
 Rotational symmetry number  1.
 Warning -- assumption of classical behavior for rotation
           may cause significant error
 Rotational temperatures (Kelvin)      0.07746     0.06541     0.04917
 Rotational constants (GHZ):           1.61410     1.36303     1.02458
 Zero-point vibrational energy     485361.6 (Joules/Mol)
                                  116.00420 (Kcal/Mol)
 Warning -- explicit consideration of  18 degrees of freedom as
           vibrations may cause significant error
 Vibrational temperatures:    174.46   250.91   272.69   293.66   298.37
          (Kelvin)            321.07   358.63   370.17   396.94   437.92
                              502.07   522.94   553.58   612.50   643.52
                              725.00   868.01   871.67   935.05  1015.80
                             1129.26  1170.54  1270.34  1299.06  1379.23
                             1385.33  1572.34  1575.84  1594.69  1636.69
                             1676.58  1717.45  1719.88  1771.86  1804.03
                             1839.06  1851.00  1919.18  2009.52  2046.36
                             2060.26  2068.75  2090.98  2140.41  2168.67
                             2181.14  2184.94  2196.37  4379.36  4391.50
                             4405.85  4447.40  4476.83  4505.29  4514.27
                             4515.30  5205.59  5280.50  5353.66  5390.90

 Zero-point correction=                           0.184864 (Hartree/Particle)
 Thermal correction to Energy=                    0.196019
 Thermal correction to Enthalpy=                  0.196963
 Thermal correction to Gibbs Free Energy=         0.149848
 Sum of electronic and zero-point Energies=           -536.545089
 Sum of electronic and thermal Energies=              -536.533935
 Sum of electronic and thermal Enthalpies=            -536.532991
 Sum of electronic and thermal Free Energies=         -536.580105

                     E (Thermal)             CV                S
                      KCal/Mol        Cal/Mol-Kelvin    Cal/Mol-Kelvin
 Total                  123.004             42.982             99.161
 Electronic               0.000              0.000              0.000
 Translational            0.889              2.981             40.888
 Rotational               0.889              2.981             29.346
 Vibrational            121.226             37.020             28.927
 Vibration     1          0.609              1.931              3.080
 Vibration     2          0.627              1.874              2.388
 Vibration     3          0.633              1.854              2.232
 Vibration     4          0.640              1.834              2.096
 Vibration     5          0.641              1.829              2.067
 Vibration     6          0.649              1.806              1.933
 Vibration     7          0.662              1.764              1.736
 Vibration     8          0.667              1.750              1.680
 Vibration     9          0.678              1.718              1.559
 Vibration    10          0.695              1.665              1.393
 Vibration    11          0.726              1.577              1.171
 Vibration    12          0.737              1.547              1.107
 Vibration    13          0.754              1.503              1.020
 Vibration    14          0.788              1.414              0.873
 Vibration    15          0.806              1.367              0.804
 Vibration    16          0.859              1.241              0.648
 Vibration    17          0.962              1.025              0.444
 Vibration    18          0.964              1.019              0.440

 Optimization completed.
    -- Stationary point found.

 1\1\GINC-NODE109\Freq\RB3LYP\6-31G(d)\C6H12O4\VSC10255\08-Dec-2020\0\\
 #N Geom=AllCheck Guess=TCheck SCRF=Check GenChk RB3LYP/6-31G(d) Freq\\
 CID_22904572_JID_499_neutraal\\0,1\C,1.0200060127,0.0809549298,0.02386
 54253\C,0.4984890742,-1.037098858,-0.8477041786\C,0.9662833194,-2.5043
 12911,-0.5922879612\C,-0.4634103245,-2.9901422869,-1.0044143602\C,-0.9
 737000351,-1.5436682668,-0.6703060579\O,-1.5536602399,-1.3675784705,0.
 6071137175\C,-1.0783011251,-4.1850764134,-0.3125085525\O,-0.4434684358
 ,-3.1572552788,-2.434311407\O,2.0934622353,-2.9524285856,-1.275587677\

 Normal termination of Gaussian 16 at Tue Dec  8 10:53:40 2020.

 ----------------------------------------------------------------------
 # B3LYP/6-311++G(d,p) empiricaldispersion=gd3bj scf=xqc pop=npa geom=c
 heck
 ----------------------------------------------------------------------

 -------------------------------------
 CID_22904572_JID_499_Energie_neutraal
 -------------------------------------
 Structure from the checkpoint file:  "JID_499.chk"
 Charge =  0 Multiplicity = 1

 SCF Done:  E(RB3LYP) =  -536.922421576     A.U. after   13 cycles
 Normal termination of Gaussian 16 at Tue Dec  8 10:58:08 2020.

 ----------------------------------------------------------------------
 # B3LYP/6-311++G(d,p) empiricaldispersion=gd3bj scf=xqc pop=npa geom=c
 heck
 ----------------------------------------------------------------------

 -----------------------------------
 CID_22904572_JID_499_Energie_kation
 -----------------------------------
 Structure from the checkpoint file:  "JID_499.chk"
 Charge =  1 Multiplicity = 2

 SCF Done:  E(UB3LYP) =  -536.586062173     A.U. after   23 cycles
 Normal termination of Gaussian 16 at Tue Dec  8 11:02:32 2020.
 Gaussian 16:  ES64L-G16RevA.03 25-Dec-2016

 ----------------------------------
 CID_22904572_JID_499_Energie_anion
 ----------------------------------
 Structure from the checkpoint file:  "JID_499.chk"
 Charge = -1 Multiplicity = 2

                         Standard orientation:
 ---------------------------------------------------------------------
 Center     Atomic      Atomic             Coordinates (Angstroms)
 Number     Number       Type             X           Y           Z
 ---------------------------------------------------------------------
      1          6           0       -2.363666    0.647044   -0.438164
      2          6           0       -1.082291    0.063918    0.109285
      3          6           0       -0.044954   -0.581727   -0.862240
      4          6           0        1.097571   -0.034310    0.056930
      5          6           0        0.063043    1.015698    0.596880
      6          8           0        0.113027    2.299465    0.006450
      7          6           0        2.396100    0.434434   -0.558531
      8          8           0        1.320743   -1.031094    1.071596
      9          8           0       -0.159323   -1.945468   -1.117909
     10          8           0       -1.431256   -0.891817    1.112502
     11          1           0       -2.164334    1.420592   -1.186465
     12          1           0       -2.952719    1.091833    0.369645
     13          1           0       -2.957274   -0.142791   -0.909734
     14          1           0       -0.011554   -0.056958   -1.825807
     15          1           0        0.092642    1.175975    1.679566
     16          1           0       -0.043418    2.211665   -0.946332
     17          1           0        3.063626    0.859876    0.202275
     18          1           0        2.905908   -0.405227   -1.041644
     19          1           0        2.218725    1.215392   -1.304223
     20          1           0        1.905570   -0.635093    1.738661
     21          1           0       -0.603926   -2.312488   -0.331932
     22          1           0       -0.593591   -1.141808    1.549921
 ---------------------------------------------------------------------

 SCF Done:  E(UB3LYP) =  -536.912274591     A.U. after   27 cycles

 The electronic state is 2-A.
 Alpha  occ. eigenvalues --  -19.02788 -19.02421 -19.02277 -19.01961 -10.12388
 Alpha  occ. eigenvalues --  -10.12062 -10.11576 -10.11200 -10.05855 -10.05090
 Alpha  occ. eigenvalues --   -0.95388  -0.92581  -0.91870  -0.91254  -0.71521
 Alpha  occ. eigenvalues --   -0.64125  -0.60260  -0.55463  -0.49085  -0.47764
 Alpha  occ. eigenvalues --   -0.44158  -0.40285  -0.39485  -0.36885  -0.34970
 Alpha  occ. eigenvalues --   -0.32677  -0.32369  -0.29667  -0.29447  -0.29060
 Alpha  occ. eigenvalues --   -0.28584  -0.27565  -0.26958  -0.25328  -0.23780
 Alpha  occ. eigenvalues --   -0.22572  -0.21768  -0.16995  -0.15613  -0.14327
 Alpha  occ. eigenvalues --    0.04670
 Alpha virt. eigenvalues --    0.07031   0.08493   0.09545   0.10203   0.10993
 Alpha virt. eigenvalues --    0.11703   0.11954   0.12796   0.13441   0.13559
 Alpha virt. eigenvalues --    0.14728   0.16409   0.16909   0.17290   0.18631

  Beta  occ. eigenvalues --  -19.02727 -19.02377 -19.02266 -19.01955 -10.12387
  Beta  occ. eigenvalues --  -10.12060 -10.11560 -10.11172 -10.05822 -10.05036
  Beta  occ. eigenvalues --   -0.95340  -0.92506  -0.91763  -0.91232  -0.71470
  Beta  occ. eigenvalues --   -0.64072  -0.60189  -0.55381  -0.48990  -0.47695
  Beta  occ. eigenvalues --   -0.44100  -0.40215  -0.39427  -0.36840  -0.34935
  Beta  occ. eigenvalues --   -0.32598  -0.32306  -0.29623  -0.29403  -0.29023
  Beta  occ. eigenvalues --   -0.28529  -0.27525  -0.26905  -0.25278  -0.23739
  Beta  occ. eigenvalues --   -0.22549  -0.21711  -0.16968  -0.15582  -0.14294
  Beta virt. eigenvalues --    0.07589   0.08673   0.09092   0.09841   0.10953
  Beta virt. eigenvalues --    0.11597   0.12198   0.12270   0.13092   0.13735
  Beta virt. eigenvalues --    0.14252   0.15194   0.16716   0.17107   0.17580

 Mulliken charges and spin densities:
               1          2
     1  C    1.166313  -1.498368
     2  C   -2.870390   3.195847
     3  C    2.269139  -3.261002
     4  C   -3.383266   3.926614
     5  C    2.402594  -3.073726
     6  O   -0.219888   0.032600
     7  C    2.146947  -2.642899
     8  O   -0.256291  -0.014447
     9  O   -0.154484   0.026927
    10  O   -0.206658  -0.014666
    11  H   -0.386964   0.518134
    12  H    0.059576   0.102009
    13  H    0.038271   0.114776
    14  H   -0.623355   0.832283
    15  H    0.011434   0.247980
    16  H    0.007605   0.253549
    17  H   -0.465163   0.628286
    18  H   -0.065996   0.223272
    19  H   -0.377866   0.513280
    20  H   -0.391814   0.660734
    21  H    0.209290   0.036894
    22  H    0.090965   0.191922
 Sum of Mulliken charges =  -1.00000   1.00000

 Dipole moment (field-independent basis, Debye):
    X=             -3.4563    Y=             -1.9421    Z=              0.7435  Tot=              4.0337
 Quadrupole moment (field-independent basis, Debye-Ang):
   XX=           -101.9194   YY=            -95.9092   ZZ=            -99.7397
   XY=             -0.3355   XZ=             -6.0490   YZ=              3.4874

 Summary of Natural Population Analysis:

                                       Natural Population
                Natural  -----------------------------------------------
    Atom  No    Charge         Core      Valence    Rydberg      Total
 -----------------------------------------------------------------------
      C    1   -0.29443      0.99961     2.28714    0.00768     3.29443
      C    2    0.11158      0.99951     1.87243    0.01648     2.88842
      C    3    0.05296      0.99943     1.92820    0.01942     2.94704
      C    4    0.10942      0.99951     1.87370    0.01736     2.89058
      C    5    0.05276      0.99945     1.92977    0.01802     2.94724
      O    6   -0.36403      0.99989     3.35744    0.00670     4.36403
      C    7   -0.30124      0.99960     2.29437    0.00726     3.30124
      O    8   -0.38624      0.99988     3.37779    0.00856     4.38624
      O    9   -0.36438      0.99989     3.35716    0.00733     4.36438
      O   10   -0.38646      0.99989     3.37977    0.00680     4.38646
      H   11    0.10417      0.00000     0.39431    0.00152     0.39583
      H   12    0.10424      0.00000     0.39486    0.00089     0.39576
      H   13    0.10444      0.00000     0.39465    0.00091     0.39556
      H   14    0.09349      0.00000     0.40409    0.00241     0.40651
      H   15    0.09240      0.00000     0.40620    0.00139     0.40760
      H   16    0.23269      0.00000     0.26069    0.00662     0.26731
      H   17    0.10507      0.00000     0.39291    0.00202     0.39493
      H   18    0.10586      0.00000     0.39302    0.00112     0.39414
      H   19    0.10853      0.00000     0.38918    0.00229     0.39147
      H   20    0.24152      0.00000     0.24404    0.01445     0.25848
      H   21    0.23377      0.00000     0.26279    0.00344     0.26623
      H   22    0.24389      0.00000     0.25269    0.00343     0.25611
 =======================================================================
   * Total *   -0.00000      9.99667    29.84722    0.15611    40.00000

 Normal termination of Gaussian 16 at Tue Dec  8 11:07:39 2020.
