 Gaussian 16, Revision A.03,

 -----------------------------------------------------------
 # opt freq B3LYP/6-31G(d) empiricaldispersion=gd3bj scf=xqc
 -----------------------------------------------------------

 -------------------------------
 CID_150271063_JID_3236_neutraal
 -------------------------------
 Symbolic Z-matrix:
 Charge =  0 Multiplicity = 1

 SCF Done:  E(RB3LYP) =  -623.681805478     A.U. after   16 cycles
 SCF Done:  E(RB3LYP) =  -623.685084521     A.U. after   15 cycles
 SCF Done:  E(RB3LYP) =  -623.686370203     A.U. after   14 cycles
 SCF Done:  E(RB3LYP) =  -623.683431450     A.U. after   14 cycles
 SCF Done:  E(RB3LYP) =  -623.687158469     A.U. after   14 cycles
 SCF Done:  E(RB3LYP) =  -623.687337790     A.U. after   13 cycles
 SCF Done:  E(RB3LYP) =  -623.687332667     A.U. after   13 cycles
 SCF Done:  E(RB3LYP) =  -623.687390304     A.U. after   11 cycles
 SCF Done:  E(RB3LYP) =  -623.687387297     A.U. after   13 cycles
 SCF Done:  E(RB3LYP) =  -623.687399268     A.U. after   11 cycles
 SCF Done:  E(RB3LYP) =  -623.687405520     A.U. after   12 cycles
 SCF Done:  E(RB3LYP) =  -623.687405814     A.U. after    9 cycles
 SCF Done:  E(RB3LYP) =  -623.687405852     A.U. after    8 cycles
 Optimization completed.
    -- Stationary point found.
 Normal termination of Gaussian 16 at Wed Dec  9 22:28:14 2020.

 --------------------------------------------------------------------
 #N Geom=AllCheck Guess=TCheck SCRF=Check GenChk RB3LYP/6-31G(d) Freq
 --------------------------------------------------------------------

 Structure from the checkpoint file:  "JID_3236.chk"
 -------------------------------
 CID_150271063_JID_3236_neutraal
 -------------------------------
 Charge =  0 Multiplicity = 1

 SCF Done:  E(RB3LYP) =  -623.687405852     A.U. after    1 cycles

  Exact polarizability: 132.119  -9.936 110.908  -4.467  13.482  69.223
 Approx polarizability: 204.927 -23.994 218.757 -10.994  41.506 109.860

                      1                      2                      3
                      A                      A                      A
 Frequencies --     30.8438                40.2743                69.7020
 Red. masses --      6.6901                 4.7220                 6.2705
 Frc consts  --      0.0037                 0.0045                 0.0179
 IR Inten    --      0.6467                 5.8920                 4.5362

                      4                      5                      6
                      A                      A                      A
 Frequencies --     84.4611               128.2331               166.7679
 Red. masses --      7.5101                 5.1194                 4.2233
 Frc consts  --      0.0316                 0.0496                 0.0692
 IR Inten    --      3.5944                 4.0472                 2.6798

                      7                      8                      9
                      A                      A                      A
 Frequencies --    214.6864               259.1406               272.4416
 Red. masses --      4.5442                 2.4553                 6.9625
 Frc consts  --      0.1234                 0.0971                 0.3045
 IR Inten    --      1.4690                 2.0486                 6.2148

                     10                     11                     12
                      A                      A                      A
 Frequencies --    331.1872               347.4668               456.6734
 Red. masses --      5.9547                 5.2622                 5.4775
 Frc consts  --      0.3848                 0.3743                 0.6730
 IR Inten    --      5.4423                 8.3891                12.0316

                     13                     14                     15
                      A                      A                      A
 Frequencies --    505.0132               524.6357               558.9236
 Red. masses --      3.0885                 3.4772                13.0256
 Frc consts  --      0.4641                 0.5639                 2.3975
 IR Inten    --      5.7942                12.3759                 8.2444

                     16                     17                     18
                      A                      A                      A
 Frequencies --    588.0724               594.3815               635.2138
 Red. masses --      4.5570                 6.5380                 4.2459
 Frc consts  --      0.9285                 1.3609                 1.0094
 IR Inten    --      1.7894                 1.6378                39.1359

                     19                     20                     21
                      A                      A                      A
 Frequencies --    726.2282               756.9268               816.3374
 Red. masses --      4.1947                 5.2266                 1.3594
 Frc consts  --      1.3035                 1.7643                 0.5337
 IR Inten    --     18.3665                 9.7980                 0.5063

                     22                     23                     24
                      A                      A                      A
 Frequencies --    825.8347               843.7615               880.6186
 Red. masses --      1.9398                 4.2071                 3.3228
 Frc consts  --      0.7795                 1.7647                 1.5182
 IR Inten    --      8.0987                29.6032                20.6396

                     25                     26                     27
                      A                      A                      A
 Frequencies --    951.6475               962.1399               973.9095
 Red. masses --      3.0518                 2.4196                 2.4322
 Frc consts  --      1.6284                 1.3197                 1.3592
 IR Inten    --      2.9749                 3.7439                 7.7022

                     28                     29                     30
                      A                      A                      A
 Frequencies --   1021.8792              1035.5043              1048.1974
 Red. masses --      1.3379                 2.5064                 2.0687
 Frc consts  --      0.8231                 1.5835                 1.3391
 IR Inten    --      1.4344                 9.6656                13.7309

                     31                     32                     33
                      A                      A                      A
 Frequencies --   1178.2754              1198.7497              1205.5558
 Red. masses --      3.3137                 1.3767                 1.1504
 Frc consts  --      2.7105                 1.1656                 0.9851
 IR Inten    --      5.8171                 8.7878                 4.0566

                     34                     35                     36
                      A                      A                      A
 Frequencies --   1251.6098              1276.0572              1315.9810
 Red. masses --      1.8663                 1.4809                 3.1810
 Frc consts  --      1.7225                 1.4208                 3.2458
 IR Inten    --     23.1612                 4.7382                90.1546

                     37                     38                     39
                      A                      A                      A
 Frequencies --   1349.7939              1373.6535              1397.4323
 Red. masses --      2.0129                 1.8398                 1.4481
 Frc consts  --      2.1608                 2.0454                 1.6662
 IR Inten    --     12.5848                31.9959                18.4381

                     40                     41                     42
                      A                      A                      A
 Frequencies --   1413.1122              1434.2081              1459.8329
 Red. masses --      1.2182                 1.0942                 1.8231
 Frc consts  --      1.4332                 1.3260                 2.2891
 IR Inten    --     11.4908                22.0690                 5.0549

                     43                     44                     45
                      A                      A                      A
 Frequencies --   1637.4381              1719.9387              1774.0022
 Red. masses --      7.4281                 6.3431                11.3324
 Frc consts  --     11.7343                11.0555                21.0126
 IR Inten    --     13.4612                13.6902               265.3568

                     46                     47                     48
                      A                      A                      A
 Frequencies --   1837.3050              2262.4004              2935.5449
 Red. masses --     10.2617                13.8677                 1.0865
 Frc consts  --     20.4096                41.8210                 5.5167
 IR Inten    --    100.7973               440.1308               104.1117

                     49                     50                     51
                      A                      A                      A
 Frequencies --   3033.2104              3057.1965              3095.5167
 Red. masses --      1.0620                 1.0979                 1.0851
 Frc consts  --      5.7569                 6.0457                 6.1259
 IR Inten    --      1.8643                 1.3820                11.3573

                     52                     53                     54
                      A                      A                      A
 Frequencies --   3177.0747              3194.0611              3222.7433
 Red. masses --      1.0908                 1.0880                 1.0953
 Frc consts  --      6.4869                 6.5397                 6.7026
 IR Inten    --     10.5442                 2.2345                 3.1154

 - Thermochemistry -
 -------------------
 Temperature   298.150 Kelvin.  Pressure   1.00000 Atm.
 Atom     1 has atomic number  6 and mass  12.00000

 Molecular mass:   177.05383 amu.
 Principal axes and moments of inertia in atomic units:
                           1         2         3
     Eigenvalues --  1121.018403791.592964062.73674
           X            0.99997  -0.00088  -0.00711
           Y            0.00143   0.99693   0.07828
           Z            0.00702  -0.07829   0.99691
 This molecule is an asymmetric top.
 Rotational symmetry number  1.
 Warning -- assumption of classical behavior for rotation
           may cause significant error
 Rotational temperatures (Kelvin)      0.07726     0.02284     0.02132
 Rotational constants (GHZ):           1.60991     0.47598     0.44422
 Zero-point vibrational energy     379526.0 (Joules/Mol)
                                   90.70890 (Kcal/Mol)
 Warning -- explicit consideration of  17 degrees of freedom as
           vibrations may cause significant error
 Vibrational temperatures:     44.38    57.95   100.29   121.52   184.50
          (Kelvin)            239.94   308.89   372.85   391.98   476.50
                              499.93   657.05   726.60   754.83   804.17
                              846.11   855.18   913.93  1044.88  1089.05
                             1174.53  1188.19  1213.98  1267.01  1369.21
                             1384.30  1401.24  1470.26  1489.86  1508.12
                             1695.28  1724.73  1734.53  1800.79  1835.96
                             1893.40  1942.05  1976.38  2010.59  2033.15
                             2063.51  2100.37  2355.91  2474.61  2552.39
                             2643.47  3255.09  4223.59  4364.11  4398.62
                             4453.76  4571.10  4595.54  4636.81

 Zero-point correction=                           0.144554 (Hartree/Particle)
 Thermal correction to Energy=                    0.156356
 Thermal correction to Enthalpy=                  0.157300
 Thermal correction to Gibbs Free Energy=         0.104680
 Sum of electronic and zero-point Energies=           -623.542852
 Sum of electronic and thermal Energies=              -623.531050
 Sum of electronic and thermal Enthalpies=            -623.530105
 Sum of electronic and thermal Free Energies=         -623.582726

                     E (Thermal)             CV                S
                      KCal/Mol        Cal/Mol-Kelvin    Cal/Mol-Kelvin
 Total                   98.115             42.099            110.749
 Electronic               0.000              0.000              0.000
 Translational            0.889              2.981             41.421
 Rotational               0.889              2.981             31.224
 Vibrational             96.338             36.137             38.104
 Vibration     1          0.594              1.984              5.774
 Vibration     2          0.594              1.981              5.246
 Vibration     3          0.598              1.969              4.162
 Vibration     4          0.601              1.960              3.784
 Vibration     5          0.611              1.925              2.972
 Vibration     6          0.624              1.883              2.472
 Vibration     7          0.645              1.819              2.003
 Vibration     8          0.668              1.747              1.668
 Vibration     9          0.675              1.724              1.581
 Vibration    10          0.714              1.613              1.254
 Vibration    11          0.725              1.580              1.178
 Vibration    12          0.815              1.346              0.776
 Vibration    13          0.860              1.239              0.646
 Vibration    14          0.880              1.195              0.599
 Vibration    15          0.915              1.120              0.526
 Vibration    16          0.945              1.057              0.471
 Vibration    17          0.952              1.044              0.459

                           ! Non-Optimized Parameters !
 Normal termination of Gaussian 16 at Wed Dec  9 22:33:17 2020.

 ----------------------------------------------------------------------
 # B3LYP/6-311++G(d,p) empiricaldispersion=gd3bj scf=xqc pop=npa geom=c
 heck
 ----------------------------------------------------------------------

 ---------------------------------------
 CID_150271063_JID_3236_Energie_neutraal
 ---------------------------------------
 Structure from the checkpoint file:  "JID_3236.chk"
 Charge =  0 Multiplicity = 1

 SCF Done:  E(RB3LYP) =  -623.863704091     A.U. after   17 cycles
 Normal termination of Gaussian 16 at Wed Dec  9 22:35:34 2020.

 ----------------------------------------------------------------------
 # B3LYP/6-311++G(d,p) empiricaldispersion=gd3bj scf=xqc pop=npa geom=c
 heck
 ----------------------------------------------------------------------

 -------------------------------------
 CID_150271063_JID_3236_Energie_kation
 -------------------------------------
 Structure from the checkpoint file:  "JID_3236.chk"
 Charge =  1 Multiplicity = 2

 SCF Done:  E(UB3LYP) =  -623.528769828     A.U. after   33 cycles
 SCF Done:  E(UB3LYP) =  -623.530373069     a.u. after    8 cycles
 Normal termination of Gaussian 16 at Wed Dec  9 23:20:28 2020.
 Gaussian 16:  ES64L-G16RevA.03 25-Dec-2016

 ----------------------------------------------------------------------
 # B3LYP/6-311++G(d,p) empiricaldispersion=gd3bj scf=xqc pop=npa geom=c
 heck
 ----------------------------------------------------------------------

 ------------------------------------
 CID_150271063_JID_3236_Energie_anion
 ------------------------------------
 Structure from the checkpoint file:  "JID_3236.chk"
 Charge = -1 Multiplicity = 2

                         Standard orientation:
 ---------------------------------------------------------------------
 Center     Atomic      Atomic             Coordinates (Angstroms)
 Number     Number       Type             X           Y           Z
 ---------------------------------------------------------------------
      1          6           0        2.585704   -0.917621   -0.582322
      2          6           0        1.153679   -1.336397   -0.683754
      3          6           0        0.150569   -0.596457   -0.176333
      4          6           0        0.444244    0.659001    0.517919
      5          6           0        1.700412    1.131111    0.667760
      6          6           0        2.863903    0.401039    0.144005
      7          8           0        4.007919    0.810174    0.277416
      8          6           0       -1.299824   -1.035950   -0.306484
      9          6           0       -1.901076   -1.167701    1.093728
     10          8           0       -2.722340   -0.407752    1.546712
     11          7           0       -2.106101   -0.196864   -1.202955
     12          7           0       -2.381694    0.952236   -0.825856
     13          7           0       -2.702195    2.033394   -0.657597
     14          1           0        3.023416   -0.839391   -1.588504
     15          1           0        3.177786   -1.701350   -0.087563
     16          1           0        0.938535   -2.267290   -1.204511
     17          1           0       -0.389232    1.218961    0.934179
     18          1           0        1.904455    2.061542    1.187958
     19          1           0       -1.314365   -2.029085   -0.766001
     20          1           0       -1.480961   -2.006264    1.689170
 ---------------------------------------------------------------------

 SCF Done:  E(UB3LYP) =  -623.908706443     A.U. after   26 cycles

 The electronic state is 2-A.
 Alpha  occ. eigenvalues --  -18.99829 -18.94157 -14.36609 -14.26164 -14.24261
 Alpha  occ. eigenvalues --  -10.13339 -10.11092 -10.09369 -10.04554 -10.04143
 Alpha  occ. eigenvalues --  -10.03372 -10.02911 -10.01418  -1.02240  -0.93423
 Alpha  occ. eigenvalues --   -0.87900  -0.86238  -0.71270  -0.65498  -0.61536
 Alpha  occ. eigenvalues --   -0.56598  -0.50327  -0.48269  -0.43949  -0.40732
 Alpha  occ. eigenvalues --   -0.39902  -0.39632  -0.35602  -0.35032  -0.33474
 Alpha  occ. eigenvalues --   -0.32568  -0.32250  -0.31222  -0.29083  -0.28949
 Alpha  occ. eigenvalues --   -0.27418  -0.25946  -0.23760  -0.22159  -0.21526
 Alpha  occ. eigenvalues --   -0.19676  -0.18854  -0.15375  -0.12852  -0.09882
 Alpha  occ. eigenvalues --   -0.09712   0.01738
 Alpha virt. eigenvalues --    0.07111   0.08169   0.08793   0.10441   0.11103
 Alpha virt. eigenvalues --    0.11506   0.11997   0.12709   0.13536   0.13566
 Alpha virt. eigenvalues --    0.15102   0.15729   0.16421   0.17411   0.17743

  Beta  occ. eigenvalues --  -18.99575 -18.93923 -14.36587 -14.26151 -14.24260
  Beta  occ. eigenvalues --  -10.13196 -10.11099 -10.09264 -10.04619 -10.04198
  Beta  occ. eigenvalues --  -10.03123 -10.02431 -10.01277  -1.02203  -0.92981
  Beta  occ. eigenvalues --   -0.87478  -0.86206  -0.70870  -0.65231  -0.60968
  Beta  occ. eigenvalues --   -0.56243  -0.49963  -0.47585  -0.43501  -0.40615
  Beta  occ. eigenvalues --   -0.39771  -0.39483  -0.35457  -0.34853  -0.33350
  Beta  occ. eigenvalues --   -0.32261  -0.31911  -0.30456  -0.28833  -0.28536
  Beta  occ. eigenvalues --   -0.26941  -0.25205  -0.23460  -0.21305  -0.20943
  Beta  occ. eigenvalues --   -0.19453  -0.17858  -0.14973  -0.12740  -0.09478
  Beta  occ. eigenvalues --   -0.08102
  Beta virt. eigenvalues --    0.07236   0.07915   0.08780   0.09750   0.10758
  Beta virt. eigenvalues --    0.11101   0.11536   0.12054   0.12801   0.13568
  Beta virt. eigenvalues --    0.13711   0.15738   0.16063   0.16488   0.17492

 Mulliken charges and spin densities:
               1          2
     1  C   -0.574644  -0.014067
     2  C   -0.234164   0.318489
     3  C    1.193582   0.002178
     4  C   -0.643705   0.132507
     5  C   -0.219992   0.170895
     6  C   -0.318123   0.071631
     7  O   -0.382850   0.083802
     8  C   -0.192397  -0.034056
     9  C   -0.269825   0.154470
    10  O   -0.280659   0.076261
    11  N   -0.285409  -0.043618
    12  N    0.557977  -0.005336
    13  N   -0.261238   0.059237
    14  H    0.138962   0.033928
    15  H    0.128084   0.050647
    16  H    0.109162  -0.022860
    17  H    0.124309  -0.016773
    18  H    0.144592  -0.008220
    19  H    0.198835   0.000215
    20  H    0.067504  -0.009331
 Sum of Mulliken charges =  -1.00000   1.00000

 Dipole moment (field-independent basis, Debye):
    X=             -3.1038    Y=             -3.4913    Z=             -1.3755  Tot=              4.8697
 Quadrupole moment (field-independent basis, Debye-Ang):
   XX=           -134.9551   YY=            -84.4782   ZZ=            -86.5575
   XY=             -3.0195   XZ=              0.5922   YZ=              0.2392

 Summary of Natural Population Analysis:

                                       Natural Population
                Natural  -----------------------------------------------
    Atom  No    Charge         Core      Valence    Rydberg      Total
 -----------------------------------------------------------------------
      C    1   -0.25488      0.99959     2.24662    0.00867     3.25488
      C    2    0.04112      0.99949     1.95171    0.00768     2.95888
      C    3   -0.07292      0.99944     2.06372    0.00976     3.07292
      C    4   -0.03442      0.99952     2.02603    0.00886     3.03442
      C    5   -0.12335      0.99951     2.11369    0.01014     3.12335
      C    6    0.27663      0.99964     1.70326    0.02046     2.72337
      O    7   -0.29503      0.99988     3.28682    0.00833     4.29503
      C    8   -0.06689      0.99949     2.05113    0.01626     3.06689
      C    9    0.23883      0.99972     1.74051    0.02094     2.76117
      O   10   -0.25615      0.99988     3.24810    0.00817     4.25615
      N   11   -0.17705      0.99970     2.66373    0.01362     3.67705
      N   12    0.12073      0.99970     2.36239    0.01718     3.37927
      N   13   -0.05603      0.99982     2.54310    0.01311     3.55603
      H   14    0.11803      0.00000     0.38071    0.00127     0.38197
      H   15    0.11775      0.00000     0.38094    0.00131     0.38225
      H   16    0.08034      0.00000     0.41852    0.00115     0.41966
      H   17    0.09454      0.00000     0.40376    0.00170     0.40546
      H   18    0.09400      0.00000     0.40394    0.00206     0.40600
      H   19    0.10633      0.00000     0.39228    0.00139     0.39367
      H   20    0.04842      0.00000     0.44902    0.00256     0.45158
 =======================================================================
   * Total *   -0.00000     12.99538    32.83000    0.17462    46.00000

 Normal termination of Gaussian 16 at Wed Dec  9 23:25:18 2020.
