 Gaussian 16, Revision A.03,

 -----------------------------------------------------------
 # opt freq B3LYP/6-31G(d) empiricaldispersion=gd3bj scf=xqc
 -----------------------------------------------------------

 -------------------------------
 CID_154237299_JID_8360_neutraal
 -------------------------------
 Symbolic Z-matrix:
 Charge =  0 Multiplicity = 1

 SCF Done:  E(RB3LYP) =  -913.275868703     A.U. after   15 cycles
 SCF Done:  E(RB3LYP) =  -913.233032717     A.U. after   14 cycles
 SCF Done:  E(RB3LYP) =  -913.280515939     A.U. after   13 cycles
 SCF Done:  E(RB3LYP) =  -913.281926333     A.U. after   13 cycles
 SCF Done:  E(RB3LYP) =  -913.282447280     A.U. after   12 cycles
 SCF Done:  E(RB3LYP) =  -913.282476879     A.U. after   12 cycles
 SCF Done:  E(RB3LYP) =  -913.282824602     A.U. after   11 cycles
 SCF Done:  E(RB3LYP) =  -913.282933577     A.U. after   11 cycles
 SCF Done:  E(RB3LYP) =  -913.283026969     A.U. after   11 cycles
 SCF Done:  E(RB3LYP) =  -913.283141282     A.U. after   11 cycles
 SCF Done:  E(RB3LYP) =  -913.283269736     A.U. after    9 cycles
 SCF Done:  E(RB3LYP) =  -913.283270832     A.U. after    8 cycles
 SCF Done:  E(RB3LYP) =  -913.283271339     A.U. after    8 cycles
 SCF Done:  E(RB3LYP) =  -913.283271818     A.U. after    8 cycles
 SCF Done:  E(RB3LYP) =  -913.283272018     A.U. after    8 cycles
 Optimization completed.
    -- Stationary point found.
 Normal termination of Gaussian 16 at Fri Dec 11 20:26:41 2020.

 --------------------------------------------------------------------
 #N Geom=AllCheck Guess=TCheck SCRF=Check GenChk RB3LYP/6-31G(d) Freq
 --------------------------------------------------------------------

 Structure from the checkpoint file:  "JID_8360.chk"
 -------------------------------
 CID_154237299_JID_8360_neutraal
 -------------------------------
 Charge =  0 Multiplicity = 1

 SCF Done:  E(RB3LYP) =  -913.283272018     A.U. after    1 cycles

  Exact polarizability: 163.002   8.630 147.613 -17.239  21.963 107.508
 Approx polarizability: 251.166  15.473 221.824 -40.468  45.826 187.137

                      1                      2                      3
                      A                      A                      A
 Frequencies --     42.2973                48.5135                56.1946
 Red. masses --      8.0274                 5.3616                 6.5857
 Frc consts  --      0.0085                 0.0074                 0.0123
 IR Inten    --      1.1482                 0.7247                 1.4412

                      4                      5                      6
                      A                      A                      A
 Frequencies --     71.1006                92.9539               116.6686
 Red. masses --      7.3149                 7.1178                 5.2050
 Frc consts  --      0.0218                 0.0362                 0.0417
 IR Inten    --      1.7513                 5.6804                 1.0886

                      7                      8                      9
                      A                      A                      A
 Frequencies --    154.5772               165.8521               180.5809
 Red. masses --      6.7820                 5.3959                 4.8300
 Frc consts  --      0.0955                 0.0874                 0.0928
 IR Inten    --      6.2820                 3.0352                 1.7883

                     10                     11                     12
                      A                      A                      A
 Frequencies --    233.3803               240.3394               258.2983
 Red. masses --      3.2616                 4.2162                 5.0188
 Frc consts  --      0.1047                 0.1435                 0.1973
 IR Inten    --      4.1247                 7.6304                 1.5805

                     13                     14                     15
                      A                      A                      A
 Frequencies --    295.2101               299.5940               327.0634
 Red. masses --      3.8568                 5.1791                 4.2255
 Frc consts  --      0.1980                 0.2739                 0.2663
 IR Inten    --      9.1397                10.0073                 3.6032

                     16                     17                     18
                      A                      A                      A
 Frequencies --    362.2910               387.4583               399.6097
 Red. masses --      5.3816                 2.1401                 3.6275
 Frc consts  --      0.4162                 0.1893                 0.3413
 IR Inten    --     11.0239                72.7669                35.4093

                     19                     20                     21
                      A                      A                      A
 Frequencies --    412.7110               425.8890               441.4242
 Red. masses --      3.4101                 1.8990                 1.1776
 Frc consts  --      0.3422                 0.2029                 0.1352
 IR Inten    --     34.5272                76.9637               112.8566

                     22                     23                     24
                      A                      A                      A
 Frequencies --    477.3837               511.9733               547.4996
 Red. masses --      3.5644                 3.4455                 1.4627
 Frc consts  --      0.4786                 0.5321                 0.2583
 IR Inten    --     15.1908                28.0783                37.2633

                     25                     26                     27
                      A                      A                      A
 Frequencies --    565.0088               576.9797               599.6517
 Red. masses --      2.3247                 3.1655                 3.2756
 Frc consts  --      0.4373                 0.6209                 0.6940
 IR Inten    --      2.4708                 5.0973                32.3311

                     28                     29                     30
                      A                      A                      A
 Frequencies --    612.1167               641.7562               656.3798
 Red. masses --      2.0309                 2.1577                 1.5739
 Frc consts  --      0.4483                 0.5236                 0.3995
 IR Inten    --     16.9038                80.8268                49.0273

                     31                     32                     33
                      A                      A                      A
 Frequencies --    667.9056               682.6382               710.9050
 Red. masses --      2.7206                 3.1942                 1.3528
 Frc consts  --      0.7151                 0.8770                 0.4028
 IR Inten    --     17.7097                 2.5114               108.3915

                     34                     35                     36
                      A                      A                      A
 Frequencies --    751.2320               779.9341               793.0908
 Red. masses --      2.6212                 2.1418                 3.5343
 Frc consts  --      0.8716                 0.7676                 1.3098
 IR Inten    --     21.9924                32.2363                20.0210

                     37                     38                     39
                      A                      A                      A
 Frequencies --    822.2121               837.5531               839.9842
 Red. masses --      4.4175                 3.2472                 2.8259
 Frc consts  --      1.7595                 1.3421                 1.1748
 IR Inten    --      3.3259                 4.4716                 1.7464

                     40                     41                     42
                      A                      A                      A
 Frequencies --    872.0637               931.6532               953.5745
 Red. masses --      5.0249                 1.8115                 1.3408
 Frc consts  --      2.2515                 0.9264                 0.7183
 IR Inten    --      2.8801                 8.7085                 0.8545

                     43                     44                     45
                      A                      A                      A
 Frequencies --   1003.9813              1006.3187              1025.1766
 Red. masses --      2.2653                 1.3868                 6.3226
 Frc consts  --      1.3453                 0.8274                 3.9151
 IR Inten    --     77.2560                 8.9837                91.9245

                     46                     47                     48
                      A                      A                      A
 Frequencies --   1073.2223              1092.0947              1111.8045
 Red. masses --      3.5085                 2.0892                 1.9292
 Frc consts  --      2.3809                 1.4681                 1.4050
 IR Inten    --     42.1590                17.5259                41.0157

                     49                     50                     51
                      A                      A                      A
 Frequencies --   1120.4674              1126.6804              1143.9070
 Red. masses --      2.1428                 2.7580                 1.8895
 Frc consts  --      1.5850                 2.0628                 1.4567
 IR Inten    --     15.8573                70.3520                14.1387

                     52                     53                     54
                      A                      A                      A
 Frequencies --   1168.9193              1190.7955              1236.6682
 Red. masses --      2.9916                 1.2927                 1.1954
 Frc consts  --      2.4083                 1.0800                 1.0771
 IR Inten    --     14.4543                 3.8664                43.4007

                     55                     56                     57
                      A                      A                      A
 Frequencies --   1250.1618              1257.6515              1287.1894
 Red. masses --      1.8367                 1.9253                 1.4846
 Frc consts  --      1.6913                 1.7942                 1.4492
 IR Inten    --     19.1075                30.6467                59.1233

                     58                     59                     60
                      A                      A                      A
 Frequencies --   1294.7409              1325.2090              1354.2424
 Red. masses --      1.2609                 4.0394                 5.5802
 Frc consts  --      1.2454                 4.1796                 6.0297
 IR Inten    --      8.6600               152.4039                83.3690

                     61                     62                     63
                      A                      A                      A
 Frequencies --   1377.1503              1393.3582              1409.1442
 Red. masses --      1.3062                 3.2099                 1.3812
 Frc consts  --      1.4595                 3.6717                 1.6159
 IR Inten    --      5.3691                92.3954                 8.7959

                     64                     65                     66
                      A                      A                      A
 Frequencies --   1422.7223              1441.3238              1462.3402
 Red. masses --      1.3468                 1.2068                 1.2896
 Frc consts  --      1.6061                 1.4771                 1.6248
 IR Inten    --      7.6826                20.6003               106.4053

                     67                     68                     69
                      A                      A                      A
 Frequencies --   1476.2003              1506.2838              1527.5482
 Red. masses --      3.3261                 2.4753                 1.0892
 Frc consts  --      4.2705                 3.3090                 1.4975
 IR Inten    --    132.4072                29.1735                 3.8827

                     70                     71                     72
                      A                      A                      A
 Frequencies --   1543.7429              1620.1302              1638.5609
 Red. masses --      1.1175                 1.3960                 3.6053
 Frc consts  --      1.5691                 2.1589                 5.7031
 IR Inten    --     14.6118               219.9149                 2.9102

                     73                     74                     75
                      A                      A                      A
 Frequencies --   1642.0258              1643.9414              1779.3686
 Red. masses --      2.4525                 1.8753                 9.2060
 Frc consts  --      3.8959                 2.9860                17.1734
 IR Inten    --     70.6883                72.0346               288.0201

                     76                     77                     78
                      A                      A                      A
 Frequencies --   1810.8014              3071.3162              3082.1977
 Red. masses --      9.8872                 1.0710                 1.0732
 Frc consts  --     19.1014                 5.9524                 6.0071
 IR Inten    --    287.3746                 8.8948                32.8530

                     79                     80                     81
                      A                      A                      A
 Frequencies --   3115.9716              3125.5690              3167.3575
 Red. masses --      1.0589                 1.1081                 1.1075
 Frc consts  --      6.0574                 6.3781                 6.5462
 IR Inten    --     31.0515                34.4872                11.4684

                     82                     83                     84
                      A                      A                      A
 Frequencies --   3180.7241              3213.7656              3236.7807
 Red. masses --      1.0886                 1.0921                 1.0926
 Frc consts  --      6.4887                 6.6454                 6.7444
 IR Inten    --      8.6090                11.0927                 4.7462

                     85                     86                     87
                      A                      A                      A
 Frequencies --   3542.2734              3576.1502              3622.9305
 Red. masses --      1.0467                 1.0445                 1.0669
 Frc consts  --      7.7381                 7.8704                 8.2508
 IR Inten    --     41.2959                41.2412               216.3508

                     88                     89                     90
                      A                      A                      A
 Frequencies --   3652.8342              3662.1207              3710.6729
 Red. masses --      1.0651                 1.1016                 1.1061
 Frc consts  --      8.3730                 8.7044                 8.9732
 IR Inten    --     52.4555                30.3697                98.6380

 - Thermochemistry -
 -------------------
 Temperature   298.150 Kelvin.  Pressure   1.00000 Atm.
 Atom     1 has atomic number  6 and mass  12.00000

 Molecular mass:   254.09027 amu.
 Principal axes and moments of inertia in atomic units:
                           1         2         3
     Eigenvalues --  3510.170724667.202416345.02813
           X            0.99998   0.00213   0.00566
           Y           -0.00229   0.99960   0.02820
           Z           -0.00560  -0.02821   0.99959
 This molecule is an asymmetric top.
 Rotational symmetry number  1.
 Warning -- assumption of classical behavior for rotation
           may cause significant error
 Rotational temperatures (Kelvin)      0.02468     0.01856     0.01365
 Rotational constants (GHZ):           0.51415     0.38669     0.28443
 Zero-point vibrational energy     673306.4 (Joules/Mol)
                                  160.92409 (Kcal/Mol)
 Warning -- explicit consideration of  28 degrees of freedom as
           vibrations may cause significant error
 Vibrational temperatures:     60.86    69.80    80.85   102.30   133.74
          (Kelvin)            167.86   222.40   238.62   259.82   335.78
                              345.79   371.63   424.74   431.05   470.57
                              521.26   557.47   574.95   593.80   612.76
                              635.11   686.85   736.62   787.73   812.92
                              830.15   862.77   880.70   923.34   944.38
                              960.97   982.16  1022.83  1080.86  1122.15
                             1141.08  1182.98  1205.05  1208.55  1254.71
                             1340.44  1371.98  1444.51  1447.87  1475.00
                             1544.13  1571.28  1599.64  1612.10  1621.04
                             1645.83  1681.81  1713.29  1779.29  1798.70
                             1809.48  1851.98  1862.84  1906.68  1948.45
                             1981.41  2004.73  2027.44  2046.98  2073.74
                             2103.98  2123.92  2167.21  2197.80  2221.10
                             2331.01  2357.52  2362.51  2365.26  2560.11
                             2605.34  4418.94  4434.60  4483.19  4497.00
                             4557.12  4576.35  4623.89  4657.01  5096.54
                             5145.28  5212.59  5255.61  5268.97  5338.83

 Zero-point correction=                           0.256449 (Hartree/Particle)
 Thermal correction to Energy=                    0.273433
 Thermal correction to Enthalpy=                  0.274377
 Thermal correction to Gibbs Free Energy=         0.211759
 Sum of electronic and zero-point Energies=           -913.026823
 Sum of electronic and thermal Energies=              -913.009839
 Sum of electronic and thermal Enthalpies=            -913.008895
 Sum of electronic and thermal Free Energies=         -913.071513

                     E (Thermal)             CV                S
                      KCal/Mol        Cal/Mol-Kelvin    Cal/Mol-Kelvin
 Total                  171.582             65.444            131.791
 Electronic               0.000              0.000              0.000
 Translational            0.889              2.981             42.498
 Rotational               0.889              2.981             33.008
 Vibrational            169.804             59.482             56.286
 Vibration     1          0.595              1.980              5.148
 Vibration     2          0.595              1.978              4.877
 Vibration     3          0.596              1.975              4.587
 Vibration     4          0.598              1.968              4.123
 Vibration     5          0.602              1.954              3.597
 Vibration     6          0.608              1.936              3.155
 Vibration     7          0.620              1.898              2.615
 Vibration     8          0.624              1.884              2.482
 Vibration     9          0.630              1.866              2.322
 Vibration    10          0.654              1.790              1.853
 Vibration    11          0.657              1.779              1.800
 Vibration    12          0.667              1.749              1.673
 Vibration    13          0.689              1.683              1.444
 Vibration    14          0.692              1.674              1.419
 Vibration    15          0.711              1.621              1.275
 Vibration    16          0.736              1.550              1.112
 Vibration    17          0.756              1.497              1.010
 Vibration    18          0.766              1.471              0.964
 Vibration    19          0.776              1.443              0.917
 Vibration    20          0.788              1.414              0.872
 Vibration    21          0.801              1.380              0.822
 Vibration    22          0.834              1.300              0.717
 Vibration    23          0.867              1.223              0.629
 Vibration    24          0.903              1.145              0.549
 Vibration    25          0.921              1.107              0.514
 Vibration    26          0.933              1.081              0.491
 Vibration    27          0.958              1.033              0.450
 Vibration    28          0.971              1.006              0.429

                           ! Non-Optimized Parameters !
 Normal termination of Gaussian 16 at Fri Dec 11 20:40:43 2020.

 ----------------------------------------------------------------------
 # B3LYP/6-311++G(d,p) empiricaldispersion=gd3bj scf=xqc pop=npa geom=c
 heck
 ----------------------------------------------------------------------

 ---------------------------------------
 CID_154237299_JID_8360_Energie_neutraal
 ---------------------------------------
 Structure from the checkpoint file:  "JID_8360.chk"
 Charge =  0 Multiplicity = 1

 SCF Done:  E(RB3LYP) =  -913.575141903     A.U. after   15 cycles
 Normal termination of Gaussian 16 at Fri Dec 11 20:46:06 2020.

 ----------------------------------------------------------------------
 # B3LYP/6-311++G(d,p) empiricaldispersion=gd3bj scf=xqc pop=npa geom=c
 heck
 ----------------------------------------------------------------------

 -------------------------------------
 CID_154237299_JID_8360_Energie_kation
 -------------------------------------
 Structure from the checkpoint file:  "JID_8360.chk"
 Charge =  1 Multiplicity = 2

 SCF Done:  E(UB3LYP) =  -913.249753215     A.U. after   33 cycles
 SCF Done:  E(UB3LYP) =  -913.250004325     a.u. after    9 cycles
 Normal termination of Gaussian 16 at Fri Dec 11 23:09:26 2020.
 Gaussian 16:  ES64L-G16RevA.03 25-Dec-2016

 ----------------------------------------------------------------------
 # B3LYP/6-311++G(d,p) empiricaldispersion=gd3bj scf=xqc pop=npa geom=c
 heck
 ----------------------------------------------------------------------

 ------------------------------------
 CID_154237299_JID_8360_Energie_anion
 ------------------------------------
 Structure from the checkpoint file:  "JID_8360.chk"
 Charge = -1 Multiplicity = 2

                         Standard orientation:
 ---------------------------------------------------------------------
 Center     Atomic      Atomic             Coordinates (Angstroms)
 Number     Number       Type             X           Y           Z
 ---------------------------------------------------------------------
      1          6           0        1.608894   -2.497928   -1.060186
      2          6           0        2.381110   -1.375949   -0.790193
      3          6           0        1.894901   -0.318851   -0.010283
      4          6           0        0.594049   -0.409133    0.526084
      5          6           0       -0.193462   -1.548650    0.262060
      6          6           0        0.320721   -2.574334   -0.538561
      7          6           0       -1.562225   -1.715610    0.852617
      8          8           0       -1.820676   -1.592705    2.035433
      9          7           0       -2.557144   -1.953913   -0.092931
     10          8           0        0.138351    0.615395    1.312241
     11          6           0       -1.085263    1.317928    0.999390
     12          6           0       -1.065262    2.073623   -0.337788
     13          6           0       -1.284556    1.198745   -1.579829
     14          8           0       -2.625277    0.706774   -1.599953
     15          8           0       -2.108212    3.036914   -0.285897
     16          6           0        2.856331    0.842871    0.148516
     17          8           0        3.931665    0.836948   -0.443098
     18          7           0        2.475766    1.877465    0.944911
     19          1           0        2.004391   -3.306259   -1.666571
     20          1           0        3.384423   -1.267911   -1.186421
     21          1           0       -0.285092   -3.458538   -0.721588
     22          1           0       -2.291737   -2.337204   -0.992033
     23          1           0       -3.435438   -2.293652    0.285051
     24          1           0       -1.946600    0.649896    1.066229
     25          1           0       -1.178484    2.050492    1.801417
     26          1           0       -0.111872    2.607617   -0.426194
     27          1           0       -1.183136    1.831939   -2.466051
     28          1           0       -0.550579    0.389208   -1.652881
     29          1           0       -2.684418   -0.067468   -1.008340
     30          1           0       -2.892417    2.562805   -0.621823
     31          1           0        1.654431    1.798760    1.527211
     32          1           0        3.167946    2.592568    1.117346
 ---------------------------------------------------------------------

 SCF Done:  E(UB3LYP) =  -913.590160224     A.U. after   30 cycles

 The electronic state is 2-A.
 Alpha  occ. eigenvalues --  -19.03044 -19.02754 -19.02465 -18.97114 -18.94279
 Alpha  occ. eigenvalues --  -14.22837 -14.19343 -10.14895 -10.12854 -10.12057
 Alpha  occ. eigenvalues --  -10.11568 -10.11494 -10.10968 -10.03737 -10.03290
 Alpha  occ. eigenvalues --  -10.03081 -10.02561 -10.01326  -0.94954  -0.93974
 Alpha  occ. eigenvalues --   -0.92322  -0.91337  -0.89575  -0.79759  -0.76903
 Alpha  occ. eigenvalues --   -0.71850  -0.66101  -0.62766  -0.61858  -0.58004
 Alpha  occ. eigenvalues --   -0.52120  -0.50607  -0.49706  -0.46139  -0.44889
 Alpha  occ. eigenvalues --   -0.43088  -0.42132  -0.41023  -0.40832  -0.39226
 Alpha  occ. eigenvalues --   -0.37304  -0.36772  -0.35498  -0.34579  -0.32698
 Alpha  occ. eigenvalues --   -0.32492  -0.31073  -0.30247  -0.29468  -0.28824
 Alpha  occ. eigenvalues --   -0.28179  -0.27690  -0.26008  -0.24986  -0.24345
 Alpha  occ. eigenvalues --   -0.23316  -0.22798  -0.21202  -0.20059  -0.18569
 Alpha  occ. eigenvalues --   -0.17888  -0.16920  -0.14331  -0.14281  -0.12400
 Alpha  occ. eigenvalues --   -0.12195  -0.10815   0.04326
 Alpha virt. eigenvalues --    0.07235   0.08522   0.09210   0.09584   0.09885
 Alpha virt. eigenvalues --    0.10626   0.11478   0.11795   0.12160   0.13055
 Alpha virt. eigenvalues --    0.13675   0.13882   0.14404   0.15455   0.15940

  Beta  occ. eigenvalues --  -19.03050 -19.02752 -19.02465 -18.96978 -18.94180
  Beta  occ. eigenvalues --  -14.22808 -14.19286 -10.14731 -10.12737 -10.12057
  Beta  occ. eigenvalues --  -10.11572 -10.11495 -10.11022 -10.03599 -10.03425
  Beta  occ. eigenvalues --  -10.02929 -10.02114 -10.00924  -0.94950  -0.93972
  Beta  occ. eigenvalues --   -0.92060  -0.91329  -0.89367  -0.79624  -0.76752
  Beta  occ. eigenvalues --   -0.71435  -0.66046  -0.62112  -0.61661  -0.57859
  Beta  occ. eigenvalues --   -0.51908  -0.49893  -0.49525  -0.46033  -0.44682
  Beta  occ. eigenvalues --   -0.43012  -0.42109  -0.40915  -0.40717  -0.39160
  Beta  occ. eigenvalues --   -0.37111  -0.36657  -0.35396  -0.34435  -0.32547
  Beta  occ. eigenvalues --   -0.32334  -0.30845  -0.30160  -0.29132  -0.28351
  Beta  occ. eigenvalues --   -0.27537  -0.27501  -0.25904  -0.24919  -0.24232
  Beta  occ. eigenvalues --   -0.23070  -0.22524  -0.20551  -0.19886  -0.18433
  Beta  occ. eigenvalues --   -0.17432  -0.16747  -0.14084  -0.13706  -0.12078
  Beta  occ. eigenvalues --   -0.10349  -0.10126
  Beta virt. eigenvalues --    0.07188   0.08598   0.09236   0.09615   0.10063
  Beta virt. eigenvalues --    0.10213   0.10822   0.11430   0.11809   0.12269
  Beta virt. eigenvalues --    0.13057   0.13650   0.14059   0.14660   0.15597

 Mulliken charges and spin densities:
               1          2
     1  C   -0.526473  -0.092625
     2  C   -0.451639   0.357245
     3  C    0.349778   0.052223
     4  C   -0.140543  -0.038933
     5  C    0.756204   0.013682
     6  C   -0.558284   0.408325
     7  C   -0.297402   0.104964
     8  O   -0.296830   0.053684
     9  N   -0.408616   0.012669
    10  O   -0.135640  -0.000311
    11  C   -0.304219   0.018633
    12  C   -0.348199  -0.015071
    13  C   -0.384119  -0.000604
    14  O   -0.329390  -0.001768
    15  O   -0.176767   0.000325
    16  C    0.041390   0.074548
    17  O   -0.412065   0.041219
    18  N   -0.449978   0.027151
    19  H    0.120480   0.007413
    20  H    0.181604  -0.023623
    21  H    0.117970  -0.028002
    22  H    0.248959   0.001219
    23  H    0.263407   0.004663
    24  H    0.213098   0.012392
    25  H    0.171850   0.001396
    26  H    0.195975   0.005587
    27  H    0.195197   0.000596
    28  H    0.206564   0.000889
    29  H    0.344728   0.005888
    30  H    0.250624   0.000319
    31  H    0.268224  -0.002301
    32  H    0.294114  -0.001791
 Sum of Mulliken charges =  -1.00000   1.00000

 Dipole moment (field-independent basis, Debye):
    X=             -5.2780    Y=              0.7089    Z=             -1.0418  Tot=              5.4263
 Quadrupole moment (field-independent basis, Debye-Ang):
   XX=           -149.6631   YY=           -126.2666   ZZ=           -125.1883
   XY=              7.1043   XZ=              9.1747   YZ=             10.4118

 Summary of Natural Population Analysis:

                                       Natural Population
                Natural  -----------------------------------------------
    Atom  No    Charge         Core      Valence    Rydberg      Total
 -----------------------------------------------------------------------
      C    1   -0.14288      0.99957     2.13406    0.00925     3.14288
      C    2    0.00429      0.99955     1.98775    0.00841     2.99571
      C    3   -0.07476      0.99941     2.06332    0.01203     3.07476
      C    4    0.16814      0.99932     1.81810    0.01444     2.83186
      C    5   -0.09290      0.99941     2.07976    0.01373     3.09290
      C    6   -0.00693      0.99955     1.99922    0.00817     3.00693
      C    7    0.35681      0.99965     1.61837    0.02516     2.64319
      O    8   -0.30299      0.99987     3.29663    0.00649     4.30299
      N    9   -0.42703      0.99972     2.91926    0.00805     3.92703
      O   10   -0.29937      0.99985     3.28826    0.01125     4.29937
      C   11   -0.01852      0.99952     2.00735    0.01165     3.01852
      C   12    0.03303      0.99958     1.95552    0.01187     2.96697
      C   13   -0.02956      0.99958     2.01862    0.01136     3.02956
      O   14   -0.39353      0.99990     3.38603    0.00761     4.39353
      O   15   -0.37694      0.99990     3.36997    0.00707     4.37694
      C   16    0.34936      0.99968     1.62920    0.02177     2.65064
      O   17   -0.33169      0.99988     3.32550    0.00630     4.33169
      N   18   -0.40491      0.99970     2.89797    0.00724     3.90491
      H   19    0.09206      0.00000     0.40689    0.00105     0.40794
      H   20    0.10521      0.00000     0.39374    0.00105     0.39479
      H   21    0.08401      0.00000     0.41491    0.00109     0.41599
      H   22    0.19476      0.00000     0.30407    0.00118     0.30524
      H   23    0.18692      0.00000     0.31042    0.00266     0.31308
      H   24    0.09032      0.00000     0.40717    0.00251     0.40968
      H   25    0.09415      0.00000     0.40481    0.00104     0.40585
      H   26    0.09324      0.00000     0.40464    0.00212     0.40676
      H   27    0.08450      0.00000     0.41420    0.00129     0.41550
      H   28    0.10133      0.00000     0.39765    0.00102     0.39867
      H   29    0.24419      0.00000     0.25306    0.00276     0.25581
      H   30    0.23431      0.00000     0.26277    0.00292     0.26569
      H   31    0.20250      0.00000     0.29612    0.00139     0.29750
      H   32    0.18289      0.00000     0.31391    0.00320     0.31711
 =======================================================================
   * Total *   -0.00000     17.99363    48.77923    0.22713    67.00000

 Normal termination of Gaussian 16 at Fri Dec 11 23:24:04 2020.
