 Gaussian 16, Revision A.03,

 -----------------------------------------------------------
 # opt freq B3LYP/6-31G(d) empiricaldispersion=gd3bj scf=xqc
 -----------------------------------------------------------

 -------------------------------
 CID_123336641_JID_2938_neutraal
 -------------------------------
 Symbolic Z-matrix:
 Charge =  0 Multiplicity = 1

 SCF Done:  E(RB3LYP) =  -872.751099905     A.U. after   15 cycles
 SCF Done:  E(RB3LYP) =  -872.754800456     A.U. after   12 cycles
 SCF Done:  E(RB3LYP) =  -872.755269818     A.U. after   12 cycles
 SCF Done:  E(RB3LYP) =  -872.755330527     A.U. after   11 cycles
 SCF Done:  E(RB3LYP) =  -872.755358796     A.U. after   10 cycles
 SCF Done:  E(RB3LYP) =  -872.755365701     A.U. after    9 cycles
 SCF Done:  E(RB3LYP) =  -872.755367846     A.U. after    9 cycles
 SCF Done:  E(RB3LYP) =  -872.755368741     A.U. after    9 cycles
 SCF Done:  E(RB3LYP) =  -872.755369327     A.U. after    8 cycles
 SCF Done:  E(RB3LYP) =  -872.755369423     A.U. after    7 cycles
 Optimization completed.
    -- Stationary point found.
 Normal termination of Gaussian 16 at Wed Dec  9 18:14:50 2020.

 --------------------------------------------------------------------
 #N Geom=AllCheck Guess=TCheck SCRF=Check GenChk RB3LYP/6-31G(d) Freq
 --------------------------------------------------------------------

 Structure from the checkpoint file:  "JID_2938.chk"
 -------------------------------
 CID_123336641_JID_2938_neutraal
 -------------------------------
 Charge =  0 Multiplicity = 1

 SCF Done:  E(RB3LYP) =  -872.755369423     A.U. after    1 cycles

  Exact polarizability: 145.509 -12.354 122.281  -2.115   0.670  69.116
 Approx polarizability: 226.199 -18.374 222.848  -6.499   0.480 103.471

                      1                      2                      3
                      A                      A                      A
 Frequencies --     52.8666                68.5213               148.2799
 Red. masses --      4.5054                 6.0126                 1.7928
 Frc consts  --      0.0074                 0.0166                 0.0232
 IR Inten    --      1.9916                 0.8401                10.0858

                      4                      5                      6
                      A                      A                      A
 Frequencies --    184.5310               215.7017               237.4407
 Red. masses --      1.6501                 3.9093                 1.5731
 Frc consts  --      0.0331                 0.1072                 0.0523
 IR Inten    --     16.1974                 0.0898                 0.9170

                      7                      8                      9
                      A                      A                      A
 Frequencies --    242.7013               286.8248               382.7874
 Red. masses --      2.2631                 3.0942                 4.7757
 Frc consts  --      0.0785                 0.1500                 0.4123
 IR Inten    --      1.7635                 1.2364                 0.5037

                     10                     11                     12
                      A                      A                      A
 Frequencies --    420.2260               441.4633               499.5907
 Red. masses --      3.8015                 4.1569                 5.1985
 Frc consts  --      0.3955                 0.4773                 0.7645
 IR Inten    --      8.1409                 0.1789                 3.1525

                     13                     14                     15
                      A                      A                      A
 Frequencies --    555.5707               607.5073               619.1229
 Red. masses --      7.2664                 4.3677                 4.7167
 Frc consts  --      1.3214                 0.9497                 1.0652
 IR Inten    --      0.3797                 3.8628                15.4440

                     16                     17                     18
                      A                      A                      A
 Frequencies --    636.3129               655.2389               744.3472
 Red. masses --      3.7537                 3.8522                 4.7410
 Frc consts  --      0.8955                 0.9744                 1.5477
 IR Inten    --      3.2134                26.2549                33.7508

                     19                     20                     21
                      A                      A                      A
 Frequencies --    791.4647               800.3630               802.6159
 Red. masses --      1.2879                 7.0821                 6.0363
 Frc consts  --      0.4753                 2.6729                 2.2911
 IR Inten    --     42.4433                 0.5389                 7.0939

                     22                     23                     24
                      A                      A                      A
 Frequencies --    861.8806               894.7808               905.7402
 Red. masses --      1.4757                 1.1670                 4.8031
 Frc consts  --      0.6459                 0.5505                 2.3216
 IR Inten    --      5.9432                 6.0336                 3.3363

                     25                     26                     27
                      A                      A                      A
 Frequencies --    934.0941               969.9465               995.6097
 Red. masses --      1.3263                 1.3239                 2.3935
 Frc consts  --      0.6818                 0.7339                 1.3979
 IR Inten    --      0.3520                 0.9905                12.9844

                     28                     29                     30
                      A                      A                      A
 Frequencies --   1069.3456              1077.2295              1122.6109
 Red. masses --      2.4795                 1.8734                 2.2822
 Frc consts  --      1.6705                 1.2808                 1.6946
 IR Inten    --      3.5151                34.6694                 5.5446

                     31                     32                     33
                      A                      A                      A
 Frequencies --   1126.6576              1175.7785              1233.4817
 Red. masses --      2.2508                 1.4583                 3.2351
 Frc consts  --      1.6833                 1.1878                 2.9001
 IR Inten    --     12.0739                17.7216                 2.7017

                     34                     35                     36
                      A                      A                      A
 Frequencies --   1238.0898              1307.2685              1321.3723
 Red. masses --      1.6190                 1.3161                 1.8926
 Frc consts  --      1.4622                 1.3252                 1.9469
 IR Inten    --     77.1424                23.7580                 5.2988

                     37                     38                     39
                      A                      A                      A
 Frequencies --   1337.8432              1362.3592              1393.4588
 Red. masses --      5.0355                 2.3621                 2.4184
 Frc consts  --      5.3101                 2.5831                 2.7668
 IR Inten    --     64.6815                17.4204                60.6977

                     40                     41                     42
                      A                      A                      A
 Frequencies --   1434.3463              1441.3579              1445.5040
 Red. masses --      1.7670                 1.9609                 1.6357
 Frc consts  --      2.1418                 2.4002                 2.0137
 IR Inten    --     11.0701                82.3356                39.1209

                     43                     44                     45
                      A                      A                      A
 Frequencies --   1518.9461              1522.0296              1531.2467
 Red. masses --      1.0503                 1.0551                 2.9652
 Frc consts  --      1.4277                 1.4401                 4.0963
 IR Inten    --      9.8966                 0.4515                15.6688

                     46                     47                     48
                      A                      A                      A
 Frequencies --   1551.6824              1618.5468              1666.4241
 Red. masses --      4.4486                 6.6695                 7.1343
 Frc consts  --      6.3107                10.2943                11.6727
 IR Inten    --     76.2460                11.9829                24.5510

                     49                     50                     51
                      A                      A                      A
 Frequencies --   2689.7587              3071.0504              3102.5800
 Red. masses --      1.0383                 1.0373                 1.0863
 Frc consts  --      4.4261                 5.7638                 6.1608
 IR Inten    --     12.5573                12.3969                 3.6975

                     52                     53                     54
                      A                      A                      A
 Frequencies --   3144.6144              3162.6240              3177.0820
 Red. masses --      1.1002                 1.1033                 1.0891
 Frc consts  --      6.4099                 6.5017                 6.4771
 IR Inten    --     12.2030                17.1763                23.8376

                     55                     56                     57
                      A                      A                      A
 Frequencies --   3204.7044              3220.6377              3246.9667
 Red. masses --      1.0888                 1.0963                 1.0965
 Frc consts  --      6.5883                 6.6996                 6.8110
 IR Inten    --     16.5512                16.1382                 1.4824

 - Thermochemistry -
 -------------------
 Temperature   298.150 Kelvin.  Pressure   1.00000 Atm.
 Atom     1 has atomic number  6 and mass  12.00000

 Molecular mass:   179.05172 amu.
 Principal axes and moments of inertia in atomic units:
                           1         2         3
     Eigenvalues --  1207.664332961.482603514.97109
           X            0.99961  -0.01904  -0.02029
           Y            0.01880   0.99975  -0.01199
           Z            0.02052   0.01160   0.99972
 This molecule is an asymmetric top.
 Rotational symmetry number  1.
 Warning -- assumption of classical behavior for rotation
           may cause significant error
 Rotational temperatures (Kelvin)      0.07172     0.02925     0.02464
 Rotational constants (GHZ):           1.49441     0.60940     0.51344
 Zero-point vibrational energy     427492.3 (Joules/Mol)
                                  102.17311 (Kcal/Mol)
 Warning -- explicit consideration of  15 degrees of freedom as
           vibrations may cause significant error
 Vibrational temperatures:     76.06    98.59   213.34   265.50   310.35
          (Kelvin)            341.62   349.19   412.68   550.75   604.61
                              635.17   718.80   799.34   874.07   890.78
                              915.51   942.74  1070.95  1138.74  1151.54
                             1154.79  1240.05  1287.39  1303.16  1343.95
                             1395.54  1432.46  1538.55  1549.89  1615.19
                             1621.01  1691.68  1774.71  1781.34  1880.87
                             1901.16  1924.86  1960.13  2004.88  2063.70
                             2073.79  2079.76  2185.42  2189.86  2203.12
                             2232.52  2328.73  2397.61  3869.96  4418.56
                             4463.92  4524.40  4550.31  4571.11  4610.85
                             4633.78  4671.66

 Zero-point correction=                           0.162823 (Hartree/Particle)
 Thermal correction to Energy=                    0.173231
 Thermal correction to Enthalpy=                  0.174175
 Thermal correction to Gibbs Free Energy=         0.126135
 Sum of electronic and zero-point Energies=           -872.592546
 Sum of electronic and thermal Energies=              -872.582139
 Sum of electronic and thermal Enthalpies=            -872.581194
 Sum of electronic and thermal Free Energies=         -872.629234

                     E (Thermal)             CV                S
                      KCal/Mol        Cal/Mol-Kelvin    Cal/Mol-Kelvin
 Total                  108.704             39.820            101.109
 Electronic               0.000              0.000              0.000
 Translational            0.889              2.981             41.454
 Rotational               0.889              2.981             30.909
 Vibrational            106.927             33.859             28.746
 Vibration     1          0.596              1.976              4.707
 Vibration     2          0.598              1.969              4.195
 Vibration     3          0.618              1.905              2.694
 Vibration     4          0.631              1.861              2.282
 Vibration     5          0.645              1.817              1.995
 Vibration     6          0.656              1.783              1.822
 Vibration     7          0.659              1.775              1.783
 Vibration     8          0.684              1.698              1.493
 Vibration     9          0.752              1.507              1.028
 Vibration    10          0.783              1.426              0.891
 Vibration    11          0.801              1.380              0.822
 Vibration    12          0.855              1.251              0.659
 Vibration    13          0.911              1.128              0.533
 Vibration    14          0.966              1.016              0.437
 Vibration    15          0.979              0.992              0.418

 Optimization completed.
    -- Stationary point found.
 Normal termination of Gaussian 16 at Wed Dec  9 18:19:52 2020.

 ----------------------------------------------------------------------
 # B3LYP/6-311++G(d,p) empiricaldispersion=gd3bj scf=xqc pop=npa geom=c
 heck
 ----------------------------------------------------------------------

 ---------------------------------------
 CID_123336641_JID_2938_Energie_neutraal
 ---------------------------------------
 Structure from the checkpoint file:  "JID_2938.chk"
 Charge =  0 Multiplicity = 1

 SCF Done:  E(RB3LYP) =  -872.907808360     A.U. after   15 cycles
 Normal termination of Gaussian 16 at Wed Dec  9 18:22:07 2020.

 ----------------------------------------------------------------------
 # B3LYP/6-311++G(d,p) empiricaldispersion=gd3bj scf=xqc pop=npa geom=c
 heck
 ----------------------------------------------------------------------

 -------------------------------------
 CID_123336641_JID_2938_Energie_kation
 -------------------------------------
 Structure from the checkpoint file:  "JID_2938.chk"
 Charge =  1 Multiplicity = 2

 SCF Done:  E(UB3LYP) =  -872.588371507     A.U. after   33 cycles
 SCF Done:  E(UB3LYP) =  -872.588371507     a.u. after    1 cycles
 Normal termination of Gaussian 16 at Wed Dec  9 18:28:20 2020.
 Gaussian 16:  ES64L-G16RevA.03 25-Dec-2016

 ----------------------------------------------------------------------
 # B3LYP/6-311++G(d,p) empiricaldispersion=gd3bj scf=xqc pop=npa geom=c
 heck
 ----------------------------------------------------------------------

 ------------------------------------
 CID_123336641_JID_2938_Energie_anion
 ------------------------------------
 Structure from the checkpoint file:  "JID_2938.chk"
 Charge = -1 Multiplicity = 2

                         Standard orientation:
 ---------------------------------------------------------------------
 Center     Atomic      Atomic             Coordinates (Angstroms)
 Number     Number       Type             X           Y           Z
 ---------------------------------------------------------------------
      1          6           0       -2.188809   -0.506860    1.660629
      2          6           0       -1.964949    0.302690    0.383821
      3          7           0       -0.584128    0.712739    0.226196
      4          6           0       -0.152429    2.015661    0.037475
      5          7           0        1.134295    2.141614   -0.137362
      6          6           0        1.620339    0.841446   -0.085248
      7          6           0        0.554082   -0.075241    0.136794
      8          6           0        0.812247   -1.441918    0.202147
      9          6           0        2.146923   -1.810973    0.049778
     10          6           0        3.134307   -0.829411   -0.154817
     11          7           0        2.898311    0.482508   -0.225686
     12         16           0       -2.653933   -0.526901   -1.127085
     13          1           0       -1.668349   -1.467251    1.627413
     14          1           0       -3.255288   -0.701893    1.793647
     15          1           0       -1.813787    0.053790    2.523490
     16          1           0       -2.549236    1.225438    0.437727
     17          1           0       -0.865415    2.831421    0.049824
     18          1           0        0.039014   -2.186197    0.360676
     19          1           0        2.432539   -2.857211    0.088094
     20          1           0        4.172928   -1.133186   -0.269072
     21          1           0       -1.939088   -1.664884   -1.003939
 ---------------------------------------------------------------------

 SCF Done:  E(UB3LYP) =  -872.906639819     A.U. after   33 cycles
 SCF Done:  E(UB3LYP) =  -872.906639820     a.u. after    1 cycles

 The electronic state is 2-A.
 Alpha  occ. eigenvalues --  -88.73161 -14.25131 -14.17016 -14.16425 -10.14847
 Alpha  occ. eigenvalues --  -10.10533 -10.08830 -10.08679 -10.07359 -10.07185
 Alpha  occ. eigenvalues --  -10.05456 -10.04727  -7.81878  -5.78239  -5.77919
 Alpha  occ. eigenvalues --   -5.77257  -0.90327  -0.81122  -0.77217  -0.69321
 Alpha  occ. eigenvalues --   -0.66411  -0.62188  -0.60645  -0.54187  -0.51890
 Alpha  occ. eigenvalues --   -0.49077  -0.46436  -0.41145  -0.38800  -0.36923
 Alpha  occ. eigenvalues --   -0.35376  -0.33919  -0.33004  -0.30788  -0.30512
 Alpha  occ. eigenvalues --   -0.29319  -0.28337  -0.26985  -0.25392  -0.24863
 Alpha  occ. eigenvalues --   -0.22727  -0.19054  -0.16657  -0.13983  -0.12540
 Alpha  occ. eigenvalues --   -0.12373  -0.11562   0.04605
 Alpha virt. eigenvalues --    0.06770   0.07802   0.08923   0.09430   0.10248
 Alpha virt. eigenvalues --    0.10526   0.11477   0.11879   0.12735   0.13418
 Alpha virt. eigenvalues --    0.13957   0.14784   0.14991   0.15726   0.16450

  Beta  occ. eigenvalues --  -88.73130 -14.25136 -14.17012 -14.16122 -10.14819
  Beta  occ. eigenvalues --  -10.10316 -10.08786 -10.08704 -10.07340 -10.07199
  Beta  occ. eigenvalues --  -10.05235 -10.04653  -7.81845  -5.78158  -5.77902
  Beta  occ. eigenvalues --   -5.77234  -0.90203  -0.80812  -0.77042  -0.69173
  Beta  occ. eigenvalues --   -0.66125  -0.61969  -0.60526  -0.54052  -0.51484
  Beta  occ. eigenvalues --   -0.48939  -0.46287  -0.40942  -0.38671  -0.36782
  Beta  occ. eigenvalues --   -0.35170  -0.33837  -0.32890  -0.30497  -0.30355
  Beta  occ. eigenvalues --   -0.29221  -0.28157  -0.26864  -0.25246  -0.24412
  Beta  occ. eigenvalues --   -0.22185  -0.18440  -0.16552  -0.13779  -0.12261
  Beta  occ. eigenvalues --   -0.11641  -0.10871
  Beta virt. eigenvalues --    0.07278   0.08268   0.08800   0.09234   0.09880
  Beta virt. eigenvalues --    0.10458   0.10785   0.11695   0.12147   0.12854
  Beta virt. eigenvalues --    0.13723   0.14296   0.14787   0.15154   0.16265

 Mulliken charges and spin densities:
               1          2
     1  C    0.416496  -0.937768
     2  C   -0.786331   0.641402
     3  N    0.359822  -0.132777
     4  C    0.133930   0.100223
     5  N   -0.127544  -0.017767
     6  C   -1.175280   0.222581
     7  C    0.154945   0.123258
     8  C    0.511889  -0.235963
     9  C    0.207920  -0.429678
    10  C   -0.107884  -0.117653
    11  N   -0.123720   0.138889
    12  S    0.679074  -0.733367
    13  H   -0.133611   0.262685
    14  H   -0.331461   0.489553
    15  H    0.175871  -0.033885
    16  H   -0.506194   0.741617
    17  H   -0.033237   0.171170
    18  H   -0.042552   0.168412
    19  H    0.010322   0.126516
    20  H    0.149067  -0.006423
    21  H   -0.431523   0.458975
 Sum of Mulliken charges =  -1.00000   1.00000

 Dipole moment (field-independent basis, Debye):
    X=             -0.4603    Y=             -1.7764    Z=              1.6769  Tot=              2.4858
 Quadrupole moment (field-independent basis, Debye-Ang):
   XX=           -132.3569   YY=           -107.0220   ZZ=            -95.3457
   XY=             -9.2063   XZ=              0.0116   YZ=              2.9563

 Summary of Natural Population Analysis:

                                       Natural Population
                Natural  -----------------------------------------------
    Atom  No    Charge         Core      Valence    Rydberg      Total
 -----------------------------------------------------------------------
      C    1   -0.29120      0.99963     2.28491    0.00667     3.29120
      C    2   -0.05443      0.99957     2.03845    0.01641     3.05443
      N    3   -0.22903      0.99960     2.71739    0.01204     3.72903
      C    4    0.16776      0.99964     1.81443    0.01816     2.83224
      N    5   -0.25755      0.99970     2.74758    0.01027     3.75755
      C    6    0.16967      0.99948     1.81284    0.01802     2.83033
      C    7    0.04423      0.99945     1.94519    0.01113     2.95577
      C    8   -0.07258      0.99953     2.06354    0.00951     3.07258
      C    9   -0.12102      0.99958     2.11061    0.01082     3.12102
      C   10    0.00817      0.99961     1.97786    0.01435     2.99183
      N   11   -0.19272      0.99967     2.68083    0.01222     3.69272
      S   12   -0.01699      4.99965     3.00360    0.01374     8.01699
      H   13    0.10329      0.00000     0.39550    0.00121     0.39671
      H   14    0.10698      0.00000     0.39162    0.00140     0.39302
      H   15    0.10129      0.00000     0.39778    0.00093     0.39871
      H   16    0.10753      0.00000     0.39074    0.00173     0.39247
      H   17    0.08572      0.00000     0.41263    0.00165     0.41428
      H   18    0.09835      0.00000     0.40033    0.00133     0.40165
      H   19    0.09596      0.00000     0.40320    0.00085     0.40404
      H   20    0.08128      0.00000     0.41745    0.00127     0.41872
      H   21    0.06530      0.00000     0.43063    0.00407     0.43470
 =======================================================================
   * Total *   -0.00000     15.99512    30.83710    0.16778    47.00000

 Normal termination of Gaussian 16 at Wed Dec  9 18:33:44 2020.
