 Gaussian 16, Revision A.03,

 -----------------------------------------------------------
 # opt freq B3LYP/6-31G(d) empiricaldispersion=gd3bj scf=xqc
 -----------------------------------------------------------

 ------------------------------
 CID_83172575_JID_2142_neutraal
 ------------------------------
 Symbolic Z-matrix:
 Charge =  0 Multiplicity = 1

 SCF Done:  E(RB3LYP) =  -539.959095714     A.U. after   15 cycles
 SCF Done:  E(RB3LYP) =  -539.961572954     A.U. after   13 cycles
 SCF Done:  E(RB3LYP) =  -539.960438162     A.U. after   12 cycles
 SCF Done:  E(RB3LYP) =  -539.961279127     A.U. after   12 cycles
 SCF Done:  E(RB3LYP) =  -539.961970979     A.U. after    9 cycles
 SCF Done:  E(RB3LYP) =  -539.962293350     A.U. after   11 cycles
 SCF Done:  E(RB3LYP) =  -539.962223578     A.U. after   15 cycles
 SCF Done:  E(RB3LYP) =  -539.962791444     A.U. after   12 cycles
 SCF Done:  E(RB3LYP) =  -539.962876284     A.U. after   11 cycles
 SCF Done:  E(RB3LYP) =  -539.962903952     A.U. after   11 cycles
 SCF Done:  E(RB3LYP) =  -539.962922671     A.U. after    9 cycles
 SCF Done:  E(RB3LYP) =  -539.962923736     A.U. after    8 cycles
 SCF Done:  E(RB3LYP) =  -539.962924155     A.U. after    8 cycles
 SCF Done:  E(RB3LYP) =  -539.962924273     A.U. after    7 cycles
 SCF Done:  E(RB3LYP) =  -539.962924305     A.U. after    7 cycles
 Optimization completed.
    -- Stationary point found.
 Normal termination of Gaussian 16 at Wed Dec  9 16:54:02 2020.

 --------------------------------------------------------------------
 #N Geom=AllCheck Guess=TCheck SCRF=Check GenChk RB3LYP/6-31G(d) Freq
 --------------------------------------------------------------------

 Structure from the checkpoint file:  "JID_2142.chk"
 ------------------------------
 CID_83172575_JID_2142_neutraal
 ------------------------------
 Charge =  0 Multiplicity = 1

 SCF Done:  E(RB3LYP) =  -539.962924305     A.U. after    1 cycles

  Exact polarizability: 115.308  -5.650  98.142   8.014   7.135  90.643
 Approx polarizability: 154.605 -21.193 165.068  14.734  15.069 136.404

                      1                      2                      3
                      A                      A                      A
 Frequencies --     33.1160                50.8545                69.0550
 Red. masses --      3.1881                 4.9403                 3.9013
 Frc consts  --      0.0021                 0.0075                 0.0110
 IR Inten    --      0.0880                 2.9002                 0.8549

                      4                      5                      6
                      A                      A                      A
 Frequencies --     91.0477               213.4397               235.6058
 Red. masses --      6.2052                 1.3142                 3.4644
 Frc consts  --      0.0303                 0.0353                 0.1133
 IR Inten    --      1.3119                 0.4964                 0.1406

                      7                      8                      9
                      A                      A                      A
 Frequencies --    245.5197               271.7744               290.4499
 Red. masses --      1.8362                 1.3021                 2.0630
 Frc consts  --      0.0652                 0.0567                 0.1025
 IR Inten    --      1.0167                 0.9846                 1.8903

                     10                     11                     12
                      A                      A                      A
 Frequencies --    311.1234               317.1757               360.0987
 Red. masses --      1.2541                 2.5876                 2.4595
 Frc consts  --      0.0715                 0.1534                 0.1879
 IR Inten    --      1.6977                 1.8365                 3.1995

                     13                     14                     15
                      A                      A                      A
 Frequencies --    374.3034               384.4979               468.1399
 Red. masses --      2.2626                 2.4639                 2.4122
 Frc consts  --      0.1868                 0.2146                 0.3115
 IR Inten    --      0.3534                 0.0222                 1.8738

                     16                     17                     18
                      A                      A                      A
 Frequencies --    550.1511               613.3329               620.4277
 Red. masses --      4.2138                 4.3891                 4.0346
 Frc consts  --      0.7514                 0.9728                 0.9150
 IR Inten    --      8.4008                 2.4047                12.0091

                     19                     20                     21
                      A                      A                      A
 Frequencies --    641.2647               696.9342               728.0027
 Red. masses --      3.1532                 2.9973                 1.3880
 Frc consts  --      0.7640                 0.8578                 0.4334
 IR Inten    --      3.8698                15.8497                 3.5455

                     22                     23                     24
                      A                      A                      A
 Frequencies --    776.2385               818.7099               846.5080
 Red. masses --      1.4177                 3.4437                 2.3154
 Frc consts  --      0.5033                 1.3600                 0.9776
 IR Inten    --     51.9808                 0.7770                 8.9988

                     25                     26                     27
                      A                      A                      A
 Frequencies --    859.5912               895.8406               945.9488
 Red. masses --      1.4437                 5.8035                 2.1202
 Frc consts  --      0.6285                 2.7441                 1.1178
 IR Inten    --      1.0733                27.6828                 3.7258

                     28                     29                     30
                      A                      A                      A
 Frequencies --    951.5464               959.6171               979.5970
 Red. masses --      1.8225                 1.5804                 1.2050
 Frc consts  --      0.9722                 0.8575                 0.6813
 IR Inten    --      1.3900                 2.2578                 0.1130

                     31                     32                     33
                      A                      A                      A
 Frequencies --   1001.3272              1054.1505              1060.0734
 Red. masses --      3.3915                 1.4364                 1.5040
 Frc consts  --      2.0035                 0.9404                 0.9958
 IR Inten    --     16.3720                 2.4101                 4.5657

                     34                     35                     36
                      A                      A                      A
 Frequencies --   1063.3553              1099.2300              1108.7498
 Red. masses --      2.0117                 1.8149                 2.0575
 Frc consts  --      1.3402                 1.2920                 1.4902
 IR Inten    --     15.4737                34.3331                33.8250

                     37                     38                     39
                      A                      A                      A
 Frequencies --   1200.2485              1216.8112              1235.1904
 Red. masses --      3.0631                 1.6762                 2.4298
 Frc consts  --      2.5999                 1.4622                 2.1842
 IR Inten    --     17.1422                44.2152                 2.8226

                     40                     41                     42
                      A                      A                      A
 Frequencies --   1268.6611              1275.4448              1287.4557
 Red. masses --      2.5745                 1.4641                 1.9294
 Frc consts  --      2.4413                 1.4033                 1.8842
 IR Inten    --      4.9904                 6.6491                 3.0337

                     43                     44                     45
                      A                      A                      A
 Frequencies --   1312.2984              1327.0727              1418.8367
 Red. masses --      2.2387                 1.7740                 1.2093
 Frc consts  --      2.2715                 1.8407                 1.4343
 IR Inten    --     11.4253                11.6712                 2.5927

                     46                     47                     48
                      A                      A                      A
 Frequencies --   1424.6032              1427.2165              1455.0048
 Red. masses --      1.2485                 3.1101                 1.2249
 Frc consts  --      1.4929                 3.7325                 1.5278
 IR Inten    --      9.0902                 4.6511                 9.5124

                     49                     50                     51
                      A                      A                      A
 Frequencies --   1501.4773              1509.1610              1522.0039
 Red. masses --      1.0885                 1.0490                 1.0487
 Frc consts  --      1.4458                 1.4076                 1.4313
 IR Inten    --      8.3043                 0.6449                 2.1015

                     52                     53                     54
                      A                      A                      A
 Frequencies --   1524.4392              1532.1917              1538.2943
 Red. masses --      1.0504                 1.0635                 1.0486
 Frc consts  --      1.4382                 1.4711                 1.4620
 IR Inten    --      3.9306                 3.1946                 3.0918

                     55                     56                     57
                      A                      A                      A
 Frequencies --   1549.8531              1554.5099              1645.3119
 Red. masses --      3.7588                 1.0673                 5.7929
 Frc consts  --      5.3196                 1.5196                 9.2394
 IR Inten    --     15.5219                17.2681                 1.2046

                     58                     59                     60
                      A                      A                      A
 Frequencies --   1792.7389              3047.5601              3050.5546
 Red. masses --     11.3770                 1.0366                 1.0360
 Frc consts  --     21.5433                 5.6722                 5.6802
 IR Inten    --    130.2224                17.5970                27.0216

                     61                     62                     63
                      A                      A                      A
 Frequencies --   3055.8625              3073.7553              3108.3895
 Red. masses --      1.0376                 1.0589                 1.1024
 Frc consts  --      5.7087                 5.8946                 6.2758
 IR Inten    --     25.7792                13.4221                 5.3931

                     64                     65                     66
                      A                      A                      A
 Frequencies --   3114.3510              3122.9248              3124.4696
 Red. masses --      1.1019                 1.1004                 1.1043
 Frc consts  --      6.2971                 6.3232                 6.3517
 IR Inten    --     47.8090                22.7217                14.4908

                     67                     68                     69
                      A                      A                      A
 Frequencies --   3132.8130              3140.4843              3153.9053
 Red. masses --      1.1010                 1.1033                 1.0999
 Frc consts  --      6.3666                 6.4110                 6.4464
 IR Inten    --     19.5635                20.0605                14.6547

                     70                     71                     72
                      A                      A                      A
 Frequencies --   3271.2422              3292.3197              3304.5762
 Red. masses --      1.0921                 1.0975                 1.1052
 Frc consts  --      6.8856                 7.0093                 7.1110
 IR Inten    --      0.0920                 0.5144                 1.0346

 - Thermochemistry -
 -------------------
 Temperature   298.150 Kelvin.  Pressure   1.00000 Atm.
 Atom     1 has atomic number  6 and mass  12.00000

 Molecular mass:   166.09938 amu.
 Principal axes and moments of inertia in atomic units:
                           1         2         3
     Eigenvalues --  1037.496753017.232893216.68522
           X            0.99969   0.02468  -0.00235
           Y           -0.02452   0.99826   0.05356
           Z            0.00367  -0.05349   0.99856
 This molecule is an asymmetric top.
 Rotational symmetry number  1.
 Warning -- assumption of classical behavior for rotation
           may cause significant error
 Rotational temperatures (Kelvin)      0.08348     0.02871     0.02693
 Rotational constants (GHZ):           1.73952     0.59814     0.56106
 Zero-point vibrational energy     583172.5 (Joules/Mol)
                                  139.38158 (Kcal/Mol)
 Warning -- explicit consideration of  18 degrees of freedom as
           vibrations may cause significant error
 Vibrational temperatures:     47.65    73.17    99.35   131.00   307.09
          (Kelvin)            338.98   353.25   391.02   417.89   447.64
                              456.35   518.10   538.54   553.21   673.55
                              791.54   882.45   892.66   922.64  1002.73
                             1047.43  1116.83  1177.94  1217.94  1236.76
                             1288.91  1361.01  1369.06  1380.67  1409.42
                             1440.69  1516.69  1525.21  1529.93  1581.55
                             1595.24  1726.89  1750.72  1777.16  1825.32
                             1835.08  1852.36  1888.10  1909.36  2041.39
                             2049.69  2053.45  2093.43  2160.29  2171.35
                             2189.82  2193.33  2204.48  2213.26  2229.89
                             2236.59  2367.24  2579.35  4384.76  4389.07
                             4396.70  4422.45  4472.28  4480.86  4493.19
                             4495.41  4507.42  4518.46  4537.77  4706.59
                             4736.91  4754.55

 Zero-point correction=                           0.222119 (Hartree/Particle)
 Thermal correction to Energy=                    0.234400
 Thermal correction to Enthalpy=                  0.235344
 Thermal correction to Gibbs Free Energy=         0.183082
 Sum of electronic and zero-point Energies=           -539.740806
 Sum of electronic and thermal Energies=              -539.728524
 Sum of electronic and thermal Enthalpies=            -539.727580
 Sum of electronic and thermal Free Energies=         -539.779843

                     E (Thermal)             CV                S
                      KCal/Mol        Cal/Mol-Kelvin    Cal/Mol-Kelvin
 Total                  147.088             46.387            109.996
 Electronic               0.000              0.000              0.000
 Translational            0.889              2.981             41.231
 Rotational               0.889              2.981             30.688
 Vibrational            145.311             40.426             38.077
 Vibration     1          0.594              1.983              5.633
 Vibration     2          0.595              1.977              4.784
 Vibration     3          0.598              1.969              4.180
 Vibration     4          0.602              1.956              3.637
 Vibration     5          0.644              1.820              2.014
 Vibration     6          0.655              1.786              1.836
 Vibration     7          0.660              1.770              1.763
 Vibration     8          0.675              1.725              1.585
 Vibration     9          0.686              1.692              1.471
 Vibration    10          0.700              1.653              1.356
 Vibration    11          0.704              1.641              1.325
 Vibration    12          0.735              1.554              1.122
 Vibration    13          0.745              1.525              1.062
 Vibration    14          0.753              1.503              1.021
 Vibration    15          0.825              1.321              0.743
 Vibration    16          0.905              1.139              0.544
 Vibration    17          0.973              1.004              0.427
 Vibration    18          0.980              0.989              0.416

 Optimization completed.
    -- Stationary point found.
 Normal termination of Gaussian 16 at Wed Dec  9 17:00:11 2020.

 ----------------------------------------------------------------------
 # B3LYP/6-311++G(d,p) empiricaldispersion=gd3bj scf=xqc pop=npa geom=c
 heck
 ----------------------------------------------------------------------

 --------------------------------------
 CID_83172575_JID_2142_Energie_neutraal
 --------------------------------------
 Structure from the checkpoint file:  "JID_2142.chk"
 Charge =  0 Multiplicity = 1

 SCF Done:  E(RB3LYP) =  -540.115766250     A.U. after   15 cycles
 Normal termination of Gaussian 16 at Wed Dec  9 17:03:02 2020.

 ----------------------------------------------------------------------
 # B3LYP/6-311++G(d,p) empiricaldispersion=gd3bj scf=xqc pop=npa geom=c
 heck
 ----------------------------------------------------------------------

 ------------------------------------
 CID_83172575_JID_2142_Energie_kation
 ------------------------------------
 Structure from the checkpoint file:  "JID_2142.chk"
 Charge =  1 Multiplicity = 2

 SCF Done:  E(UB3LYP) =  -539.808798217     A.U. after   22 cycles
 Normal termination of Gaussian 16 at Wed Dec  9 17:09:57 2020.
 Gaussian 16:  ES64L-G16RevA.03 25-Dec-2016

 ----------------------------------------------------------------------
 # B3LYP/6-311++G(d,p) empiricaldispersion=gd3bj scf=xqc pop=npa geom=c
 heck
 ----------------------------------------------------------------------

 -----------------------------------
 CID_83172575_JID_2142_Energie_anion
 -----------------------------------
 Structure from the checkpoint file:  "JID_2142.chk"
 Charge = -1 Multiplicity = 2

                         Standard orientation:
 ---------------------------------------------------------------------
 Center     Atomic      Atomic             Coordinates (Angstroms)
 Number     Number       Type             X           Y           Z
 ---------------------------------------------------------------------
      1          6           0       -3.304685   -0.092281    0.208063
      2          6           0       -1.794936   -0.392070    0.189493
      3          6           0       -1.275079   -0.492427    1.642865
      4          6           0       -1.533483   -1.716724   -0.542676
      5          6           0       -1.074962    0.813505   -0.451277
      6          8           0       -1.401077    1.949776   -0.159000
      7          6           0        0.116150    0.595463   -1.391146
      8          6           0        1.346674    0.244554   -0.601086
      9          6           0        2.146300   -0.852188   -0.730754
     10          8           0        3.164202   -0.819009    0.178531
     11          6           0        3.003593    0.324469    0.907390
     12          6           0        1.912786    1.013129    0.478609
     13          1           0       -3.837095   -0.882741    0.748698
     14          1           0       -3.710687   -0.044570   -0.809179
     15          1           0       -3.499825    0.865291    0.695755
     16          1           0       -1.804480   -1.295290    2.169205
     17          1           0       -0.203242   -0.710911    1.670617
     18          1           0       -1.449866    0.447084    2.175720
     19          1           0       -1.874439   -1.679288   -1.583996
     20          1           0       -0.472685   -1.984017   -0.532655
     21          1           0       -2.083293   -2.524306   -0.046479
     22          1           0       -0.094022   -0.189237   -2.123455
     23          1           0        0.262965    1.539305   -1.925926
     24          1           0        2.134403   -1.702335   -1.395731
     25          1           0        3.739992    0.494474    1.677536
     26          1           0        1.533139    1.947815    0.866766
 ---------------------------------------------------------------------

 SCF Done:  E(UB3LYP) =  -540.100635478     A.U. after   33 cycles
 SCF Done:  E(UB3LYP) =  -540.100635478     a.u. after    1 cycles

 The electronic state is 2-A.
 Alpha  occ. eigenvalues --  -19.08235 -18.98565 -10.12779 -10.11664 -10.10835
 Alpha  occ. eigenvalues --  -10.08086 -10.07439 -10.06891 -10.06596 -10.05456
 Alpha  occ. eigenvalues --  -10.05310 -10.05294  -1.00556  -0.92246  -0.71880
 Alpha  occ. eigenvalues --   -0.70493  -0.65018  -0.61338  -0.58185  -0.58027
 Alpha  occ. eigenvalues --   -0.50298  -0.48346  -0.46424  -0.42310  -0.39365
 Alpha  occ. eigenvalues --   -0.36834  -0.35172  -0.34290  -0.33746  -0.33674
 Alpha  occ. eigenvalues --   -0.31496  -0.31122  -0.30204  -0.29736  -0.28306
 Alpha  occ. eigenvalues --   -0.27583  -0.26440  -0.26111  -0.24671  -0.24454
 Alpha  occ. eigenvalues --   -0.22650  -0.22005  -0.17266  -0.13647  -0.11919
 Alpha  occ. eigenvalues --    0.05005
 Alpha virt. eigenvalues --    0.07119   0.07177   0.07861   0.08946   0.09776
 Alpha virt. eigenvalues --    0.10027   0.10628   0.10882   0.11178   0.12042
 Alpha virt. eigenvalues --    0.12581   0.13464   0.14323   0.14624   0.14958

  Beta  occ. eigenvalues --  -19.08207 -18.98396 -10.12577 -10.11641 -10.10775
  Beta  occ. eigenvalues --  -10.08100 -10.07424 -10.06897 -10.06595 -10.05442
  Beta  occ. eigenvalues --  -10.05286 -10.05251  -1.00502  -0.91909  -0.71796
  Beta  occ. eigenvalues --   -0.70451  -0.64952  -0.61209  -0.58123  -0.57974
  Beta  occ. eigenvalues --   -0.50077  -0.48297  -0.46321  -0.42209  -0.39198
  Beta  occ. eigenvalues --   -0.36719  -0.35035  -0.34176  -0.33647  -0.33564
  Beta  occ. eigenvalues --   -0.31430  -0.30970  -0.30065  -0.29612  -0.28266
  Beta  occ. eigenvalues --   -0.27517  -0.26388  -0.26062  -0.24352  -0.24265
  Beta  occ. eigenvalues --   -0.22609  -0.21635  -0.17175  -0.13512  -0.11764
  Beta virt. eigenvalues --    0.07280   0.07898   0.08642   0.09039   0.09271
  Beta virt. eigenvalues --    0.10022   0.10666   0.10857   0.11140   0.11527
  Beta virt. eigenvalues --    0.12437   0.12727   0.13650   0.14529   0.14869

 Mulliken charges and spin densities:
               1          2
     1  C   -0.320711  -0.178591
     2  C   -0.320593   1.283301
     3  C    0.157417  -0.924876
     4  C    0.234167  -0.961002
     5  C   -0.224708   0.054896
     6  O   -0.281981   0.062748
     7  C    1.943115  -2.550947
     8  C    1.000588  -0.890105
     9  C   -0.948532   0.651647
    10  O   -0.014833   0.015651
    11  C    0.631923  -1.120080
    12  C   -1.036672   1.454446
    13  H    0.057825   0.070977
    14  H    0.105468   0.027134
    15  H    0.095455   0.076003
    16  H   -0.160763   0.305870
    17  H    0.148462   0.027467
    18  H    0.064887   0.092780
    19  H   -0.321149   0.466470
    20  H    0.123156   0.047048
    21  H   -0.074745   0.208963
    22  H   -0.124677   0.299869
    23  H    0.032107   0.176091
    24  H   -1.190287   1.376873
    25  H   -0.602316   0.762605
    26  H    0.027396   0.164766
 Sum of Mulliken charges =  -1.00000   1.00000

 Dipole moment (field-independent basis, Debye):
    X=             -2.3009    Y=              1.7746    Z=              1.9651  Tot=              3.5078
 Quadrupole moment (field-independent basis, Debye-Ang):
   XX=           -124.3186   YY=           -111.4993   ZZ=           -111.6910
   XY=              2.9809   XZ=              1.9601   YZ=             -5.3239

 Summary of Natural Population Analysis:

                                       Natural Population
                Natural  -----------------------------------------------
    Atom  No    Charge         Core      Valence    Rydberg      Total
 -----------------------------------------------------------------------
      C    1   -0.27938      0.99963     2.27362    0.00612     3.27938
      C    2   -0.08745      0.99954     2.07641    0.01150     3.08745
      C    3   -0.27843      0.99962     2.27182    0.00698     3.27843
      C    4   -0.28727      0.99963     2.28008    0.00756     3.28727
      C    5    0.33348      0.99961     1.64327    0.02364     2.66652
      O    6   -0.28649      0.99987     3.28011    0.00650     4.28649
      C    7   -0.24453      0.99955     2.23367    0.01130     3.24453
      C    8   -0.06134      0.99951     2.04994    0.01189     3.06134
      C    9    0.06904      0.99941     1.91667    0.01488     2.93096
      O   10   -0.23250      0.99987     3.22398    0.00864     4.23250
      C   11    0.06173      0.99951     1.92427    0.01449     2.93827
      C   12   -0.14929      0.99951     2.14053    0.00925     3.14929
      H   13    0.09484      0.00000     0.40431    0.00085     0.40516
      H   14    0.09710      0.00000     0.40207    0.00083     0.40290
      H   15    0.10801      0.00000     0.39104    0.00096     0.39199
      H   16    0.09728      0.00000     0.40167    0.00105     0.40272
      H   17    0.10497      0.00000     0.39375    0.00128     0.39503
      H   18    0.10257      0.00000     0.39648    0.00095     0.39743
      H   19    0.09968      0.00000     0.39905    0.00127     0.40032
      H   20    0.10429      0.00000     0.39388    0.00183     0.39571
      H   21    0.09889      0.00000     0.40008    0.00104     0.40111
      H   22    0.11449      0.00000     0.38303    0.00248     0.38551
      H   23    0.11298      0.00000     0.38559    0.00143     0.38702
      H   24    0.09974      0.00000     0.39703    0.00323     0.40026
      H   25    0.09442      0.00000     0.40410    0.00148     0.40558
      H   26    0.11319      0.00000     0.38600    0.00081     0.38681
 =======================================================================
   * Total *   -0.00000     11.99529    32.85245    0.15226    45.00000

 Normal termination of Gaussian 16 at Wed Dec  9 17:18:55 2020.
