 Gaussian 16, Revision A.03,

 -----------------------------------------------------------
 # opt freq B3LYP/6-31G(d) empiricaldispersion=gd3bj scf=xqc
 -----------------------------------------------------------

 -------------------------------
 CID_129645870_JID_9923_neutraal
 -------------------------------
 Symbolic Z-matrix:
 Charge =  0 Multiplicity = 1

 SCF Done:  E(RB3LYP) =  -733.750467673     A.U. after   14 cycles
 SCF Done:  E(RB3LYP) =  -733.759388975     A.U. after   12 cycles
 SCF Done:  E(RB3LYP) =  -733.759997403     A.U. after   12 cycles
 SCF Done:  E(RB3LYP) =  -733.760298062     A.U. after   12 cycles
 SCF Done:  E(RB3LYP) =  -733.760543759     A.U. after   14 cycles
 SCF Done:  E(RB3LYP) =  -733.760776292     A.U. after   12 cycles
 SCF Done:  E(RB3LYP) =  -733.760830940     A.U. after   11 cycles
 SCF Done:  E(RB3LYP) =  -733.760848180     A.U. after   11 cycles
 SCF Done:  E(RB3LYP) =  -733.760870818     A.U. after   11 cycles
 SCF Done:  E(RB3LYP) =  -733.760874633     A.U. after   10 cycles
 SCF Done:  E(RB3LYP) =  -733.760875026     A.U. after    8 cycles
 SCF Done:  E(RB3LYP) =  -733.760875020     A.U. after    8 cycles
 Optimization completed.
    -- Stationary point found.
 Normal termination of Gaussian 16 at Sun Dec 13 16:15:49 2020.

 --------------------------------------------------------------------
 #N Geom=AllCheck Guess=TCheck SCRF=Check GenChk RB3LYP/6-31G(d) Freq
 --------------------------------------------------------------------

 Structure from the checkpoint file:  "JID_9923.chk"
 -------------------------------
 CID_129645870_JID_9923_neutraal
 -------------------------------
 Charge =  0 Multiplicity = 1

 SCF Done:  E(RB3LYP) =  -733.760875020     A.U. after    1 cycles

  Exact polarizability: 270.269  24.463 178.107  23.723   4.924 134.117
 Approx polarizability: 394.794  47.533 306.540  55.389  12.862 231.127

                      1                      2                      3
                      A                      A                      A
 Frequencies --     21.0090                23.5074                42.1761
 Red. masses --      4.3359                 3.8768                 4.7278
 Frc consts  --      0.0011                 0.0013                 0.0050
 IR Inten    --      0.0304                 0.1141                 0.1292

                      4                      5                      6
                      A                      A                      A
 Frequencies --     83.8210               131.3944               184.3533
 Red. masses --      1.9187                 4.3154                 4.3982
 Frc consts  --      0.0079                 0.0439                 0.0881
 IR Inten    --      0.0115                 1.2320                 0.4083

                      7                      8                      9
                      A                      A                      A
 Frequencies --    204.2992               226.8013               239.7431
 Red. masses --      3.4956                 3.2441                 4.4941
 Frc consts  --      0.0860                 0.0983                 0.1522
 IR Inten    --      0.7615                 3.0254                 0.4315

                     10                     11                     12
                      A                      A                      A
 Frequencies --    292.7654               328.5055               417.0536
 Red. masses --      4.2676                 2.2207                 2.9971
 Frc consts  --      0.2155                 0.1412                 0.3071
 IR Inten    --      0.1782                 0.9170                 0.2354

                     13                     14                     15
                      A                      A                      A
 Frequencies --    442.9954               449.4842               455.9695
 Red. masses --      4.0724                 3.6712                 3.5413
 Frc consts  --      0.4709                 0.4370                 0.4338
 IR Inten    --      1.0569                 0.0255                 0.0718

                     16                     17                     18
                      A                      A                      A
 Frequencies --    470.6822               510.7911               520.5191
 Red. masses --      3.9910                 4.1750                 4.9867
 Frc consts  --      0.5209                 0.6418                 0.7960
 IR Inten    --      0.7249                 4.6046                 0.3092

                     19                     20                     21
                      A                      A                      A
 Frequencies --    565.1363               568.6384               596.0119
 Red. masses --      5.5810                 2.8445                 4.7429
 Frc consts  --      1.0502                 0.5419                 0.9927
 IR Inten    --      5.1522                 0.2424                 1.2336

                     22                     23                     24
                      A                      A                      A
 Frequencies --    620.7170               639.1181               677.2322
 Red. masses --      4.3110                 6.1946                 4.0182
 Frc consts  --      0.9786                 1.4908                 1.0858
 IR Inten    --      0.4477                 0.3820                 1.8607

                     25                     26                     27
                      A                      A                      A
 Frequencies --    682.7314               715.8608               750.5754
 Red. masses --      5.0055                 1.9577                 2.0843
 Frc consts  --      1.3747                 0.5911                 0.6918
 IR Inten    --      1.4061                22.1339                26.3071

                     28                     29                     30
                      A                      A                      A
 Frequencies --    768.3067               782.5578               790.0100
 Red. masses --      2.0688                 1.4944                 2.2651
 Frc consts  --      0.7195                 0.5392                 0.8329
 IR Inten    --      5.1677                 7.8175                16.0820

                     31                     32                     33
                      A                      A                      A
 Frequencies --    824.6293               839.9957               851.0871
 Red. masses --      3.0593                 3.8154                 2.2508
 Frc consts  --      1.2257                 1.5861                 0.9606
 IR Inten    --      8.4662                 1.7240                 0.8110

                     34                     35                     36
                      A                      A                      A
 Frequencies --    861.3919               882.4979               891.6601
 Red. masses --      1.2488                 1.3234                 1.5485
 Frc consts  --      0.5459                 0.6073                 0.7254
 IR Inten    --      0.0348                 1.3571                28.2889

                     37                     38                     39
                      A                      A                      A
 Frequencies --    906.8524               919.6431               944.6535
 Red. masses --      1.4246                 1.5294                 3.3400
 Frc consts  --      0.6903                 0.7621                 1.7561
 IR Inten    --      0.0528                 1.8663                 1.2008

                     40                     41                     42
                      A                      A                      A
 Frequencies --    961.8840               966.9966               969.6897
 Red. masses --      1.9260                 1.3477                 1.2947
 Frc consts  --      1.0499                 0.7425                 0.7173
 IR Inten    --      1.9400                 0.1339                 1.1244

                     43                     44                     45
                      A                      A                      A
 Frequencies --    977.4350               994.2752              1022.5864
 Red. masses --      3.5993                 1.2539                 6.2303
 Frc consts  --      2.0260                 0.7303                 3.8385
 IR Inten    --      1.7650                 0.3917                 1.0398

                     46                     47                     48
                      A                      A                      A
 Frequencies --   1037.0045              1044.1580              1061.1570
 Red. masses --      1.9419                 4.7894                 2.4130
 Frc consts  --      1.2304                 3.0766                 1.6009
 IR Inten    --      0.0077                 0.2496                 5.6311

                     49                     50                     51
                      A                      A                      A
 Frequencies --   1062.2204              1098.2414              1114.0391
 Red. masses --      2.4417                 2.7776                 1.5750
 Frc consts  --      1.6232                 1.9738                 1.1517
 IR Inten    --      0.6134                 0.2006                 4.6913

                     52                     53                     54
                      A                      A                      A
 Frequencies --   1179.6289              1183.2665              1193.0640
 Red. masses --      1.1740                 1.7751                 1.0996
 Frc consts  --      0.9625                 1.4643                 0.9221
 IR Inten    --      0.2349                 0.2832                 0.0782

                     55                     56                     57
                      A                      A                      A
 Frequencies --   1197.1302              1210.8551              1216.0539
 Red. masses --      1.2703                 1.1566                 1.1419
 Frc consts  --      1.0726                 0.9991                 0.9949
 IR Inten    --      0.3789                 2.8021                 2.6635

                     58                     59                     60
                      A                      A                      A
 Frequencies --   1228.7767              1247.6903              1251.3304
 Red. masses --      2.6822                 1.4968                 1.1006
 Frc consts  --      2.3861                 1.3728                 1.0154
 IR Inten    --      2.1840                 1.2320                 0.0098

                     61                     62                     63
                      A                      A                      A
 Frequencies --   1259.2715              1278.6141              1301.5559
 Red. masses --      1.3674                 2.1102                 2.3764
 Frc consts  --      1.2776                 2.0326                 2.3719
 IR Inten    --      0.6412                 0.3754                 2.8911

                     64                     65                     66
                      A                      A                      A
 Frequencies --   1322.2655              1329.4963              1367.2219
 Red. masses --      1.7378                 1.8855                 3.0252
 Frc consts  --      1.7902                 1.9635                 3.3318
 IR Inten    --      2.2220                 4.1295                 2.7760

                     67                     68                     69
                      A                      A                      A
 Frequencies --   1378.7693              1401.1394              1421.6031
 Red. masses --      1.4378                 3.2347                 3.2593
 Frc consts  --      1.6104                 3.7415                 3.8809
 IR Inten    --      4.3250                11.4264                 5.8912

                     70                     71                     72
                      A                      A                      A
 Frequencies --   1446.0449              1494.7150              1497.7658
 Red. masses --      2.9661                 3.3093                 1.2246
 Frc consts  --      3.6542                 4.3562                 1.6186
 IR Inten    --      1.8240                 4.9107                 0.2917

                     73                     74                     75
                      A                      A                      A
 Frequencies --   1500.9656              1510.4711              1516.1941
 Red. masses --      1.7547                 1.3743                 2.2707
 Frc consts  --      2.3291                 1.8473                 3.0755
 IR Inten    --      3.5890                 7.3059                 0.9718

                     76                     77                     78
                      A                      A                      A
 Frequencies --   1524.3789              1547.5924              1548.9617
 Red. masses --      1.1344                 2.7938                 2.7411
 Frc consts  --      1.5531                 3.9424                 3.8749
 IR Inten    --      0.8674                14.2981                 2.1254

                     79                     80                     81
                      A                      A                      A
 Frequencies --   1647.0663              1654.0986              1662.2537
 Red. masses --      5.6405                 6.9784                 6.4386
 Frc consts  --      9.0155                11.2494                10.4818
 IR Inten    --      1.4906                 4.2018                20.6358

                     82                     83                     84
                      A                      A                      A
 Frequencies --   1667.6620              1681.7233              3037.2127
 Red. masses --      5.6385                 6.9898                 1.0595
 Frc consts  --      9.2391                11.6473                 5.7583
 IR Inten    --     13.4655                29.7219                31.3394

                     85                     86                     87
                      A                      A                      A
 Frequencies --   3052.7314              3062.7191              3072.6029
 Red. masses --      1.0598                 1.0604                 1.1032
 Frc consts  --      5.8192                 5.8607                 6.1365
 IR Inten    --     19.4606                47.2163                14.0512

                     88                     89                     90
                      A                      A                      A
 Frequencies --   3078.6216              3097.9010              3174.1337
 Red. masses --      1.1056                 1.1042                 1.0861
 Frc consts  --      6.1741                 6.2436                 6.4473
 IR Inten    --      0.1863                33.8229                 8.3978

                     91                     92                     93
                      A                      A                      A
 Frequencies --   3175.5202              3177.6700              3181.2448
 Red. masses --      1.0892                 1.0863                 1.0863
 Frc consts  --      6.4715                 6.4625                 6.4775
 IR Inten    --     13.9460                 1.4359                 0.5080

                     94                     95                     96
                      A                      A                      A
 Frequencies --   3184.4455              3188.3408              3190.5375
 Red. masses --      1.0904                 1.0907                 1.0903
 Frc consts  --      6.5151                 6.5328                 6.5390
 IR Inten    --     12.1208                25.7422                13.4751

                     97                     98                     99
                      A                      A                      A
 Frequencies --   3198.3982              3201.7648              3209.1646
 Red. masses --      1.0941                 1.0957                 1.0980
 Frc consts  --      6.5942                 6.6181                 6.6625
 IR Inten    --     41.5772                42.5832                25.5061

 - Thermochemistry -
 -------------------
 Temperature   298.150 Kelvin.  Pressure   1.00000 Atm.
 Atom     1 has atomic number  6 and mass  12.00000

 Molecular mass:   244.12520 amu.
 Principal axes and moments of inertia in atomic units:
                           1         2         3
     Eigenvalues --  2040.810798973.295339774.37012
           X            0.99999  -0.00219   0.00281
           Y            0.00218   1.00000   0.00148
           Z           -0.00282  -0.00147   0.99999
 This molecule is an asymmetric top.
 Rotational symmetry number  1.
 Warning -- assumption of classical behavior for rotation
           may cause significant error
 Rotational temperatures (Kelvin)      0.04244     0.00965     0.00886
 Rotational constants (GHZ):           0.88433     0.20112     0.18464
 Zero-point vibrational energy     769112.1 (Joules/Mol)
                                  183.82220 (Kcal/Mol)
 Warning -- explicit consideration of  22 degrees of freedom as
           vibrations may cause significant error
 Vibrational temperatures:     30.23    33.82    60.68   120.60   189.05
          (Kelvin)            265.24   293.94   326.32   344.94   421.22
                              472.65   600.05   637.37   646.71   656.04
                              677.21   734.91   748.91   813.11   818.14
                              857.53   893.07   919.55   974.39   982.30
                             1029.96  1079.91  1105.42  1125.93  1136.65
                             1186.46  1208.57  1224.52  1239.35  1269.72
                             1282.90  1304.76  1323.16  1359.15  1383.94
                             1391.29  1395.17  1406.31  1430.54  1471.27
                             1492.02  1502.31  1526.77  1528.30  1580.12
                             1602.85  1697.22  1702.46  1716.55  1722.40
                             1742.15  1749.63  1767.94  1795.15  1800.39
                             1811.81  1839.64  1872.65  1902.45  1912.85
                             1967.13  1983.74  2015.93  2045.37  2080.54
                             2150.56  2154.95  2159.55  2173.23  2181.47
                             2193.24  2226.64  2228.61  2369.76  2379.88
                             2391.61  2399.39  2419.62  4369.87  4392.20
                             4406.57  4420.79  4429.45  4457.19  4566.87
                             4568.87  4571.96  4577.10  4581.71  4587.31
                             4590.47  4601.78  4606.63  4617.27

 Zero-point correction=                           0.292939 (Hartree/Particle)
 Thermal correction to Energy=                    0.307315
 Thermal correction to Enthalpy=                  0.308259
 Thermal correction to Gibbs Free Energy=         0.249345
 Sum of electronic and zero-point Energies=           -733.467936
 Sum of electronic and thermal Energies=              -733.453560
 Sum of electronic and thermal Enthalpies=            -733.452616
 Sum of electronic and thermal Free Energies=         -733.511530

                     E (Thermal)             CV                S
                      KCal/Mol        Cal/Mol-Kelvin    Cal/Mol-Kelvin
 Total                  192.843             58.976            123.996
 Electronic               0.000              0.000              0.000
 Translational            0.889              2.981             42.378
 Rotational               0.889              2.981             33.548
 Vibrational            191.066             53.015             48.070
 Vibration     1          0.593              1.986              6.536
 Vibration     2          0.593              1.985              6.313
 Vibration     3          0.595              1.980              5.154
 Vibration     4          0.601              1.960              3.799
 Vibration     5          0.612              1.922              2.926
 Vibration     6          0.631              1.861              2.284
 Vibration     7          0.640              1.834              2.094
 Vibration     8          0.650              1.800              1.904
 Vibration     9          0.657              1.780              1.805
 Vibration    10          0.688              1.687              1.458
 Vibration    11          0.712              1.619              1.267
 Vibration    12          0.780              1.433              0.902
 Vibration    13          0.803              1.376              0.817
 Vibration    14          0.808              1.362              0.797
 Vibration    15          0.814              1.348              0.778
 Vibration    16          0.828              1.315              0.736
 Vibration    17          0.866              1.226              0.632
 Vibration    18          0.875              1.205              0.609
 Vibration    19          0.921              1.107              0.514
 Vibration    20          0.925              1.099              0.507
 Vibration    21          0.954              1.040              0.457
 Vibration    22          0.981              0.988              0.415

                           ! Non-Optimized Parameters !
 Normal termination of Gaussian 16 at Sun Dec 13 16:31:58 2020.

 ----------------------------------------------------------------------
 # B3LYP/6-311++G(d,p) empiricaldispersion=gd3bj scf=xqc pop=npa geom=c
 heck
 ----------------------------------------------------------------------

 ---------------------------------------
 CID_129645870_JID_9923_Energie_neutraal
 ---------------------------------------
 Structure from the checkpoint file:  "JID_9923.chk"
 Charge =  0 Multiplicity = 1

 SCF Done:  E(RB3LYP) =  -733.937966515     A.U. after   15 cycles
 Normal termination of Gaussian 16 at Sun Dec 13 16:37:59 2020.

 ----------------------------------------------------------------------
 # B3LYP/6-311++G(d,p) empiricaldispersion=gd3bj scf=xqc pop=npa geom=c
 heck
 ----------------------------------------------------------------------

 -------------------------------------
 CID_129645870_JID_9923_Energie_kation
 -------------------------------------
 Structure from the checkpoint file:  "JID_9923.chk"
 Charge =  1 Multiplicity = 2

 SCF Done:  E(UB3LYP) =  -733.667426896     A.U. after   25 cycles
 Normal termination of Gaussian 16 at Sun Dec 13 16:51:37 2020.
 Gaussian 16:  ES64L-G16RevA.03 25-Dec-2016

 ----------------------------------------------------------------------
 # B3LYP/6-311++G(d,p) empiricaldispersion=gd3bj scf=xqc pop=npa geom=c
 heck
 ----------------------------------------------------------------------

 ------------------------------------
 CID_129645870_JID_9923_Energie_anion
 ------------------------------------
 Structure from the checkpoint file:  "JID_9923.chk"
 Charge = -1 Multiplicity = 2

                         Standard orientation:
 ---------------------------------------------------------------------
 Center     Atomic      Atomic             Coordinates (Angstroms)
 Number     Number       Type             X           Y           Z
 ---------------------------------------------------------------------
      1          6           0       -3.286237    2.232502   -0.254509
      2          6           0       -1.824988    2.532445    0.232792
      3          6           0       -1.188654    1.166500    0.423247
      4          6           0       -2.138339    0.175030    0.092933
      5          6           0       -3.375723    0.717144   -0.309478
      6          6           0       -4.391521   -0.143428   -0.662973
      7          6           0       -4.150774   -1.543870   -0.607921
      8          6           0       -2.934547   -2.072779   -0.213058
      9          6           0       -1.869373   -1.209201    0.156989
     10          6           0       -0.563273   -1.577459    0.582026
     11          6           0        0.376192   -0.615343    0.911167
     12          6           0        0.064159    0.777128    0.827991
     13          6           0        1.769752   -1.015888    1.352277
     14          6           0        2.860008   -0.484045    0.439563
     15          6           0        2.795950   -0.705235   -0.942503
     16          6           0        3.796995   -0.229931   -1.786328
     17          6           0        4.879096    0.481602   -1.261867
     18          6           0        4.949490    0.712622    0.111083
     19          6           0        3.944418    0.232574    0.953541
     20          1           0       -3.480096    2.680992   -1.235878
     21          1           0       -4.030579    2.653015    0.431808
     22          1           0       -1.824871    3.107838    1.165808
     23          1           0       -1.273255    3.130605   -0.501598
     24          1           0       -5.364433    0.222441   -0.980598
     25          1           0       -4.954529   -2.220035   -0.887408
     26          1           0       -2.790242   -3.149798   -0.184685
     27          1           0       -0.299975   -2.630604    0.650717
     28          1           0        0.835247    1.502068    1.077068
     29          1           0        1.953276   -0.652581    2.371748
     30          1           0        1.829458   -2.110580    1.400248
     31          1           0        1.946609   -1.244237   -1.354013
     32          1           0        3.732054   -0.410984   -2.855881
     33          1           0        5.658351    0.855154   -1.920298
     34          1           0        5.784233    1.268824    0.529098
     35          1           0        4.002969    0.415655    2.024027
 ---------------------------------------------------------------------

 SCF Done:  E(UB3LYP) =  -733.930074109     A.U. after   33 cycles
 SCF Done:  E(UB3LYP) =  -733.930074109     a.u. after    1 cycles

 The electronic state is 2-A.
 Alpha  occ. eigenvalues --  -10.07321 -10.06935 -10.06825 -10.06785 -10.06690
 Alpha  occ. eigenvalues --  -10.06639 -10.06439 -10.06433 -10.06367 -10.05344
 Alpha  occ. eigenvalues --  -10.05225 -10.04911 -10.04530 -10.04361 -10.04226
 Alpha  occ. eigenvalues --  -10.04071 -10.03996 -10.03843 -10.03399  -0.76237
 Alpha  occ. eigenvalues --   -0.75245  -0.70532  -0.69367  -0.66517  -0.64035
 Alpha  occ. eigenvalues --   -0.61944  -0.60865  -0.59987  -0.56354  -0.52714
 Alpha  occ. eigenvalues --   -0.50165  -0.49140  -0.48040  -0.45726  -0.44983
 Alpha  occ. eigenvalues --   -0.40775  -0.38542  -0.38124  -0.36057  -0.35431
 Alpha  occ. eigenvalues --   -0.35327  -0.34452  -0.32142  -0.31655  -0.31056
 Alpha  occ. eigenvalues --   -0.30680  -0.30242  -0.28479  -0.27272  -0.26849
 Alpha  occ. eigenvalues --   -0.26608  -0.26039  -0.25520  -0.24064  -0.23889
 Alpha  occ. eigenvalues --   -0.23657  -0.22881  -0.20725  -0.20438  -0.19263
 Alpha  occ. eigenvalues --   -0.15735  -0.15105  -0.14319  -0.11634  -0.09015
 Alpha  occ. eigenvalues --    0.04789
 Alpha virt. eigenvalues --    0.06358   0.07695   0.07818   0.08329   0.08627
 Alpha virt. eigenvalues --    0.08846   0.09163   0.09443   0.09724   0.10179
 Alpha virt. eigenvalues --    0.10398   0.11174   0.11464   0.12104   0.12613

  Beta  occ. eigenvalues --  -10.07296 -10.06931 -10.06803 -10.06783 -10.06655
  Beta  occ. eigenvalues --  -10.06652 -10.06449 -10.06441 -10.06313 -10.05385
  Beta  occ. eigenvalues --  -10.05131 -10.04861 -10.04511 -10.04128 -10.04095
  Beta  occ. eigenvalues --  -10.04057 -10.03957 -10.03657 -10.03222  -0.76018
  Beta  occ. eigenvalues --   -0.75159  -0.70303  -0.69147  -0.66388  -0.63956
  Beta  occ. eigenvalues --   -0.61798  -0.60605  -0.59797  -0.56235  -0.52504
  Beta  occ. eigenvalues --   -0.50104  -0.49055  -0.47908  -0.45530  -0.44759
  Beta  occ. eigenvalues --   -0.40706  -0.38354  -0.38006  -0.35954  -0.35288
  Beta  occ. eigenvalues --   -0.35179  -0.34358  -0.32093  -0.31617  -0.30946
  Beta  occ. eigenvalues --   -0.30572  -0.30144  -0.28377  -0.27164  -0.26724
  Beta  occ. eigenvalues --   -0.26336  -0.25800  -0.25207  -0.24023  -0.23804
  Beta  occ. eigenvalues --   -0.23592  -0.22769  -0.20654  -0.20316  -0.18609
  Beta  occ. eigenvalues --   -0.14906  -0.14770  -0.14085  -0.11246  -0.07821
  Beta virt. eigenvalues --    0.06931   0.07655   0.08125   0.08318   0.08575
  Beta virt. eigenvalues --    0.08672   0.09074   0.09499   0.09696   0.09897
  Beta virt. eigenvalues --    0.10295   0.10526   0.11206   0.11465   0.12007

 Mulliken charges and spin densities:
               1          2
     1  C   -0.722944  -0.033080
     2  C   -0.655198   0.007739
     3  C    0.323430   0.098052
     4  C   -0.077663  -0.046421
     5  C    0.261034   0.099591
     6  C   -0.331622   0.084906
     7  C   -0.253913   0.041264
     8  C   -0.563765   0.065783
     9  C    0.309015  -0.040352
    10  C   -0.453549   0.113484
    11  C    1.490244   0.094467
    12  C   -0.642857   0.008205
    13  C   -0.238458  -0.747303
    14  C    0.951572   0.396976
    15  C   -0.824631   0.444327
    16  C   -0.471281   0.132928
    17  C    0.626446  -0.952772
    18  C    0.359218  -0.663467
    19  C   -0.661231   0.283716
    20  H    0.132571   0.005736
    21  H    0.124489   0.014336
    22  H    0.135112   0.006512
    23  H    0.125634   0.023335
    24  H    0.102970   0.001284
    25  H    0.118196  -0.004373
    26  H    0.079048  -0.004834
    27  H    0.111006  -0.002364
    28  H    0.173606  -0.034948
    29  H    0.107993   0.060513
    30  H    0.053800   0.103593
    31  H    0.180953  -0.015726
    32  H    0.028747   0.126369
    33  H   -0.211882   0.342057
    34  H   -0.544556   0.712951
    35  H   -0.141533   0.277516
 Sum of Mulliken charges =  -1.00000   1.00000

 Dipole moment (field-independent basis, Debye):
    X=             -4.0056    Y=              0.2633    Z=             -0.3205  Tot=              4.0270
 Quadrupole moment (field-independent basis, Debye-Ang):
   XX=           -205.5028   YY=           -130.1353   ZZ=           -131.4464
   XY=            -11.5464   XZ=             -0.1388   YZ=              1.9002

 Summary of Natural Population Analysis:

                                       Natural Population
                Natural  -----------------------------------------------
    Atom  No    Charge         Core      Valence    Rydberg      Total
 -----------------------------------------------------------------------
      C    1   -0.19415      0.99963     2.18861    0.00591     3.19415
      C    2   -0.19398      0.99963     2.18836    0.00599     3.19398
      C    3    0.02522      0.99953     1.96337    0.01188     2.97478
      C    4    0.02182      0.99942     1.96818    0.01057     2.97818
      C    5    0.02032      0.99953     1.96810    0.01205     2.97968
      C    6   -0.11876      0.99952     2.11015    0.00910     3.11876
      C    7   -0.09290      0.99959     2.08342    0.00989     3.09290
      C    8   -0.07404      0.99954     2.06588    0.00862     3.07404
      C    9   -0.04732      0.99954     2.03406    0.01372     3.04732
      C   10   -0.07599      0.99948     2.06898    0.00753     3.07599
      C   11    0.00715      0.99952     1.98301    0.01032     2.99285
      C   12   -0.11496      0.99947     2.10759    0.00790     3.11496
      C   13   -0.20319      0.99957     2.19378    0.00984     3.20319
      C   14   -0.00544      0.99950     1.99555    0.01038     3.00544
      C   15   -0.10163      0.99951     2.09315    0.00898     3.10163
      C   16   -0.09567      0.99957     2.08595    0.01015     3.09567
      C   17   -0.10629      0.99956     2.09635    0.01037     3.10629
      C   18   -0.10276      0.99956     2.09284    0.01035     3.10276
      C   19   -0.09677      0.99951     2.08723    0.01003     3.09677
      H   20    0.09826      0.00000     0.40073    0.00102     0.40174
      H   21    0.09804      0.00000     0.40093    0.00103     0.40196
      H   22    0.09856      0.00000     0.40042    0.00101     0.40144
      H   23    0.10027      0.00000     0.39874    0.00099     0.39973
      H   24    0.09103      0.00000     0.40759    0.00138     0.40897
      H   25    0.08941      0.00000     0.40954    0.00106     0.41059
      H   26    0.08971      0.00000     0.40887    0.00142     0.41029
      H   27    0.08945      0.00000     0.40915    0.00140     0.41055
      H   28    0.09600      0.00000     0.40258    0.00142     0.40400
      H   29    0.10157      0.00000     0.39693    0.00150     0.39843
      H   30    0.10398      0.00000     0.39497    0.00105     0.39602
      H   31    0.10386      0.00000     0.39459    0.00155     0.39614
      H   32    0.09660      0.00000     0.40265    0.00074     0.40340
      H   33    0.09807      0.00000     0.40096    0.00097     0.40193
      H   34    0.09948      0.00000     0.39908    0.00145     0.40052
      H   35    0.09776      0.00000     0.40113    0.00111     0.40224
 =======================================================================
   * Total *    0.00272     18.99118    45.80341    0.20270    64.99728

 Normal termination of Gaussian 16 at Sun Dec 13 17:10:03 2020.
