 Gaussian 16, Revision A.03,

 -----------------------------------------------------------
 # opt freq B3LYP/6-31G(d) empiricaldispersion=gd3bj scf=xqc
 -----------------------------------------------------------

 ------------------------------
 CID_60915382_JID_5782_neutraal
 ------------------------------
 Symbolic Z-matrix:
 Charge =  0 Multiplicity = 1

 SCF Done:  E(RB3LYP) =  -1045.14483485     A.U. after   16 cycles
 SCF Done:  E(RB3LYP) =  -1045.16724620     A.U. after   14 cycles
 SCF Done:  E(RB3LYP) =  -1045.16771253     A.U. after   14 cycles
 SCF Done:  E(RB3LYP) =  -1045.16301058     A.U. after   17 cycles
 SCF Done:  E(RB3LYP) =  -1045.16785998     A.U. after   14 cycles
 SCF Done:  E(RB3LYP) =  -1045.16814183     A.U. after   14 cycles
 SCF Done:  E(RB3LYP) =  -1045.16816906     A.U. after   14 cycles
 SCF Done:  E(RB3LYP) =  -1045.16818518     A.U. after   13 cycles
 SCF Done:  E(RB3LYP) =  -1045.16819248     A.U. after   12 cycles
 SCF Done:  E(RB3LYP) =  -1045.16819399     A.U. after   10 cycles
 SCF Done:  E(RB3LYP) =  -1045.16819386     A.U. after    9 cycles
 SCF Done:  E(RB3LYP) =  -1045.16819409     A.U. after    8 cycles
 SCF Done:  E(RB3LYP) =  -1045.16819415     A.U. after    7 cycles
 Optimization completed.
    -- Stationary point found.
 Normal termination of Gaussian 16 at Thu Dec 10 16:53:44 2020.

 --------------------------------------------------------------------
 #N Geom=AllCheck Guess=TCheck SCRF=Check GenChk RB3LYP/6-31G(d) Freq
 --------------------------------------------------------------------

 Structure from the checkpoint file:  "JID_5782.chk"
 ------------------------------
 CID_60915382_JID_5782_neutraal
 ------------------------------
 Charge =  0 Multiplicity = 1

 SCF Done:  E(RB3LYP) =  -1045.16819415     A.U. after    1 cycles

  Exact polarizability: 187.199  16.130  92.465   2.680  -4.716 123.552
 Approx polarizability: 285.105  40.330 144.606  11.934 -13.787 238.996

                      1                      2                      3
                      A                      A                      A
 Frequencies --     24.2798                44.4064                51.1258
 Red. masses --      6.0847                 7.9367                 6.4738
 Frc consts  --      0.0021                 0.0092                 0.0100
 IR Inten    --      1.6080                 0.2792                 1.2700

                      4                      5                      6
                      A                      A                      A
 Frequencies --     75.9557               106.7241               135.8375
 Red. masses --      4.7485                 6.2312                 6.3012
 Frc consts  --      0.0161                 0.0418                 0.0685
 IR Inten    --      2.1859                 5.4919                 0.4095

                      7                      8                      9
                      A                      A                      A
 Frequencies --    154.5118               191.9539               270.1367
 Red. masses --      5.7683                 8.1244                 1.1068
 Frc consts  --      0.0811                 0.1764                 0.0476
 IR Inten    --      5.0266                 1.8793                 0.0507

                     10                     11                     12
                      A                      A                      A
 Frequencies --    284.9891               296.4234               315.4257
 Red. masses --      4.5849                 4.3314                 6.8943
 Frc consts  --      0.2194                 0.2242                 0.4041
 IR Inten    --      6.5918                 2.0406                 0.3048

                     13                     14                     15
                      A                      A                      A
 Frequencies --    341.8693               352.6322               385.6452
 Red. masses --      5.9998                 3.8470                 2.6785
 Frc consts  --      0.4131                 0.2818                 0.2347
 IR Inten    --      0.3571                 1.3199                 1.1588

                     16                     17                     18
                      A                      A                      A
 Frequencies --    423.1663               424.8056               504.1051
 Red. masses --      5.2267                 3.0646                 3.7961
 Frc consts  --      0.5514                 0.3258                 0.5684
 IR Inten    --      2.8381                 0.1124                 7.7609

                     19                     20                     21
                      A                      A                      A
 Frequencies --    530.9341               536.2613               601.2791
 Red. masses --      7.5729                 7.3946                 4.5948
 Frc consts  --      1.2577                 1.2529                 0.9787
 IR Inten    --      0.8509                 1.0062                 3.5478

                     22                     23                     24
                      A                      A                      A
 Frequencies --    643.8803               654.4732               704.8654
 Red. masses --      7.0903                 3.8734                 4.3644
 Frc consts  --      1.7319                 0.9775                 1.2776
 IR Inten    --      0.1324                 0.4987                18.0093

                     25                     26                     27
                      A                      A                      A
 Frequencies --    743.8664               758.4888               852.1879
 Red. masses --      7.6319                 4.3581                 1.2411
 Frc consts  --      2.4881                 1.4772                 0.5311
 IR Inten    --      6.9991                17.3650                 0.1888

                     28                     29                     30
                      A                      A                      A
 Frequencies --    855.8858               868.3141               874.3828
 Red. masses --      3.7117                 9.2982                 1.7264
 Frc consts  --      1.6020                 4.1305                 0.7777
 IR Inten    --      0.8807                57.2716                25.3084

                     31                     32                     33
                      A                      A                      A
 Frequencies --    912.9302               951.8473               986.3305
 Red. masses --      1.8250                 2.1337                 1.3421
 Frc consts  --      0.8962                 1.1390                 0.7693
 IR Inten    --      0.6072                 4.7585                 0.2379

                     34                     35                     36
                      A                      A                      A
 Frequencies --    992.7658              1037.1875              1038.0644
 Red. masses --      1.3138                 1.5962                 3.3143
 Frc consts  --      0.7629                 1.0117                 2.1042
 IR Inten    --      0.2405                 7.9839                10.9212

                     37                     38                     39
                      A                      A                      A
 Frequencies --   1111.3232              1115.5457              1130.9674
 Red. masses --      2.0630                 2.2778                 2.2490
 Frc consts  --      1.5012                 1.6701                 1.6949
 IR Inten    --      8.8626                 2.3129                 4.4761

                     40                     41                     42
                      A                      A                      A
 Frequencies --   1132.8048              1136.6347              1211.0364
 Red. masses --      1.2989                 3.4962                 1.2460
 Frc consts  --      0.9821                 2.6612                 1.0767
 IR Inten    --      5.7332                25.8347                 2.8615

                     43                     44                     45
                      A                      A                      A
 Frequencies --   1256.5787              1295.8979              1323.9835
 Red. masses --      1.0968                 1.3791                 1.4114
 Frc consts  --      1.0204                 1.3645                 1.4577
 IR Inten    --      1.0106                23.3360                 0.7013

                     46                     47                     48
                      A                      A                      A
 Frequencies --   1329.2702              1362.9519              1377.8518
 Red. masses --      1.3519                 5.8475                 1.3459
 Frc consts  --      1.4075                 6.4000                 1.5054
 IR Inten    --     23.0921                12.1994                 2.4020

                     49                     50                     51
                      A                      A                      A
 Frequencies --   1401.4235              1440.2018              1444.3996
 Red. masses --     14.0548                 2.9004                 1.2723
 Frc consts  --     16.2635                 3.5445                 1.5639
 IR Inten    --    339.0270                 4.0722                10.8230

                     52                     53                     54
                      A                      A                      A
 Frequencies --   1489.6073              1521.1308              1525.2466
 Red. masses --      1.0877                 1.0541                 2.1308
 Frc consts  --      1.4220                 1.4370                 2.9206
 IR Inten    --     12.7592                 9.9019                 9.1341

                     55                     56                     57
                      A                      A                      A
 Frequencies --   1533.5963              1616.9652              1643.8425
 Red. masses --      1.0499                 9.9891                 5.8551
 Frc consts  --      1.4549                15.3878                 9.3219
 IR Inten    --      4.0242                99.8188                15.5149

                     58                     59                     60
                      A                      A                      A
 Frequencies --   1671.8706              2371.9238              3052.5705
 Red. masses --     10.0245                12.6020                 1.0605
 Frc consts  --     16.5089                41.7726                 5.8223
 IR Inten    --    103.6013                 3.9115                 4.4777

                     61                     62                     63
                      A                      A                      A
 Frequencies --   3056.5750              3079.5108              3109.4345
 Red. masses --      1.0456                 1.0844                 1.0977
 Frc consts  --      5.7553                 6.0589                 6.2531
 IR Inten    --     21.0343                10.5099                 1.5991

                     64                     65                     66
                      A                      A                      A
 Frequencies --   3126.4599              3155.6196              3218.8432
 Red. masses --      1.0953                 1.1039                 1.0907
 Frc consts  --      6.3079                 6.4768                 6.6584
 IR Inten    --     15.3720                12.4943                 2.2633

                     67                     68                     69
                      A                      A                      A
 Frequencies --   3226.1851              3256.3894              3256.8551
 Red. masses --      1.0905                 1.0929                 1.0930
 Frc consts  --      6.6871                 6.8279                 6.8307
 IR Inten    --      2.3139                 1.1894                 1.8487

 - Thermochemistry -
 -------------------
 Temperature   298.150 Kelvin.  Pressure   1.00000 Atm.
 Atom     1 has atomic number  6 and mass  12.00000

 Molecular mass:   222.04630 amu.
 Principal axes and moments of inertia in atomic units:
                           1         2         3
     Eigenvalues --  1644.529585675.150805970.58066
           X            0.99989  -0.01150  -0.00980
           Y            0.01091   0.99825  -0.05806
           Z            0.01045   0.05795   0.99826
 This molecule is an asymmetric top.
 Rotational symmetry number  1.
 Warning -- assumption of classical behavior for rotation
           may cause significant error
 Rotational temperatures (Kelvin)      0.05267     0.01526     0.01451
 Rotational constants (GHZ):           1.09742     0.31801     0.30227
 Zero-point vibrational energy     495920.5 (Joules/Mol)
                                  118.52785 (Kcal/Mol)
 Warning -- explicit consideration of  21 degrees of freedom as
           vibrations may cause significant error
 Vibrational temperatures:     34.93    63.89    73.56   109.28   153.55
          (Kelvin)            195.44   222.31   276.18   388.67   410.04
                              426.49   453.83   491.87   507.36   554.86
                              608.84   611.20   725.29   763.90   771.56
                              865.11   926.40   941.64  1014.14  1070.26
                             1091.30  1226.11  1231.43  1249.31  1258.04
                             1313.50  1369.50  1419.11  1428.37  1492.28
                             1493.54  1598.95  1605.02  1627.21  1629.85
                             1635.36  1742.41  1807.94  1864.51  1904.92
                             1912.52  1960.98  1982.42  2016.34  2072.13
                             2078.17  2143.21  2188.57  2194.49  2206.50
                             2326.45  2365.12  2405.45  3412.67  4391.97
                             4397.73  4430.73  4473.78  4498.28  4540.23
                             4631.20  4641.76  4685.22  4685.89

 Zero-point correction=                           0.188886 (Hartree/Particle)
 Thermal correction to Energy=                    0.203089
 Thermal correction to Enthalpy=                  0.204033
 Thermal correction to Gibbs Free Energy=         0.145972
 Sum of electronic and zero-point Energies=          -1044.979308
 Sum of electronic and thermal Energies=             -1044.965105
 Sum of electronic and thermal Enthalpies=           -1044.964161
 Sum of electronic and thermal Free Energies=        -1045.022222

                     E (Thermal)             CV                S
                      KCal/Mol        Cal/Mol-Kelvin    Cal/Mol-Kelvin
 Total                  127.440             52.111            122.200
 Electronic               0.000              0.000              0.000
 Translational            0.889              2.981             42.096
 Rotational               0.889              2.981             32.388
 Vibrational            125.663             46.149             47.716
 Vibration     1          0.593              1.985              6.249
 Vibration     2          0.595              1.980              5.052
 Vibration     3          0.595              1.977              4.773
 Vibration     4          0.599              1.965              3.993
 Vibration     5          0.606              1.944              3.328
 Vibration     6          0.614              1.918              2.862
 Vibration     7          0.620              1.898              2.616
 Vibration     8          0.634              1.851              2.209
 Vibration     9          0.674              1.728              1.595
 Vibration    10          0.683              1.702              1.504
 Vibration    11          0.690              1.680              1.437
 Vibration    12          0.703              1.644              1.334
 Vibration    13          0.721              1.592              1.203
 Vibration    14          0.729              1.570              1.154
 Vibration    15          0.754              1.501              1.017
 Vibration    16          0.785              1.420              0.881
 Vibration    17          0.787              1.416              0.876
 Vibration    18          0.859              1.241              0.648
 Vibration    19          0.886              1.182              0.585
 Vibration    20          0.891              1.170              0.573
 Vibration    21          0.960              1.029              0.447

 Optimization completed.
    -- Stationary point found.
 Normal termination of Gaussian 16 at Thu Dec 10 17:01:55 2020.

 ----------------------------------------------------------------------
 # B3LYP/6-311++G(d,p) empiricaldispersion=gd3bj scf=xqc pop=npa geom=c
 heck
 ----------------------------------------------------------------------

 --------------------------------------
 CID_60915382_JID_5782_Energie_neutraal
 --------------------------------------
 Structure from the checkpoint file:  "JID_5782.chk"
 Charge =  0 Multiplicity = 1

 SCF Done:  E(RB3LYP) =  -1045.37511844     A.U. after   16 cycles
 Normal termination of Gaussian 16 at Thu Dec 10 17:05:44 2020.

 ----------------------------------------------------------------------
 # B3LYP/6-311++G(d,p) empiricaldispersion=gd3bj scf=xqc pop=npa geom=c
 heck
 ----------------------------------------------------------------------

 ------------------------------------
 CID_60915382_JID_5782_Energie_kation
 ------------------------------------
 Structure from the checkpoint file:  "JID_5782.chk"
 Charge =  1 Multiplicity = 2

 SCF Done:  E(UB3LYP) =  -1045.04332202     A.U. after   31 cycles
 Normal termination of Gaussian 16 at Thu Dec 10 17:13:39 2020.
 Gaussian 16:  ES64L-G16RevA.03 25-Dec-2016

 ----------------------------------------------------------------------
 # B3LYP/6-311++G(d,p) empiricaldispersion=gd3bj scf=xqc pop=npa geom=c
 heck
 ----------------------------------------------------------------------

 -----------------------------------
 CID_60915382_JID_5782_Energie_anion
 -----------------------------------
 Structure from the checkpoint file:  "JID_5782.chk"
 Charge = -1 Multiplicity = 2

                         Standard orientation:
 ---------------------------------------------------------------------
 Center     Atomic      Atomic             Coordinates (Angstroms)
 Number     Number       Type             X           Y           Z
 ---------------------------------------------------------------------
      1          6           0       -3.032271    0.191803    1.647849
      2          6           0       -3.135924    0.052872    0.131141
      3          6           0       -2.777491    1.363007   -0.607825
      4          6           0       -1.508506    1.961379   -0.182506
      5          7           0       -0.518232    2.447717    0.176869
      6         16           0       -2.252108   -1.432857   -0.548516
      7          6           0       -0.530635   -0.992663   -0.326937
      8          6           0        0.210760   -0.551769   -1.431158
      9          6           0        1.542254   -0.180236   -1.280438
     10          6           0        2.114622   -0.257001   -0.014666
     11          6           0        1.409575   -0.716201    1.094515
     12          6           0        0.083312   -1.099102    0.929048
     13          7           0        3.518561    0.148697    0.155476
     14          8           0        4.125164    0.534654   -0.842515
     15          8           0        4.000583    0.073240    1.284731
     16          1           0       -2.006414    0.414782    1.953639
     17          1           0       -3.355019   -0.727520    2.142732
     18          1           0       -3.668303    1.015756    1.994479
     19          1           0       -4.170122   -0.183170   -0.142852
     20          1           0       -2.751007    1.193915   -1.689101
     21          1           0       -3.568069    2.099526   -0.413034
     22          1           0       -0.265841   -0.485120   -2.403129
     23          1           0        2.133118    0.177589   -2.113706
     24          1           0        1.903687   -0.771259    2.055999
     25          1           0       -0.480759   -1.479370    1.772938
 ---------------------------------------------------------------------

 SCF Done:  E(UB3LYP) =  -1045.41963888     A.U. after   23 cycles

 The electronic state is 2-A.
 Alpha  occ. eigenvalues --  -88.73690 -18.95222 -18.95216 -14.33252 -14.20937
 Alpha  occ. eigenvalues --  -10.13110 -10.12639 -10.10938 -10.08203 -10.06925
 Alpha  occ. eigenvalues --  -10.06400 -10.05188 -10.05146 -10.04211 -10.04005
 Alpha  occ. eigenvalues --   -7.82249  -5.78641  -5.78273  -5.77641  -1.03266
 Alpha  occ. eigenvalues --   -0.86165  -0.80776  -0.74951  -0.73285  -0.66719
 Alpha  occ. eigenvalues --   -0.64108  -0.62412  -0.60196  -0.53791  -0.49260
 Alpha  occ. eigenvalues --   -0.48509  -0.43963  -0.41917  -0.39249  -0.38210
 Alpha  occ. eigenvalues --   -0.37428  -0.35344  -0.34615  -0.33571  -0.32594
 Alpha  occ. eigenvalues --   -0.31614  -0.31112  -0.30157  -0.29324  -0.28588
 Alpha  occ. eigenvalues --   -0.26349  -0.25801  -0.24495  -0.23196  -0.22451
 Alpha  occ. eigenvalues --   -0.22396  -0.20601  -0.14469  -0.13981  -0.13195
 Alpha  occ. eigenvalues --   -0.12825  -0.12471  -0.10834   0.01856
 Alpha virt. eigenvalues --    0.05562   0.08289   0.08443   0.09152   0.10464
 Alpha virt. eigenvalues --    0.11040   0.11247   0.11528   0.11971   0.12258
 Alpha virt. eigenvalues --    0.12962   0.13010   0.13435   0.14504   0.14913

  Beta  occ. eigenvalues --  -88.73695 -18.94784 -18.94773 -14.32755 -14.20922
  Beta  occ. eigenvalues --  -10.13111 -10.12551 -10.10936 -10.08204 -10.06654
  Beta  occ. eigenvalues --  -10.06232 -10.05206 -10.05170 -10.04117 -10.03890
  Beta  occ. eigenvalues --   -7.82252  -5.78647  -5.78286  -5.77643  -1.02364
  Beta  occ. eigenvalues --   -0.85339  -0.80752  -0.74763  -0.73066  -0.66328
  Beta  occ. eigenvalues --   -0.63975  -0.62164  -0.59861  -0.53237  -0.48913
  Beta  occ. eigenvalues --   -0.48413  -0.43627  -0.41875  -0.39030  -0.38022
  Beta  occ. eigenvalues --   -0.37121  -0.34379  -0.33366  -0.32698  -0.32385
  Beta  occ. eigenvalues --   -0.31477  -0.30652  -0.30094  -0.29268  -0.28535
  Beta  occ. eigenvalues --   -0.26224  -0.25273  -0.24285  -0.23139  -0.22333
  Beta  occ. eigenvalues --   -0.22232  -0.20247  -0.13482  -0.12948  -0.12368
  Beta  occ. eigenvalues --   -0.11523  -0.10934  -0.10399
  Beta virt. eigenvalues --    0.05468   0.07691   0.08245   0.08896   0.09156
  Beta virt. eigenvalues --    0.10585   0.11089   0.11353   0.11790   0.12178
  Beta virt. eigenvalues --    0.12337   0.13006   0.13460   0.14123   0.14730

 Mulliken charges and spin densities:
               1          2
     1  C   -0.667369  -0.020389
     2  C    0.212258  -0.063689
     3  C   -0.558535  -0.009182
     4  C    0.185787   0.011805
     5  N   -0.279120   0.005558
     6  S   -0.246602   0.013340
     7  C    1.349885   0.177476
     8  C   -0.617591  -0.002149
     9  C   -0.366158   0.135271
    10  C   -0.062296   0.027129
    11  C   -0.334353   0.117939
    12  C   -0.667533   0.008625
    13  N   -0.251317   0.164779
    14  O   -0.174198   0.166792
    15  O   -0.173117   0.168735
    16  H    0.169575  -0.001500
    17  H    0.133221   0.009883
    18  H    0.114671  -0.002961
    19  H    0.144683   0.092655
    20  H    0.199738  -0.005342
    21  H    0.152660   0.010004
    22  H    0.145094   0.004288
    23  H    0.222645  -0.007175
    24  H    0.224062  -0.005546
    25  H    0.143910   0.003655
 Sum of Mulliken charges =  -1.00000   1.00000

 Dipole moment (field-independent basis, Debye):
    X=            -12.9527    Y=             -0.4807    Z=             -0.5997  Tot=             12.9755
 Quadrupole moment (field-independent basis, Debye-Ang):
   XX=           -156.2374   YY=           -113.8963   ZZ=           -103.1463
   XY=            -12.7254   XZ=             -3.5886   YZ=             -3.5199

 Summary of Natural Population Analysis:

                                       Natural Population
                Natural  -----------------------------------------------
    Atom  No    Charge         Core      Valence    Rydberg      Total
 -----------------------------------------------------------------------
      C    1   -0.29661      0.99963     2.29142    0.00556     3.29661
      C    2   -0.15190      0.99957     2.13819    0.01413     3.15190
      C    3   -0.24957      0.99952     2.24196    0.00809     3.24957
      C    4    0.14488      0.99966     1.83703    0.01843     2.85512
      N    5   -0.16172      0.99979     2.65124    0.01069     3.66172
      S    6    0.09432      4.99955     2.88739    0.01875     7.90568
      C    7   -0.06055      0.99939     2.04610    0.01507     3.06055
      C    8   -0.11106      0.99950     2.10174    0.00982     3.11106
      C    9   -0.07198      0.99952     2.06324    0.00922     3.07198
      C   10    0.07331      0.99939     1.91057    0.01673     2.92669
      C   11   -0.07608      0.99952     2.06746    0.00910     3.07608
      C   12   -0.11335      0.99950     2.10435    0.00950     3.11335
      N   13    0.29317      0.99972     2.18093    0.02618     3.20683
      O   14   -0.19145      0.99990     3.18403    0.00752     4.19145
      O   15   -0.19121      0.99990     3.18380    0.00752     4.19121
      H   16    0.11318      0.00000     0.38594    0.00088     0.38682
      H   17    0.10427      0.00000     0.39491    0.00083     0.39573
      H   18    0.09463      0.00000     0.40440    0.00096     0.40537
      H   19    0.09850      0.00000     0.39921    0.00229     0.40150
      H   20    0.12344      0.00000     0.37547    0.00109     0.37656
      H   21    0.11399      0.00000     0.38483    0.00118     0.38601
      H   22    0.09693      0.00000     0.40207    0.00101     0.40307
      H   23    0.11391      0.00000     0.38500    0.00109     0.38609
      H   24    0.11405      0.00000     0.38485    0.00110     0.38595
      H   25    0.09692      0.00000     0.40190    0.00117     0.40308
 =======================================================================
   * Total *    0.00000     18.99406    38.80803    0.19791    58.00000

 Normal termination of Gaussian 16 at Thu Dec 10 17:19:58 2020.
