 Gaussian 16, Revision A.03,

 -----------------------------------------------------------
 # opt freq B3LYP/6-31G(d) empiricaldispersion=gd3bj scf=xqc
 -----------------------------------------------------------

 ------------------------------
 CID_83926717_JID_4159_neutraal
 ------------------------------
 Symbolic Z-matrix:
 Charge =  0 Multiplicity = 1

 SCF Done:  E(RB3LYP) =  -993.474444275     A.U. after   14 cycles
 SCF Done:  E(RB3LYP) =  -993.479086450     A.U. after   12 cycles
 SCF Done:  E(RB3LYP) =  -993.479645797     A.U. after   12 cycles
 SCF Done:  E(RB3LYP) =  -993.479976867     A.U. after   12 cycles
 SCF Done:  E(RB3LYP) =  -993.480180052     A.U. after   11 cycles
 SCF Done:  E(RB3LYP) =  -993.480381724     A.U. after   12 cycles
 SCF Done:  E(RB3LYP) =  -993.480456813     A.U. after   11 cycles
 SCF Done:  E(RB3LYP) =  -993.480515406     A.U. after   11 cycles
 SCF Done:  E(RB3LYP) =  -993.480525318     A.U. after   10 cycles
 SCF Done:  E(RB3LYP) =  -993.480527748     A.U. after    9 cycles
 SCF Done:  E(RB3LYP) =  -993.480529354     A.U. after    8 cycles
 SCF Done:  E(RB3LYP) =  -993.480529549     A.U. after    9 cycles
 SCF Done:  E(RB3LYP) =  -993.480529683     A.U. after    8 cycles
 SCF Done:  E(RB3LYP) =  -993.480529759     A.U. after    8 cycles
 SCF Done:  E(RB3LYP) =  -993.480529777     A.U. after    6 cycles
 Optimization completed.
    -- Stationary point found.
 Normal termination of Gaussian 16 at Thu Dec 10 09:19:57 2020.

 --------------------------------------------------------------------
 #N Geom=AllCheck Guess=TCheck SCRF=Check GenChk RB3LYP/6-31G(d) Freq
 --------------------------------------------------------------------

 Structure from the checkpoint file:  "JID_4159.chk"
 ------------------------------
 CID_83926717_JID_4159_neutraal
 ------------------------------
 Charge =  0 Multiplicity = 1

 SCF Done:  E(RB3LYP) =  -993.480529777     A.U. after    1 cycles

  Exact polarizability: 165.170  -6.651 112.567  -3.456 -16.700 113.589
 Approx polarizability: 226.587 -20.035 175.854  -9.568 -42.154 194.340

                      1                      2                      3
                      A                      A                      A
 Frequencies --     22.0164                29.9802                44.8481
 Red. masses --      2.7877                 4.3238                 2.7540
 Frc consts  --      0.0008                 0.0023                 0.0033
 IR Inten    --      0.7008                 1.0855                 3.0750

                      4                      5                      6
                      A                      A                      A
 Frequencies --     73.0674               132.6244               136.0893
 Red. masses --      2.8535                 3.6784                 2.5922
 Frc consts  --      0.0090                 0.0381                 0.0283
 IR Inten    --      0.8609                 2.7359                 1.1981

                      7                      8                      9
                      A                      A                      A
 Frequencies --    179.0744               197.2223               222.7070
 Red. masses --      2.5216                 2.6774                 3.5975
 Frc consts  --      0.0476                 0.0614                 0.1051
 IR Inten    --     10.0746                 0.0866                 1.0924

                     10                     11                     12
                      A                      A                      A
 Frequencies --    258.3121               262.8758               286.2696
 Red. masses --      1.6766                 3.9629                 3.7323
 Frc consts  --      0.0659                 0.1613                 0.1802
 IR Inten    --      1.8477                 5.5648                 8.8603

                     13                     14                     15
                      A                      A                      A
 Frequencies --    297.1259               313.9938               366.8689
 Red. masses --      1.5483                 3.2053                 3.7324
 Frc consts  --      0.0805                 0.1862                 0.2960
 IR Inten    --     35.8912                 2.3455                15.5515

                     16                     17                     18
                      A                      A                      A
 Frequencies --    418.8439               436.1274               470.0354
 Red. masses --      3.2889                 2.9981                 4.2767
 Frc consts  --      0.3399                 0.3360                 0.5567
 IR Inten    --     18.7828                 0.1480                 7.5518

                     19                     20                     21
                      A                      A                      A
 Frequencies --    483.2115               517.6396               551.1458
 Red. masses --      4.0339                 8.3579                 3.8336
 Frc consts  --      0.5550                 1.3195                 0.6861
 IR Inten    --     22.3234                56.3518                 7.1082

                     22                     23                     24
                      A                      A                      A
 Frequencies --    611.0420               677.6608               696.2348
 Red. masses --      4.3080                 4.9833                 3.3876
 Frc consts  --      0.9477                 1.3483                 0.9675
 IR Inten    --      4.8875                49.2762                 6.1096

                     25                     26                     27
                      A                      A                      A
 Frequencies --    719.3202               803.8828               808.3665
 Red. masses --      3.0090                 1.3841                 1.4276
 Frc consts  --      0.9173                 0.5270                 0.5496
 IR Inten    --     62.6764                 5.6186                13.9387

                     28                     29                     30
                      A                      A                      A
 Frequencies --    852.4020               864.1015               874.9309
 Red. masses --      2.1565                 2.5745                 1.4453
 Frc consts  --      0.9232                 1.1326                 0.6519
 IR Inten    --      3.2509                74.6917                63.8433

                     31                     32                     33
                      A                      A                      A
 Frequencies --    913.1922               933.0759               945.2801
 Red. masses --      1.7240                 1.3688                 1.2980
 Frc consts  --      0.8470                 0.7021                 0.6833
 IR Inten    --      6.8063                17.0123                 0.3035

                     34                     35                     36
                      A                      A                      A
 Frequencies --    999.8175              1011.2913              1019.4879
 Red. masses --      1.3740                 1.6667                 5.1356
 Frc consts  --      0.8092                 1.0043                 3.1449
 IR Inten    --      4.4582                17.1947                 8.9731

                     37                     38                     39
                      A                      A                      A
 Frequencies --   1059.4986              1080.4442              1087.5557
 Red. masses --      1.9308                 3.1195                 2.0473
 Frc consts  --      1.2770                 2.1455                 1.4267
 IR Inten    --     10.8071                23.8473                36.4359

                     40                     41                     42
                      A                      A                      A
 Frequencies --   1098.4681              1113.2890              1123.9233
 Red. masses --      1.9319                 1.9015                 1.7026
 Frc consts  --      1.3734                 1.3885                 1.2672
 IR Inten    --     19.8848                 5.5227                17.1999

                     43                     44                     45
                      A                      A                      A
 Frequencies --   1139.1007              1189.5196              1202.0811
 Red. masses --      2.3746                 1.2778                 1.1246
 Frc consts  --      1.8153                 1.0652                 0.9574
 IR Inten    --    127.0602                 3.8323                 1.9063

                     46                     47                     48
                      A                      A                      A
 Frequencies --   1238.3232              1242.5876              1288.8724
 Red. masses --      1.9033                 1.5802                 2.4493
 Frc consts  --      1.7196                 1.4375                 2.3972
 IR Inten    --      3.9920                13.3681                67.8545

                     49                     50                     51
                      A                      A                      A
 Frequencies --   1305.7841              1309.2100              1346.8696
 Red. masses --      1.5411                 2.0677                 1.2656
 Frc consts  --      1.5482                 2.0881                 1.3527
 IR Inten    --      9.9180                71.0870                 4.2919

                     52                     53                     54
                      A                      A                      A
 Frequencies --   1358.8995              1373.1689              1400.2455
 Red. masses --      1.2811                 3.7274                 1.4341
 Frc consts  --      1.3938                 4.1410                 1.6567
 IR Inten    --      6.4571                 0.4770                 3.6980

                     55                     56                     57
                      A                      A                      A
 Frequencies --   1433.7408              1448.4773              1478.9520
 Red. masses --      1.5608                 1.2418                 1.0951
 Frc consts  --      1.8904                 1.5351                 1.4112
 IR Inten    --     34.8877                 2.3079                 6.5303

                     58                     59                     60
                      A                      A                      A
 Frequencies --   1481.4023              1515.8913              1523.4630
 Red. masses --      2.5311                 1.0711                 1.8298
 Frc consts  --      3.2727                 1.4501                 2.5022
 IR Inten    --     13.7341                 4.5678                11.2636

                     61                     62                     63
                      A                      A                      A
 Frequencies --   1529.9014              1534.7938              1538.5216
 Red. masses --      1.0469                 1.2306                 1.0549
 Frc consts  --      1.4437                 1.7079                 1.4712
 IR Inten    --      7.1424                 0.6142                 5.9625

                     64                     65                     66
                      A                      A                      A
 Frequencies --   1637.7412              1660.0267              1695.6050
 Red. masses --      5.6013                 5.5753                 1.1053
 Frc consts  --      8.8518                 9.0521                 1.8723
 IR Inten    --      1.0416                 2.3972                32.4490

                     67                     68                     69
                      A                      A                      A
 Frequencies --   2974.6800              3044.8061              3051.5560
 Red. masses --      1.0721                 1.0892                 1.0664
 Frc consts  --      5.5893                 5.9496                 5.8505
 IR Inten    --     57.4906                24.6596                28.3343

                     70                     71                     72
                      A                      A                      A
 Frequencies --   3055.7328              3076.5830              3098.6034
 Red. masses --      1.0410                 1.0598                 1.0958
 Frc consts  --      5.7272                 5.9105                 6.1988
 IR Inten    --     21.2620                 3.8468                 4.1840

                     73                     74                     75
                      A                      A                      A
 Frequencies --   3118.5167              3132.4880              3151.9376
 Red. masses --      1.1010                 1.1055                 1.0989
 Frc consts  --      6.3085                 6.3914                 6.4321
 IR Inten    --     27.6878                 7.9890                19.3543

                     76                     77                     78
                      A                      A                      A
 Frequencies --   3197.4582              3210.9716              3219.1029
 Red. masses --      1.0877                 1.0901                 1.0920
 Frc consts  --      6.5522                 6.6222                 6.6673
 IR Inten    --      9.4906                 1.5905                 1.5296

                     79                     80                     81
                      A                      A                      A
 Frequencies --   3225.7726              3472.9940              3561.3864
 Red. masses --      1.0939                 1.0500                 1.0928
 Frc consts  --      6.7064                 7.4617                 8.1666
 IR Inten    --      5.4542                 0.9320                 0.2535

 - Thermochemistry -
 -------------------
 Temperature   298.150 Kelvin.  Pressure   1.00000 Atm.
 Atom     1 has atomic number  6 and mass  12.00000

 Molecular mass:   213.08235 amu.
 Principal axes and moments of inertia in atomic units:
                           1         2         3
     Eigenvalues --  1828.646374815.413325135.75840
           X            0.99965   0.01529   0.02145
           Y           -0.01483   0.99966  -0.02139
           Z           -0.02177   0.02106   0.99954
 This molecule is an asymmetric top.
 Rotational symmetry number  1.
 Warning -- assumption of classical behavior for rotation
           may cause significant error
 Rotational temperatures (Kelvin)      0.04737     0.01799     0.01686
 Rotational constants (GHZ):           0.98693     0.37478     0.35141
 Zero-point vibrational energy     636766.9 (Joules/Mol)
                                  152.19094 (Kcal/Mol)
 Warning -- explicit consideration of  22 degrees of freedom as
           vibrations may cause significant error
 Vibrational temperatures:     31.68    43.13    64.53   105.13   190.82
          (Kelvin)            195.80   257.65   283.76   320.43   371.65
                              378.22   411.88   427.50   451.77   527.84
                              602.62   627.49   676.28   695.23   744.77
                              792.98   879.15   975.00  1001.73  1034.94
                             1156.61  1163.06  1226.42  1243.25  1258.83
                             1313.88  1342.49  1360.05  1438.51  1455.02
                             1466.82  1524.38  1554.52  1564.75  1580.45
                             1601.77  1617.08  1638.91  1711.45  1729.53
                             1781.67  1787.81  1854.40  1878.73  1883.66
                             1937.84  1955.15  1975.68  2014.64  2062.83
                             2084.04  2127.88  2131.41  2181.03  2191.92
                             2201.19  2208.23  2213.59  2356.34  2388.41
                             2439.60  4279.90  4380.80  4390.51  4396.52
                             4426.52  4458.20  4486.85  4506.95  4534.94
                             4600.43  4619.87  4631.57  4641.17  4996.86
                             5124.04

 Zero-point correction=                           0.242532 (Hartree/Particle)
 Thermal correction to Energy=                    0.257242
 Thermal correction to Enthalpy=                  0.258186
 Thermal correction to Gibbs Free Energy=         0.199028
 Sum of electronic and zero-point Energies=           -993.237998
 Sum of electronic and thermal Energies=              -993.223288
 Sum of electronic and thermal Enthalpies=            -993.222343
 Sum of electronic and thermal Free Energies=         -993.281502

                     E (Thermal)             CV                S
                      KCal/Mol        Cal/Mol-Kelvin    Cal/Mol-Kelvin
 Total                  161.422             54.446            124.509
 Electronic               0.000              0.000              0.000
 Translational            0.889              2.981             41.973
 Rotational               0.889              2.981             32.181
 Vibrational            159.644             48.485             50.355
 Vibration     1          0.593              1.985              6.443
 Vibration     2          0.594              1.984              5.831
 Vibration     3          0.595              1.979              5.033
 Vibration     4          0.599              1.967              4.069
 Vibration     5          0.613              1.921              2.908
 Vibration     6          0.614              1.917              2.858
 Vibration     7          0.629              1.868              2.338
 Vibration     8          0.637              1.844              2.159
 Vibration     9          0.648              1.806              1.937
 Vibration    10          0.667              1.749              1.673
 Vibration    11          0.670              1.741              1.643
 Vibration    12          0.684              1.699              1.496
 Vibration    13          0.691              1.679              1.433
 Vibration    14          0.702              1.647              1.341
 Vibration    15          0.740              1.540              1.093
 Vibration    16          0.782              1.429              0.896
 Vibration    17          0.797              1.391              0.839
 Vibration    18          0.827              1.317              0.737
 Vibration    19          0.839              1.287              0.701
 Vibration    20          0.873              1.211              0.615
 Vibration    21          0.906              1.137              0.542
 Vibration    22          0.970              1.008              0.431

 Optimization completed.
    -- Stationary point found.
 Normal termination of Gaussian 16 at Thu Dec 10 09:27:34 2020.

 ----------------------------------------------------------------------
 # B3LYP/6-311++G(d,p) empiricaldispersion=gd3bj scf=xqc pop=npa geom=c
 heck
 ----------------------------------------------------------------------

 --------------------------------------
 CID_83926717_JID_4159_Energie_neutraal
 --------------------------------------
 Structure from the checkpoint file:  "JID_4159.chk"
 Charge =  0 Multiplicity = 1

 SCF Done:  E(RB3LYP) =  -993.680241022     A.U. after   15 cycles
 Normal termination of Gaussian 16 at Thu Dec 10 09:30:37 2020.

 ----------------------------------------------------------------------
 # B3LYP/6-311++G(d,p) empiricaldispersion=gd3bj scf=xqc pop=npa geom=c
 heck
 ----------------------------------------------------------------------

 ------------------------------------
 CID_83926717_JID_4159_Energie_kation
 ------------------------------------
 Structure from the checkpoint file:  "JID_4159.chk"
 Charge =  1 Multiplicity = 2

 SCF Done:  E(UB3LYP) =  -993.352397752     A.U. after   33 cycles
 SCF Done:  E(UB3LYP) =  -993.352397752     a.u. after    1 cycles
 Normal termination of Gaussian 16 at Thu Dec 10 09:39:36 2020.
 Gaussian 16:  ES64L-G16RevA.03 25-Dec-2016

 ----------------------------------------------------------------------
 # B3LYP/6-311++G(d,p) empiricaldispersion=gd3bj scf=xqc pop=npa geom=c
 heck
 ----------------------------------------------------------------------

 -----------------------------------
 CID_83926717_JID_4159_Energie_anion
 -----------------------------------
 Structure from the checkpoint file:  "JID_4159.chk"
 Charge = -1 Multiplicity = 2

                         Standard orientation:
 ---------------------------------------------------------------------
 Center     Atomic      Atomic             Coordinates (Angstroms)
 Number     Number       Type             X           Y           Z
 ---------------------------------------------------------------------
      1          6           0        1.325702    2.398857    1.144056
      2          6           0        2.568208    1.865891    0.424943
      3          6           0        2.771952    0.353224    0.517127
      4         16           0        1.761221   -0.654364   -0.617623
      5          8           0        1.728026    0.029152   -1.923468
      6          8           0        2.266024   -2.032696   -0.493160
      7          6           0        0.097618   -0.622778    0.055496
      8          6           0       -0.184706   -1.346982    1.212937
      9          6           0       -1.482163   -1.305907    1.721564
     10          6           0       -2.470178   -0.562232    1.074893
     11          6           0       -2.183143    0.149570   -0.096650
     12          6           0       -0.883478    0.110174   -0.608239
     13          6           0       -3.252709    0.969450   -0.790138
     14          7           0       -4.573825    0.351953   -0.650315
     15          1           0        0.400761    2.046980    0.681336
     16          1           0        1.315091    3.493713    1.123350
     17          1           0        1.312061    2.083376    2.194256
     18          1           0        2.553295    2.149910   -0.633092
     19          1           0        3.461794    2.331654    0.859353
     20          1           0        3.786915    0.068225    0.220064
     21          1           0        2.592437   -0.040404    1.522827
     22          1           0        0.586802   -1.946483    1.684958
     23          1           0       -1.726897   -1.864083    2.620599
     24          1           0       -3.485077   -0.537300    1.457444
     25          1           0       -0.621494    0.636156   -1.521158
     26          1           0       -3.306607    1.958624   -0.314696
     27          1           0       -2.937850    1.146689   -1.832793
     28          1           0       -5.284159    0.965411   -1.044042
     29          1           0       -4.604842   -0.513563   -1.187149
 ---------------------------------------------------------------------

 SCF Done:  E(UB3LYP) =  -993.678323926     A.U. after   32 cycles

 The electronic state is 2-A.
 Alpha  occ. eigenvalues --  -88.92159 -18.99429 -18.99182 -14.18375 -10.10164
 Alpha  occ. eigenvalues --  -10.08421 -10.08368 -10.06823 -10.06497 -10.05859
 Alpha  occ. eigenvalues --  -10.05809 -10.05684 -10.05429 -10.03782  -7.98584
 Alpha  occ. eigenvalues --   -5.94879  -5.94749  -5.94668  -0.98420  -0.88275
 Alpha  occ. eigenvalues --   -0.77723  -0.74024  -0.70928  -0.65108  -0.63906
 Alpha  occ. eigenvalues --   -0.61868  -0.55116  -0.54437  -0.50388  -0.48157
 Alpha  occ. eigenvalues --   -0.44729  -0.41191  -0.38613  -0.37892  -0.37112
 Alpha  occ. eigenvalues --   -0.36357  -0.34514  -0.34066  -0.33116  -0.32338
 Alpha  occ. eigenvalues --   -0.31370  -0.30742  -0.29900  -0.28111  -0.26957
 Alpha  occ. eigenvalues --   -0.26444  -0.25401  -0.24410  -0.24031  -0.22747
 Alpha  occ. eigenvalues --   -0.21210  -0.20286  -0.18851  -0.16923  -0.14649
 Alpha  occ. eigenvalues --   -0.14294  -0.12920   0.04412
 Alpha virt. eigenvalues --    0.06365   0.06830   0.08406   0.08694   0.09719
 Alpha virt. eigenvalues --    0.09925   0.10147   0.10512   0.11353   0.11535
 Alpha virt. eigenvalues --    0.12377   0.12836   0.13442   0.14078   0.14865

  Beta  occ. eigenvalues --  -88.92155 -18.99407 -18.99156 -14.18328 -10.10144
  Beta  occ. eigenvalues --  -10.08408 -10.08355 -10.06628 -10.06492 -10.05880
  Beta  occ. eigenvalues --  -10.05848 -10.05646 -10.05241 -10.03484  -7.98579
  Beta  occ. eigenvalues --   -5.94876  -5.94728  -5.94666  -0.98337  -0.88216
  Beta  occ. eigenvalues --   -0.77607  -0.73734  -0.70869  -0.64748  -0.63673
  Beta  occ. eigenvalues --   -0.61743  -0.54923  -0.54186  -0.50197  -0.48097
  Beta  occ. eigenvalues --   -0.44510  -0.41089  -0.38490  -0.37788  -0.36977
  Beta  occ. eigenvalues --   -0.36240  -0.34414  -0.33958  -0.33040  -0.32260
  Beta  occ. eigenvalues --   -0.31330  -0.30607  -0.29792  -0.27920  -0.26882
  Beta  occ. eigenvalues --   -0.26329  -0.25357  -0.24212  -0.23552  -0.22633
  Beta  occ. eigenvalues --   -0.21110  -0.20246  -0.18739  -0.16801  -0.14044
  Beta  occ. eigenvalues --   -0.13616  -0.12118
  Beta virt. eigenvalues --    0.06558   0.07483   0.08461   0.08546   0.09170
  Beta virt. eigenvalues --    0.09944   0.10000   0.10075   0.10962   0.11487
  Beta virt. eigenvalues --    0.11669   0.12417   0.13055   0.13340   0.14096

 Mulliken charges and spin densities:
               1          2
     1  C   -0.397410  -0.120016
     2  C   -0.174641  -0.102669
     3  C   -0.294574  -0.063461
     4  S    0.240636   0.087822
     5  O   -0.201982   0.000064
     6  O   -0.165860  -0.015484
     7  C    0.615538  -0.056594
     8  C   -0.364650   0.143830
     9  C   -0.500338   0.039584
    10  C   -0.629784   0.616591
    11  C   -0.216220   0.439542
    12  C   -0.354424  -0.224887
    13  C    0.883203  -1.554852
    14  N   -0.411556   0.087947
    15  H    0.299777  -0.145112
    16  H   -0.005810   0.131922
    17  H    0.079692   0.046996
    18  H    0.188270   0.001787
    19  H   -0.113818   0.253274
    20  H    0.113910   0.096098
    21  H    0.238585  -0.015031
    22  H    0.186079  -0.010241
    23  H    0.116482   0.022502
    24  H    0.105827   0.061253
    25  H    0.251888  -0.010278
    26  H   -0.244324   0.451319
    27  H   -0.099227   0.258346
    28  H   -0.194068   0.426791
    29  H    0.048799   0.152959
 Sum of Mulliken charges =  -1.00000   1.00000

 Dipole moment (field-independent basis, Debye):
    X=              4.6848    Y=              0.4056    Z=              2.8017  Tot=              5.4737
 Quadrupole moment (field-independent basis, Debye-Ang):
   XX=           -163.8231   YY=           -121.4313   ZZ=           -114.2693
   XY=             12.4881   XZ=              2.8179   YZ=             -3.8411

 Summary of Natural Population Analysis:

                                       Natural Population
                Natural  -----------------------------------------------
    Atom  No    Charge         Core      Valence    Rydberg      Total
 -----------------------------------------------------------------------
      C    1   -0.28776      0.99966     2.28341    0.00469     3.28776
      C    2   -0.20453      0.99963     2.19536    0.00954     3.20453
      C    3   -0.28570      0.99958     2.27294    0.01318     3.28570
      S    4    1.03511      4.99915     1.87150    0.09424     6.96489
      O    5   -0.47781      0.99991     3.47209    0.00581     4.47781
      O    6   -0.47487      0.99991     3.46975    0.00521     4.47487
      C    7   -0.11262      0.99936     2.09747    0.01579     3.11262
      C    8   -0.06878      0.99951     2.06018    0.00910     3.06878
      C    9   -0.11639      0.99957     2.10751    0.00930     3.11639
      C   10   -0.04169      0.99952     2.03177    0.01040     3.04169
      C   11   -0.01874      0.99950     2.00880    0.01044     3.01874
      C   12   -0.09898      0.99946     2.08846    0.01106     3.09898
      C   13   -0.09270      0.99960     2.08084    0.01227     3.09270
      N   14   -0.42039      0.99978     2.90979    0.01083     3.92039
      H   15    0.10938      0.00000     0.38951    0.00111     0.39062
      H   16    0.09615      0.00000     0.40300    0.00085     0.40385
      H   17    0.09474      0.00000     0.40430    0.00096     0.40526
      H   18    0.10781      0.00000     0.39098    0.00120     0.39219
      H   19    0.09652      0.00000     0.40207    0.00141     0.40348
      H   20    0.11361      0.00000     0.38483    0.00156     0.38639
      H   21    0.10949      0.00000     0.38950    0.00101     0.39051
      H   22    0.10170      0.00000     0.39717    0.00112     0.39830
      H   23    0.09516      0.00000     0.40403    0.00080     0.40484
      H   24    0.10477      0.00000     0.39403    0.00120     0.39523
      H   25    0.11129      0.00000     0.38727    0.00144     0.38871
      H   26    0.09608      0.00000     0.40215    0.00177     0.40392
      H   27    0.08080      0.00000     0.41764    0.00156     0.41920
      H   28    0.17621      0.00000     0.32011    0.00367     0.32379
      H   29    0.17215      0.00000     0.32605    0.00179     0.32785
 =======================================================================
   * Total *   -0.00000     17.99413    38.76252    0.24334    57.00000

 Normal termination of Gaussian 16 at Thu Dec 10 09:48:14 2020.
