 Gaussian 16, Revision A.03,

 -----------------------------------------------------------
 # opt freq B3LYP/6-31G(d) empiricaldispersion=gd3bj scf=xqc
 -----------------------------------------------------------

 ------------------------------
 CID_20190587_JID_1979_neutraal
 ------------------------------
 Symbolic Z-matrix:
 Charge =  0 Multiplicity = 1

 SCF Done:  E(RB3LYP) =  -537.648079134     A.U. after   15 cycles
 SCF Done:  E(RB3LYP) =  -537.651277238     A.U. after   15 cycles
 SCF Done:  E(RB3LYP) =  -537.647745062     A.U. after   15 cycles
 SCF Done:  E(RB3LYP) =  -537.651783187     A.U. after   13 cycles
 SCF Done:  E(RB3LYP) =  -537.652517777     A.U. after   14 cycles
 SCF Done:  E(RB3LYP) =  -537.653025118     A.U. after   12 cycles
 SCF Done:  E(RB3LYP) =  -537.653155729     A.U. after   13 cycles
 SCF Done:  E(RB3LYP) =  -537.653423923     A.U. after   12 cycles
 SCF Done:  E(RB3LYP) =  -537.653497739     A.U. after   12 cycles
 SCF Done:  E(RB3LYP) =  -537.653526209     A.U. after   10 cycles
 SCF Done:  E(RB3LYP) =  -537.653536515     A.U. after    9 cycles
 SCF Done:  E(RB3LYP) =  -537.653539725     A.U. after   10 cycles
 SCF Done:  E(RB3LYP) =  -537.653540254     A.U. after    8 cycles
 SCF Done:  E(RB3LYP) =  -537.653540399     A.U. after    8 cycles
 SCF Done:  E(RB3LYP) =  -537.653540449     A.U. after    8 cycles
 Optimization completed.
    -- Stationary point found.

 1\1\GINC-NODE104\FOpt\RB3LYP\6-31G(d)\C8H12O3\VSC10255\08-Dec-2020\0\\
 # opt freq B3LYP/6-31G(d) empiricaldispersion=gd3bj scf=xqc\\CID_20190
 587_JID_1979_neutraal\\0,1\C,1.0113616402,-0.1610511611,-0.1498637795\
 C,0.139725929,-0.6083292932,-1.291437002\C,-0.9605051616,-1.3582294115
 ,-1.1548514688\C,0.65052587,-0.2296646183,-2.6446145906\O,1.8013664176
 ,0.0300794847,-2.8972600725\O,-0.3739944963,-0.2268118997,-3.556050539
 9\O,0.1165966533,0.0620663809,-4.8912811151\C,-0.1908504798,-1.0738342
 352,-5.6974994387\C,0.7482518567,-2.2760933814,-5.5211016956\C,0.58232

 Normal termination of Gaussian 16 at Tue Dec  8 21:44:09 2020.

 --------------------------------------------------------------------
 #N Geom=AllCheck Guess=TCheck SCRF=Check GenChk RB3LYP/6-31G(d) Freq
 --------------------------------------------------------------------

 Structure from the checkpoint file:  "JID_1979.chk"
 ------------------------------
 CID_20190587_JID_1979_neutraal
 ------------------------------
 Charge =  0 Multiplicity = 1

 SCF Done:  E(RB3LYP) =  -537.653540449     A.U. after    1 cycles

  Exact polarizability: 105.582  -6.818  98.790   8.547  16.336  74.043
 Approx polarizability: 129.472  -5.847 154.681  13.963  40.417 124.991

                      1                      2                      3
                      A                      A                      A
 Frequencies --     28.5710                36.6406                52.1669
 Red. masses --      2.8916                 2.9755                 4.0926
 Frc consts  --      0.0014                 0.0024                 0.0066
 IR Inten    --      1.2690                 0.6949                 1.7734

                      4                      5                      6
                      A                      A                      A
 Frequencies --     65.3712                88.6918               162.5120
 Red. masses --      6.0362                 3.9750                 1.0906
 Frc consts  --      0.0152                 0.0184                 0.0170
 IR Inten    --      1.5141                 0.5327                 0.2890

                      7                      8                      9
                      A                      A                      A
 Frequencies --    171.7522               219.0986               287.9111
 Red. masses --      2.4653                 5.1926                 2.5587
 Frc consts  --      0.0428                 0.1469                 0.1250
 IR Inten    --      1.8344                 0.6443                 0.5512

                     10                     11                     12
                      A                      A                      A
 Frequencies --    296.0682               353.8110               372.2196
 Red. masses --      3.3251                 4.2836                 3.3279
 Frc consts  --      0.1717                 0.3159                 0.2717
 IR Inten    --      4.5191                 5.2432                 5.8398

                     13                     14                     15
                      A                      A                      A
 Frequencies --    383.1461               425.2145               483.7371
 Red. masses --      3.3968                 1.7907                 2.7487
 Frc consts  --      0.2938                 0.1908                 0.3790
 IR Inten    --      0.8363                 1.9325                 0.7564

                     16                     17                     18
                      A                      A                      A
 Frequencies --    527.6739               603.7988               653.0503
 Red. masses --      2.7614                 3.6685                 1.5333
 Frc consts  --      0.4530                 0.7880                 0.3853
 IR Inten    --      4.8408                 7.2100                13.9137

                     19                     20                     21
                      A                      A                      A
 Frequencies --    684.0504               809.8437               824.0771
 Red. masses --      1.5857                 2.5274                 2.6386
 Frc consts  --      0.4372                 0.9766                 1.0557
 IR Inten    --     12.9423                 6.8058                 9.4788

                     22                     23                     24
                      A                      A                      A
 Frequencies --    866.6695               889.7860               909.7707
 Red. masses --      3.9682                 2.3241                 5.6876
 Frc consts  --      1.7561                 1.0841                 2.7736
 IR Inten    --      2.2477                 1.8276                 6.0612

                     25                     26                     27
                      A                      A                      A
 Frequencies --    938.9383               965.8390               970.5609
 Red. masses --      1.3646                 1.4843                 1.8363
 Frc consts  --      0.7088                 0.8158                 1.0192
 IR Inten    --     38.4244                24.9765                15.1017

                     28                     29                     30
                      A                      A                      A
 Frequencies --    980.8052              1031.8421              1049.8177
 Red. masses --      1.9443                 1.4238                 1.4587
 Frc consts  --      1.1020                 0.8931                 0.9472
 IR Inten    --      6.7151                15.4027                25.0503

                     31                     32                     33
                      A                      A                      A
 Frequencies --   1061.8962              1083.5670              1087.7523
 Red. masses --      1.9866                 1.8829                 1.4777
 Frc consts  --      1.3198                 1.3025                 1.0301
 IR Inten    --     12.5748                36.4390                 0.0906

                     34                     35                     36
                      A                      A                      A
 Frequencies --   1138.0632              1154.4246              1277.6910
 Red. masses --      3.6725                 2.0442                 1.2469
 Frc consts  --      2.8025                 1.6051                 1.1993
 IR Inten    --    209.8142                12.8947                 1.8652

                     37                     38                     39
                      A                      A                      A
 Frequencies --   1312.5616              1334.3745              1337.7141
 Red. masses --      1.2322                 1.4955                 2.3500
 Frc consts  --      1.2508                 1.5689                 2.4777
 IR Inten    --      2.1314                13.0382                40.3500

                     40                     41                     42
                      A                      A                      A
 Frequencies --   1380.9038              1412.6025              1438.5267
 Red. masses --      1.3337                 1.2773                 1.2296
 Frc consts  --      1.4984                 1.5017                 1.4991
 IR Inten    --      0.5450                31.7369                 3.2209

                     43                     44                     45
                      A                      A                      A
 Frequencies --   1467.1047              1471.3660              1489.8894
 Red. masses --      1.2341                 1.1657                 1.0863
 Frc consts  --      1.5651                 1.4869                 1.4207
 IR Inten    --      4.0370                 3.1806                 3.4543

                     46                     47                     48
                      A                      A                      A
 Frequencies --   1501.9537              1503.8585              1521.7014
 Red. masses --      1.0447                 1.1305                 1.0531
 Frc consts  --      1.3885                 1.5064                 1.4367
 IR Inten    --      6.8324                 9.0788                13.7608

                     49                     50                     51
                      A                      A                      A
 Frequencies --   1718.5125              1730.6679              1836.4690
 Red. masses --      4.9765                 4.4119                12.5669
 Frc consts  --      8.6592                 7.7858                24.9715
 IR Inten    --      8.7869                 6.6044               208.5168

                     52                     53                     54
                      A                      A                      A
 Frequencies --   3042.5792              3055.3398              3057.5464
 Red. masses --      1.0622                 1.0585                 1.0370
 Frc consts  --      5.7934                 5.8219                 5.7119
 IR Inten    --     15.9021                36.3426                14.4467

                     55                     56                     57
                      A                      A                      A
 Frequencies --   3094.5278              3110.9625              3116.1654
 Red. masses --      1.1007                 1.1073                 1.0986
 Frc consts  --      6.2102                 6.3141                 6.2854
 IR Inten    --      9.2847                24.5362                10.8378

                     58                     59                     60
                      A                      A                      A
 Frequencies --   3145.6649              3152.9962              3177.1305
 Red. masses --      1.1039                 1.0602                 1.0621
 Frc consts  --      6.4360                 6.2097                 6.3169
 IR Inten    --     12.3994                10.2879                 8.0159

                     61                     62                     63
                      A                      A                      A
 Frequencies --   3188.7717              3235.8752              3270.7567
 Red. masses --      1.0908                 1.1146                 1.1146
 Frc consts  --      6.5348                 6.8762                 7.0254
 IR Inten    --      6.3519                20.3087                 4.7521

 - Thermochemistry -
 -------------------
 Temperature   298.150 Kelvin.  Pressure   1.00000 Atm.
 Atom     1 has atomic number  6 and mass  12.00000

 Molecular mass:   156.07864 amu.
 Principal axes and moments of inertia in atomic units:
                           1         2         3
     Eigenvalues --  1156.032162303.661012833.52138
           X            0.99994  -0.01005   0.00380
           Y            0.00998   0.99982   0.01617
           Z           -0.00396  -0.01613   0.99986
 This molecule is an asymmetric top.
 Rotational symmetry number  1.
 Warning -- assumption of classical behavior for rotation
           may cause significant error
 Rotational temperatures (Kelvin)      0.07492     0.03760     0.03057
 Rotational constants (GHZ):           1.56115     0.78342     0.63693
 Zero-point vibrational energy     496709.6 (Joules/Mol)
                                  118.71643 (Kcal/Mol)
 Warning -- explicit consideration of  17 degrees of freedom as
           vibrations may cause significant error
 Vibrational temperatures:     41.11    52.72    75.06    94.05   127.61
          (Kelvin)            233.82   247.11   315.23   414.24   425.98
                              509.06   535.54   551.26   611.79   695.99
                              759.20   868.73   939.59   984.20  1165.18
                             1185.66  1246.94  1280.20  1308.96  1350.92
                             1389.63  1396.42  1411.16  1484.59  1510.45
                             1527.83  1559.01  1565.03  1637.42  1660.96
                             1838.31  1888.48  1919.87  1924.67  1986.81
                             2032.42  2069.72  2110.84  2116.97  2143.62
                             2160.98  2163.72  2189.39  2472.56  2490.05
                             2642.27  4377.59  4395.95  4399.13  4452.34
                             4475.98  4483.47  4525.91  4536.46  4571.18
                             4587.93  4655.70  4705.89

 Zero-point correction=                           0.189187 (Hartree/Particle)
 Thermal correction to Energy=                    0.201702
 Thermal correction to Enthalpy=                  0.202646
 Thermal correction to Gibbs Free Energy=         0.148547
 Sum of electronic and zero-point Energies=           -537.464354
 Sum of electronic and thermal Energies=              -537.451839
 Sum of electronic and thermal Enthalpies=            -537.450894
 Sum of electronic and thermal Free Energies=         -537.504993

                     E (Thermal)             CV                S
                      KCal/Mol        Cal/Mol-Kelvin    Cal/Mol-Kelvin
 Total                  126.570             44.033            113.860
 Electronic               0.000              0.000              0.000
 Translational            0.889              2.981             41.045
 Rotational               0.889              2.981             30.402
 Vibrational            124.792             38.071             42.414
 Vibration     1          0.593              1.984              5.926
 Vibration     2          0.594              1.982              5.433
 Vibration     3          0.596              1.977              4.734
 Vibration     4          0.597              1.971              4.288
 Vibration     5          0.602              1.957              3.689
 Vibration     6          0.623              1.888              2.520
 Vibration     7          0.626              1.877              2.416
 Vibration     8          0.647              1.812              1.967
 Vibration     9          0.685              1.696              1.486
 Vibration    10          0.690              1.681              1.439
 Vibration    11          0.730              1.567              1.149
 Vibration    12          0.744              1.529              1.071
 Vibration    13          0.752              1.506              1.027
 Vibration    14          0.787              1.415              0.874
 Vibration    15          0.840              1.286              0.700
 Vibration    16          0.883              1.189              0.592
 Vibration    17          0.962              1.024              0.443

                           ! Non-Optimized Parameters !

 1\1\GINC-NODE104\Freq\RB3LYP\6-31G(d)\C8H12O3\VSC10255\08-Dec-2020\0\\
 #N Geom=AllCheck Guess=TCheck SCRF=Check GenChk RB3LYP/6-31G(d) Freq\\
 CID_20190587_JID_1979_neutraal\\0,1\C,1.0113616402,-0.1610511611,-0.14
 98637795\C,0.139725929,-0.6083292932,-1.291437002\C,-0.9605051616,-1.3
 582294115,-1.1548514688\C,0.65052587,-0.2296646183,-2.6446145906\O,1.8
 013664176,0.0300794847,-2.8972600725\O,-0.3739944963,-0.2268118997,-3.
 5560505399\O,0.1165966533,0.0620663809,-4.8912811151\C,-0.1908504798,-
 1.0738342352,-5.6974994387\C,0.7482518567,-2.2760933814,-5.5211016956\

 Normal termination of Gaussian 16 at Tue Dec  8 21:49:36 2020.

 ----------------------------------------------------------------------
 # B3LYP/6-311++G(d,p) empiricaldispersion=gd3bj scf=xqc pop=npa geom=c
 heck
 ----------------------------------------------------------------------

 --------------------------------------
 CID_20190587_JID_1979_Energie_neutraal
 --------------------------------------
 Structure from the checkpoint file:  "JID_1979.chk"
 Charge =  0 Multiplicity = 1

 SCF Done:  E(RB3LYP) =  -537.812087469     A.U. after   14 cycles
 Normal termination of Gaussian 16 at Tue Dec  8 21:51:42 2020.

 ----------------------------------------------------------------------
 # B3LYP/6-311++G(d,p) empiricaldispersion=gd3bj scf=xqc pop=npa geom=c
 heck
 ----------------------------------------------------------------------

 ------------------------------------
 CID_20190587_JID_1979_Energie_kation
 ------------------------------------
 Structure from the checkpoint file:  "JID_1979.chk"
 Charge =  1 Multiplicity = 2

 SCF Done:  E(UB3LYP) =  -537.474428108     A.U. after   26 cycles
 Normal termination of Gaussian 16 at Tue Dec  8 21:57:21 2020.
 Gaussian 16:  ES64L-G16RevA.03 25-Dec-2016

 -----------------------------------
 CID_20190587_JID_1979_Energie_anion
 -----------------------------------
 Structure from the checkpoint file:  "JID_1979.chk"
 Charge = -1 Multiplicity = 2

                         Standard orientation:
 ---------------------------------------------------------------------
 Center     Atomic      Atomic             Coordinates (Angstroms)
 Number     Number       Type             X           Y           Z
 ---------------------------------------------------------------------
      1          6           0       -3.336946    0.223883   -0.531177
      2          6           0       -2.051650    0.342026    0.241515
      3          6           0       -1.790937    1.304795    1.134049
      4          6           0       -1.010281   -0.663219   -0.133220
      5          8           0       -0.969903   -1.251762   -1.185701
      6          8           0       -0.106241   -0.814280    0.886711
      7          8           0        0.956728   -1.728295    0.510354
      8          6           0        2.174948   -0.988298    0.566267
      9          6           0        2.433833   -0.060961   -0.630178
     10          6           0        1.574149    1.175419   -0.676418
     11          6           0        1.937771    2.364910   -0.196098
     12          1           0       -4.026685    1.028843   -0.263868
     13          1           0       -3.826412   -0.737255   -0.334173
     14          1           0       -3.140400    0.260326   -1.607534
     15          1           0       -0.835582    1.371924    1.641386
     16          1           0       -2.532754    2.064702    1.364634
     17          1           0        2.227924   -0.437447    1.512912
     18          1           0        2.921255   -1.791445    0.583663
     19          1           0        3.490249    0.233385   -0.569505
     20          1           0        2.307698   -0.648366   -1.547016
     21          1           0        0.594750    1.067527   -1.136094
     22          1           0        1.275404    3.224947   -0.240452
     23          1           0        2.914553    2.526226    0.256696
 ---------------------------------------------------------------------

 SCF Done:  E(UB3LYP) =  -537.807040064     A.U. after   33 cycles
 SCF Done:  E(UB3LYP) =  -537.807040064     a.u. after    1 cycles

 The electronic state is 2-A.
 Alpha  occ. eigenvalues --  -19.06628 -19.06148 -18.95276 -10.13426 -10.11123
 Alpha  occ. eigenvalues --  -10.06134 -10.05982 -10.04823 -10.04165 -10.03595
 Alpha  occ. eigenvalues --  -10.01451  -1.01882  -0.89969  -0.81547  -0.68576
 Alpha  occ. eigenvalues --   -0.66252  -0.60911  -0.55922  -0.52405  -0.48180
 Alpha  occ. eigenvalues --   -0.44052  -0.42354  -0.37128  -0.36204  -0.36067
 Alpha  occ. eigenvalues --   -0.34333  -0.31452  -0.30998  -0.30637  -0.29427
 Alpha  occ. eigenvalues --   -0.28454  -0.27719  -0.26416  -0.24801  -0.23441
 Alpha  occ. eigenvalues --   -0.23020  -0.22273  -0.18737  -0.16651  -0.13824
 Alpha  occ. eigenvalues --   -0.13462  -0.12829   0.05305
 Alpha virt. eigenvalues --    0.07168   0.08715   0.09171   0.10327   0.10584
 Alpha virt. eigenvalues --    0.11240   0.11534   0.12476   0.12747   0.13077
 Alpha virt. eigenvalues --    0.13725   0.14378   0.14604   0.15888   0.17048

  Beta  occ. eigenvalues --  -19.06566 -19.06136 -18.95005 -10.13188 -10.11104
  Beta  occ. eigenvalues --  -10.06115 -10.05985 -10.04796 -10.04172 -10.03478
  Beta  occ. eigenvalues --  -10.01116  -1.01753  -0.89522  -0.81390  -0.68531
  Beta  occ. eigenvalues --   -0.65856  -0.60868  -0.55634  -0.52178  -0.47671
  Beta  occ. eigenvalues --   -0.43979  -0.42059  -0.36977  -0.36092  -0.35983
  Beta  occ. eigenvalues --   -0.34024  -0.31242  -0.30698  -0.30261  -0.29310
  Beta  occ. eigenvalues --   -0.28327  -0.27568  -0.26206  -0.24654  -0.23110
  Beta  occ. eigenvalues --   -0.22789  -0.22199  -0.18241  -0.16329  -0.13672
  Beta  occ. eigenvalues --   -0.12971  -0.11318
  Beta virt. eigenvalues --    0.08025   0.08768   0.09492   0.10255   0.10520
  Beta virt. eigenvalues --    0.10926   0.11425   0.11638   0.12566   0.13109
  Beta virt. eigenvalues --    0.13150   0.14081   0.14322   0.14532   0.15828

 Mulliken charges and spin densities:
               1          2
     1  C   -0.601508  -0.059092
     2  C    0.974726   0.076779
     3  C   -0.841627   0.382508
     4  C   -0.512467   0.103258
     5  O   -0.296947   0.097346
     6  O    0.025354   0.003707
     7  O   -0.040157   0.023791
     8  C    0.210741  -0.587197
     9  C    0.395752  -0.979639
    10  C   -0.777370   1.287770
    11  C    0.547612  -1.095667
    12  H    0.098781   0.016663
    13  H    0.133541  -0.002003
    14  H    0.123432   0.038793
    15  H    0.145354  -0.034350
    16  H    0.073748  -0.007345
    17  H    0.221674  -0.048458
    18  H   -0.255493   0.417384
    19  H   -0.525919   0.662549
    20  H    0.202437  -0.016085
    21  H   -0.035268   0.220392
    22  H    0.052369   0.053070
    23  H   -0.318765   0.445828
 Sum of Mulliken charges =  -1.00000   1.00000

 Dipole moment (field-independent basis, Debye):
    X=             -2.0313    Y=              0.1266    Z=              0.6967  Tot=              2.1512
 Quadrupole moment (field-independent basis, Debye-Ang):
   XX=           -109.8730   YY=            -94.5183   ZZ=            -84.8484
   XY=             -2.5541   XZ=              0.8746   YZ=             -1.6262

 Summary of Natural Population Analysis:

                                       Natural Population
                Natural  -----------------------------------------------
    Atom  No    Charge         Core      Valence    Rydberg      Total
 -----------------------------------------------------------------------
      C    1   -0.29270      0.99964     2.28755    0.00551     3.29270
      C    2   -0.05835      0.99948     2.04911    0.00976     3.05835
      C    3   -0.10579      0.99953     2.09807    0.00819     3.10579
      C    4    0.41022      0.99962     1.56336    0.02680     2.58978
      O    5   -0.28338      0.99987     3.27856    0.00496     4.28338
      O    6   -0.14816      0.99987     3.14057    0.00772     4.14816
      O    7   -0.15113      0.99990     3.14323    0.00801     4.15113
      C    8   -0.00918      0.99959     1.99504    0.01456     3.00918
      C    9   -0.22673      0.99960     2.21595    0.01118     3.22673
      C   10   -0.08217      0.99956     2.07212    0.01049     3.08217
      C   11   -0.19699      0.99956     2.19031    0.00712     3.19699
      H   12    0.09312      0.00000     0.40596    0.00092     0.40688
      H   13    0.09794      0.00000     0.40111    0.00094     0.40206
      H   14    0.10635      0.00000     0.39250    0.00115     0.39365
      H   15    0.09525      0.00000     0.40374    0.00100     0.40475
      H   16    0.07963      0.00000     0.41946    0.00091     0.42037
      H   17    0.08605      0.00000     0.41273    0.00123     0.41395
      H   18    0.09347      0.00000     0.40492    0.00162     0.40653
      H   19    0.10205      0.00000     0.39580    0.00215     0.39795
      H   20    0.10705      0.00000     0.39185    0.00110     0.39295
      H   21    0.10220      0.00000     0.39574    0.00206     0.39780
      H   22    0.09439      0.00000     0.40467    0.00093     0.40561
      H   23    0.08686      0.00000     0.41182    0.00132     0.41314
 =======================================================================
   * Total *    0.00000     10.99620    30.87418    0.12962    42.00000

 Normal termination of Gaussian 16 at Tue Dec  8 22:03:27 2020.
