 Gaussian 16, Revision A.03,

 -----------------------------------------------------------
 # opt freq B3LYP/6-31G(d) empiricaldispersion=gd3bj scf=xqc
 -----------------------------------------------------------

 -------------------------------
 CID_151070831_JID_3450_neutraal
 -------------------------------
 Symbolic Z-matrix:
 Charge =  0 Multiplicity = 1

 SCF Done:  E(RB3LYP) =  -997.111740635     A.U. after   19 cycles
 SCF Done:  E(RB3LYP) =  -997.129530016     A.U. after   15 cycles
 SCF Done:  E(RB3LYP) =  -997.140524416     A.U. after   14 cycles
 SCF Done:  E(RB3LYP) =  -997.146291400     A.U. after   15 cycles
 SCF Done:  E(RB3LYP) =  -997.149039720     A.U. after   14 cycles
 SCF Done:  E(RB3LYP) =  -997.149995416     A.U. after   14 cycles
 SCF Done:  E(RB3LYP) =  -997.150248093     A.U. after   12 cycles
 SCF Done:  E(RB3LYP) =  -997.150222049     A.U. after   12 cycles
 SCF Done:  E(RB3LYP) =  -997.150368242     A.U. after   12 cycles
 SCF Done:  E(RB3LYP) =  -997.150373842     A.U. after   10 cycles
 SCF Done:  E(RB3LYP) =  -997.150375572     A.U. after    9 cycles
 SCF Done:  E(RB3LYP) =  -997.150375948     A.U. after    8 cycles
 SCF Done:  E(RB3LYP) =  -997.150376067     A.U. after    8 cycles
 SCF Done:  E(RB3LYP) =  -997.150376118     A.U. after    7 cycles
 Optimization completed.
    -- Stationary point found.
 Normal termination of Gaussian 16 at Wed Dec  9 23:17:52 2020.

 --------------------------------------------------------------------
 #N Geom=AllCheck Guess=TCheck SCRF=Check GenChk RB3LYP/6-31G(d) Freq
 --------------------------------------------------------------------

 Structure from the checkpoint file:  "JID_3450.chk"
 -------------------------------
 CID_151070831_JID_3450_neutraal
 -------------------------------
 Charge =  0 Multiplicity = 1

 SCF Done:  E(RB3LYP) =  -997.150376118     A.U. after    1 cycles

  Exact polarizability: 132.253  -1.724 115.117   1.108   7.141  85.618
 Approx polarizability: 189.439  -9.266 206.561   3.009  29.959 143.669

                      1                      2                      3
                      A                      A                      A
 Frequencies --     55.2106                60.0782                77.0889
 Red. masses --      6.5360                 3.6893                 4.8652
 Frc consts  --      0.0117                 0.0078                 0.0170
 IR Inten    --      0.7903                 0.5451                 1.0051

                      4                      5                      6
                      A                      A                      A
 Frequencies --     91.0386               101.0566               135.8686
 Red. masses --      9.4323                 6.6816                 6.6968
 Frc consts  --      0.0461                 0.0402                 0.0728
 IR Inten    --      1.0652                 0.0525                 0.5213

                      7                      8                      9
                      A                      A                      A
 Frequencies --    156.8503               219.0198               239.2835
 Red. masses --      6.4889                 1.1798                 6.1785
 Frc consts  --      0.0941                 0.0333                 0.2084
 IR Inten    --      0.8789                 0.8015                 6.3777

                     10                     11                     12
                      A                      A                      A
 Frequencies --    283.5580               339.9180               362.1119
 Red. masses --      3.7358                 4.3436                 2.9298
 Frc consts  --      0.1770                 0.2957                 0.2263
 IR Inten    --      1.3915                 2.3524                 2.4207

                     13                     14                     15
                      A                      A                      A
 Frequencies --    392.5126               498.2934               515.0404
 Red. masses --      3.9236                 8.5899                 5.2928
 Frc consts  --      0.3562                 1.2566                 0.8272
 IR Inten    --     15.8538                 6.1846                10.3946

                     16                     17                     18
                      A                      A                      A
 Frequencies --    550.2061               576.5467               578.7045
 Red. masses --      4.1660                 9.2678                 6.2046
 Frc consts  --      0.7431                 1.8151                 1.2243
 IR Inten    --      7.8699                 8.6320                23.3056

                     19                     20                     21
                      A                      A                      A
 Frequencies --    629.4696               653.7752               691.0725
 Red. masses --      4.5191                 7.5649                 1.9725
 Frc consts  --      1.0550                 1.9051                 0.5550
 IR Inten    --     11.7448                 5.1572                49.0629

                     22                     23                     24
                      A                      A                      A
 Frequencies --    726.7558               734.3994               781.5613
 Red. masses --      5.2548                 4.4747                 2.1302
 Frc consts  --      1.6353                 1.4219                 0.7667
 IR Inten    --     16.9935                28.9116                 4.9177

                     25                     26                     27
                      A                      A                      A
 Frequencies --    830.8023               838.3407               859.7370
 Red. masses --      2.2618                 3.7147                 1.3600
 Frc consts  --      0.9198                 1.5382                 0.5923
 IR Inten    --     14.2068                15.2477                 0.9899

                     28                     29                     30
                      A                      A                      A
 Frequencies --    871.7075               961.0856               979.8021
 Red. masses --      5.4685                 2.8172                 2.2016
 Frc consts  --      2.4483                 1.5332                 1.2453
 IR Inten    --     38.8507                14.5812                25.5948

                     31                     32                     33
                      A                      A                      A
 Frequencies --   1063.5402              1101.4946              1126.9032
 Red. masses --      1.5180                 2.6540                 2.0057
 Frc consts  --      1.0116                 1.8972                 1.5007
 IR Inten    --     33.6645                51.6149                22.5841

                     34                     35                     36
                      A                      A                      A
 Frequencies --   1142.3097              1172.8534              1233.2237
 Red. masses --      1.8698                 1.7321                 5.6431
 Frc consts  --      1.4375                 1.4038                 5.0565
 IR Inten    --    170.2541                12.5350                51.8910

                     37                     38                     39
                      A                      A                      A
 Frequencies --   1286.8163              1314.5215              1320.8097
 Red. masses --      2.1874                 1.5399                11.2939
 Frc consts  --      2.1341                 1.5677                11.6084
 IR Inten    --    138.9711                20.1196               435.1322

                     40                     41                     42
                      A                      A                      A
 Frequencies --   1391.9193              1412.2234              1440.1295
 Red. masses --      1.5861                 1.3361                 1.2639
 Frc consts  --      1.8106                 1.5700                 1.5445
 IR Inten    --    100.1453                78.3762                16.3352

                     43                     44                     45
                      A                      A                      A
 Frequencies --   1457.7171              1509.4233              1518.6519
 Red. masses --      1.0962                 1.0849                 1.0421
 Frc consts  --      1.3724                 1.4563                 1.4161
 IR Inten    --     11.7427                21.4067                 3.0840

                     46                     47                     48
                      A                      A                      A
 Frequencies --   1531.6849              1653.3822              1808.3834
 Red. masses --      1.0556                 6.7642                12.8697
 Frc consts  --      1.4591                10.8947                24.7971
 IR Inten    --      2.4820                 8.0473               197.6636

                     49                     50                     51
                      A                      A                      A
 Frequencies --   2305.3184              3061.7039              3100.1283
 Red. masses --     13.9896                 1.0361                 1.0635
 Frc consts  --     43.8042                 5.7226                 6.0219
 IR Inten    --    592.6885                19.3657                14.7103

                     52                     53                     54
                      A                      A                      A
 Frequencies --   3132.0096              3138.6445              3159.9742
 Red. masses --      1.0991                 1.1031                 1.1054
 Frc consts  --      6.3521                 6.4028                 6.5032
 IR Inten    --     34.6792                 4.4870                28.7204

                     55                     56                     57
                      A                      A                      A
 Frequencies --   3254.2556              3277.0914              3469.7496
 Red. masses --      1.0874                 1.1038                 1.0769
 Frc consts  --      6.7847                 6.9840                 7.6391
 IR Inten    --      1.4203                 1.3280                 3.9061

 - Thermochemistry -
 -------------------
 Temperature   298.150 Kelvin.  Pressure   1.00000 Atm.
 Atom     1 has atomic number  6 and mass  12.00000

 Molecular mass:   200.04803 amu.
 Principal axes and moments of inertia in atomic units:
                           1         2         3
     Eigenvalues --  1651.790463429.360334312.96444
           X            0.99946   0.03122  -0.01021
           Y           -0.03153   0.99899  -0.03216
           Z            0.00920   0.03247   0.99943
 This molecule is an asymmetric top.
 Rotational symmetry number  1.
 Warning -- assumption of classical behavior for rotation
           may cause significant error
 Rotational temperatures (Kelvin)      0.05244     0.02526     0.02008
 Rotational constants (GHZ):           1.09260     0.52626     0.41845
 Zero-point vibrational energy     401800.3 (Joules/Mol)
                                   96.03257 (Kcal/Mol)
 Warning -- explicit consideration of  18 degrees of freedom as
           vibrations may cause significant error
 Vibrational temperatures:     79.44    86.44   110.91   130.98   145.40
          (Kelvin)            195.48   225.67   315.12   344.28   407.98
                              489.07   521.00   564.74   716.93   741.03
                              791.62   829.52   832.63   905.67   940.64
                              994.30  1045.64  1056.64  1124.49  1195.34
                             1206.19  1236.97  1254.19  1382.79  1409.72
                             1530.20  1584.81  1621.36  1643.53  1687.47
                             1774.33  1851.44  1891.30  1900.35  2002.66
                             2031.87  2072.03  2097.33  2171.72  2185.00
                             2203.75  2378.85  2601.86  3316.84  4405.11
                             4460.39  4506.26  4515.81  4546.50  4682.15
                             4715.00  4992.20

 Zero-point correction=                           0.153038 (Hartree/Particle)
 Thermal correction to Energy=                    0.165787
 Thermal correction to Enthalpy=                  0.166732
 Thermal correction to Gibbs Free Energy=         0.112766
 Sum of electronic and zero-point Energies=           -996.997338
 Sum of electronic and thermal Energies=              -996.984589
 Sum of electronic and thermal Enthalpies=            -996.983644
 Sum of electronic and thermal Free Energies=         -997.037610

                     E (Thermal)             CV                S
                      KCal/Mol        Cal/Mol-Kelvin    Cal/Mol-Kelvin
 Total                  104.033             45.968            113.580
 Electronic               0.000              0.000              0.000
 Translational            0.889              2.981             41.785
 Rotational               0.889              2.981             31.569
 Vibrational            102.256             40.007             40.226
 Vibration     1          0.596              1.975              4.621
 Vibration     2          0.597              1.973              4.455
 Vibration     3          0.599              1.964              3.964
 Vibration     4          0.602              1.956              3.638
 Vibration     5          0.604              1.948              3.434
 Vibration     6          0.614              1.918              2.861
 Vibration     7          0.621              1.895              2.587
 Vibration     8          0.647              1.812              1.967
 Vibration     9          0.657              1.780              1.808
 Vibration    10          0.682              1.704              1.512
 Vibration    11          0.720              1.596              1.213
 Vibration    12          0.736              1.550              1.113
 Vibration    13          0.760              1.486              0.991
 Vibration    14          0.854              1.254              0.662
 Vibration    15          0.870              1.217              0.622
 Vibration    16          0.905              1.139              0.544
 Vibration    17          0.933              1.082              0.492
 Vibration    18          0.935              1.077              0.488

 Optimization completed.
    -- Stationary point found.
 Normal termination of Gaussian 16 at Wed Dec  9 23:23:15 2020.

 ----------------------------------------------------------------------
 # B3LYP/6-311++G(d,p) empiricaldispersion=gd3bj scf=xqc pop=npa geom=c
 heck
 ----------------------------------------------------------------------

 ---------------------------------------
 CID_151070831_JID_3450_Energie_neutraal
 ---------------------------------------
 Structure from the checkpoint file:  "JID_3450.chk"
 Charge =  0 Multiplicity = 1

 SCF Done:  E(RB3LYP) =  -997.349497603     A.U. after   16 cycles
 Normal termination of Gaussian 16 at Wed Dec  9 23:25:42 2020.

 ----------------------------------------------------------------------
 # B3LYP/6-311++G(d,p) empiricaldispersion=gd3bj scf=xqc pop=npa geom=c
 heck
 ----------------------------------------------------------------------

 -------------------------------------
 CID_151070831_JID_3450_Energie_kation
 -------------------------------------
 Structure from the checkpoint file:  "JID_3450.chk"
 Charge =  1 Multiplicity = 2

 SCF Done:  E(UB3LYP) =  -997.063894955     A.U. after   22 cycles
 Normal termination of Gaussian 16 at Wed Dec  9 23:30:36 2020.
 Gaussian 16:  ES64L-G16RevA.03 25-Dec-2016

 ----------------------------------------------------------------------
 # B3LYP/6-311++G(d,p) empiricaldispersion=gd3bj scf=xqc pop=npa geom=c
 heck
 ----------------------------------------------------------------------

 ------------------------------------
 CID_151070831_JID_3450_Energie_anion
 ------------------------------------
 Structure from the checkpoint file:  "JID_3450.chk"
 Charge = -1 Multiplicity = 2

                         Standard orientation:
 ---------------------------------------------------------------------
 Center     Atomic      Atomic             Coordinates (Angstroms)
 Number     Number       Type             X           Y           Z
 ---------------------------------------------------------------------
      1          6           0        1.003930    2.728408   -0.838209
      2          6           0        0.899901    2.119221    0.559095
      3          7           0        0.294100    0.780097    0.565093
      4          6           0        0.971248   -0.364673    0.210371
      5          8           0        0.475989   -1.445313   -0.025482
      6          7           0        2.393305   -0.115348    0.199666
      7          7           0        3.064829   -1.117477   -0.100615
      8          7           0        3.765027   -1.968257   -0.365935
      9          7           0       -1.111389    0.788709    0.529915
     10          6           0       -1.737067   -0.146135    1.414919
     11          6           0       -2.539188   -1.041809    0.835506
     12         16           0       -2.549437   -0.896651   -0.924747
     13          7           0       -1.672113    0.668029   -0.793119
     14          1           0        1.660740    2.124096   -1.471510
     15          1           0        1.419062    3.740642   -0.777689
     16          1           0        0.021806    2.779120   -1.316109
     17          1           0        1.884556    2.042574    1.023030
     18          1           0        0.266233    2.729527    1.206812
     19          1           0       -1.504568   -0.057155    2.467589
     20          1           0       -3.078252   -1.835596    1.334842
     21          1           0       -2.415767    1.365366   -0.802292
 ---------------------------------------------------------------------

 SCF Done:  E(UB3LYP) =  -997.346317106     A.U. after   33 cycles
 SCF Done:  E(UB3LYP) =  -997.346317106     a.u. after    1 cycles

 The electronic state is 2-A.
 Alpha  occ. eigenvalues --  -88.74739 -18.97494 -14.33581 -14.27466 -14.25334
 Alpha  occ. eigenvalues --  -14.24907 -14.23792 -14.23340 -10.18108 -10.09315
 Alpha  occ. eigenvalues --  -10.09163 -10.08577 -10.04816  -7.83151  -5.79635
 Alpha  occ. eigenvalues --   -5.79209  -5.78465  -1.01472  -0.95371  -0.91074
 Alpha  occ. eigenvalues --   -0.84571  -0.81149  -0.69674  -0.67845  -0.64039
 Alpha  occ. eigenvalues --   -0.57537  -0.53246  -0.50355  -0.47851  -0.44276
 Alpha  occ. eigenvalues --   -0.39408  -0.38421  -0.38345  -0.37578  -0.35543
 Alpha  occ. eigenvalues --   -0.34140  -0.32648  -0.32268  -0.31084  -0.30674
 Alpha  occ. eigenvalues --   -0.28268  -0.26679  -0.25049  -0.24622  -0.22803
 Alpha  occ. eigenvalues --   -0.21918  -0.17792  -0.16636  -0.15465  -0.14655
 Alpha  occ. eigenvalues --   -0.13644  -0.08294   0.04839
 Alpha virt. eigenvalues --    0.07058   0.07744   0.08345   0.09219   0.09783
 Alpha virt. eigenvalues --    0.09902   0.10957   0.11269   0.12215   0.12941
 Alpha virt. eigenvalues --    0.13248   0.13912   0.14723   0.16596   0.17033

  Beta  occ. eigenvalues --  -88.74690 -18.97455 -14.33207 -14.27451 -14.25342
  Beta  occ. eigenvalues --  -14.24510 -14.23621 -14.23403 -10.17994 -10.09291
  Beta  occ. eigenvalues --  -10.09137 -10.08565 -10.04789  -7.83106  -5.79484
  Beta  occ. eigenvalues --   -5.79181  -5.78435  -1.00855  -0.95247  -0.90952
  Beta  occ. eigenvalues --   -0.84324  -0.80987  -0.69484  -0.67717  -0.63940
  Beta  occ. eigenvalues --   -0.57263  -0.53143  -0.50157  -0.47665  -0.44085
  Beta  occ. eigenvalues --   -0.39156  -0.38100  -0.37930  -0.36806  -0.35285
  Beta  occ. eigenvalues --   -0.33855  -0.32153  -0.31714  -0.30902  -0.30523
  Beta  occ. eigenvalues --   -0.28058  -0.26569  -0.24837  -0.24563  -0.22644
  Beta  occ. eigenvalues --   -0.21332  -0.17659  -0.16472  -0.15187  -0.14597
  Beta  occ. eigenvalues --   -0.13501  -0.08166
  Beta virt. eigenvalues --    0.07635   0.08277   0.08859   0.09483   0.10223
  Beta virt. eigenvalues --    0.10265   0.10505   0.11069   0.11622   0.12543
  Beta virt. eigenvalues --    0.13095   0.13504   0.14017   0.14720   0.16566

 Mulliken charges and spin densities:
               1          2
     1  C    0.598029  -0.999672
     2  C   -0.352834  -0.032567
     3  N   -0.079920  -0.137955
     4  C    0.056281  -0.025912
     5  O   -0.291077   0.007235
     6  N   -1.426244   0.817096
     7  N    1.513459  -0.543597
     8  N   -0.087322  -0.089271
     9  N    0.017805   0.362096
    10  C    0.243018  -0.283879
    11  C   -0.500113   0.121075
    12  S   -0.129135   0.114606
    13  N   -0.022860  -0.256002
    14  H    0.015249   0.121033
    15  H   -0.246740   0.360913
    16  H    0.001679   0.141905
    17  H   -0.043266   0.230717
    18  H   -0.376977   0.545675
    19  H   -0.056902   0.210454
    20  H    0.204330  -0.000396
    21  H   -0.036457   0.336445
 Sum of Mulliken charges =  -1.00000   1.00000

 Dipole moment (field-independent basis, Debye):
    X=             -2.3306    Y=             -0.6484    Z=              1.7983  Tot=              3.0143
 Quadrupole moment (field-independent basis, Debye-Ang):
   XX=           -125.8527   YY=           -121.5756   ZZ=            -97.7692
   XY=              9.6540   XZ=             -2.5026   YZ=             -3.6972

 Summary of Natural Population Analysis:

                                       Natural Population
                Natural  -----------------------------------------------
    Atom  No    Charge         Core      Valence    Rydberg      Total
 -----------------------------------------------------------------------
      C    1   -0.29382      0.99966     2.28893    0.00523     3.29382
      C    2   -0.08346      0.99961     2.07291    0.01093     3.08346
      N    3   -0.17058      0.99962     2.65692    0.01405     3.67058
      C    4    0.40569      0.99966     1.56922    0.02543     2.59431
      O    5   -0.31121      0.99987     3.30549    0.00585     4.31121
      N    6   -0.24168      0.99968     2.72980    0.01220     3.74168
      N    7    0.16388      0.99971     2.32021    0.01620     3.33612
      N    8    0.01923      0.99981     2.46858    0.01238     3.48077
      N    9   -0.09160      0.99970     2.57210    0.01980     3.59160
      C   10   -0.02659      0.99947     2.01245    0.01468     3.02659
      C   11   -0.19481      0.99947     2.18503    0.01031     3.19481
      S   12    0.20688      4.99958     2.77055    0.02299     7.79312
      N   13   -0.27897      0.99977     2.76333    0.01586     3.77897
      H   14    0.10149      0.00000     0.39748    0.00103     0.39851
      H   15    0.09601      0.00000     0.40271    0.00128     0.40399
      H   16    0.10395      0.00000     0.39450    0.00155     0.39605
      H   17    0.10602      0.00000     0.39227    0.00171     0.39398
      H   18    0.09827      0.00000     0.39946    0.00227     0.40173
      H   19    0.10487      0.00000     0.39396    0.00116     0.39513
      H   20    0.10849      0.00000     0.39082    0.00070     0.39151
      H   21    0.17793      0.00000     0.31922    0.00285     0.32207
 =======================================================================
   * Total *    0.00000     16.99561    34.80594    0.19844    52.00000

 Normal termination of Gaussian 16 at Wed Dec  9 23:37:54 2020.
