 Gaussian 16, Revision A.03,

 -----------------------------------------------------------
 # opt freq B3LYP/6-31G(d) empiricaldispersion=gd3bj scf=xqc
 -----------------------------------------------------------

 -------------------------------
 CID_129120214_JID_8825_neutraal
 -------------------------------
 Symbolic Z-matrix:
 Charge =  0 Multiplicity = 1

 SCF Done:  E(RB3LYP) =  -1197.77877665     A.U. after   16 cycles
 SCF Done:  E(RB3LYP) =  -1197.79288409     A.U. after   15 cycles
 SCF Done:  E(RB3LYP) =  -1197.79647108     A.U. after   13 cycles
 SCF Done:  E(RB3LYP) =  -1197.79700410     A.U. after   15 cycles
 SCF Done:  E(RB3LYP) =  -1197.79843977     A.U. after   13 cycles
 SCF Done:  E(RB3LYP) =  -1197.79866151     A.U. after   13 cycles
 SCF Done:  E(RB3LYP) =  -1197.79912621     A.U. after   12 cycles
 SCF Done:  E(RB3LYP) =  -1197.79941449     A.U. after   13 cycles
 SCF Done:  E(RB3LYP) =  -1197.79948918     A.U. after   13 cycles
 SCF Done:  E(RB3LYP) =  -1197.79954482     A.U. after   13 cycles
 SCF Done:  E(RB3LYP) =  -1197.79963402     A.U. after   10 cycles
 SCF Done:  E(RB3LYP) =  -1197.79963190     A.U. after   10 cycles
 SCF Done:  E(RB3LYP) =  -1197.79963570     A.U. after   10 cycles
 SCF Done:  E(RB3LYP) =  -1197.79963557     A.U. after    8 cycles
 SCF Done:  E(RB3LYP) =  -1197.79963548     A.U. after    7 cycles
 Optimization completed.
    -- Stationary point found.
 Normal termination of Gaussian 16 at Fri Dec 11 22:19:06 2020.

 --------------------------------------------------------------------
 #N Geom=AllCheck Guess=TCheck SCRF=Check GenChk RB3LYP/6-31G(d) Freq
 --------------------------------------------------------------------

 Structure from the checkpoint file:  "JID_8825.chk"
 -------------------------------
 CID_129120214_JID_8825_neutraal
 -------------------------------
 Charge =  0 Multiplicity = 1

 SCF Done:  E(RB3LYP) =  -1197.79963548     A.U. after    1 cycles

  Exact polarizability: 153.673  -8.185 165.336 -34.801   7.297 168.621
 Approx polarizability: 233.402 -11.548 288.603 -92.343  20.621 319.292

                      1                      2                      3
                      A                      A                      A
 Frequencies --     22.0738                28.2419                40.9344
 Red. masses --      6.7601                 6.2692                 5.9241
 Frc consts  --      0.0019                 0.0029                 0.0058
 IR Inten    --      3.5801                 0.3963                 5.7585

                      4                      5                      6
                      A                      A                      A
 Frequencies --     82.7536                99.4025               121.5275
 Red. masses --      5.1244                 3.4844                 4.2752
 Frc consts  --      0.0207                 0.0203                 0.0372
 IR Inten    --      0.0104                 2.3110                 2.0773

                      7                      8                      9
                      A                      A                      A
 Frequencies --    143.1010               151.2697               182.0938
 Red. masses --      3.1286                 6.9906                 1.7222
 Frc consts  --      0.0377                 0.0942                 0.0336
 IR Inten    --      3.9700                 3.7356                 0.8641

                     10                     11                     12
                      A                      A                      A
 Frequencies --    207.8900               269.6224               302.6293
 Red. masses --      2.4208                 9.1268                 4.8206
 Frc consts  --      0.0616                 0.3909                 0.2601
 IR Inten    --      5.6006                 0.6647                 0.7560

                     13                     14                     15
                      A                      A                      A
 Frequencies --    324.3933               342.3086               376.2161
 Red. masses --      2.7604                 5.1554                 4.1357
 Frc consts  --      0.1711                 0.3559                 0.3449
 IR Inten    --      1.5987                 2.4626                 1.2561

                     16                     17                     18
                      A                      A                      A
 Frequencies --    395.4031               404.5737               444.2462
 Red. masses --      5.9465                 7.1215                 5.4027
 Frc consts  --      0.5478                 0.6868                 0.6282
 IR Inten    --      0.8714                 5.4925                14.9122

                     19                     20                     21
                      A                      A                      A
 Frequencies --    470.9201               506.2401               515.5936
 Red. masses --      4.1718                 4.0040                 4.5478
 Frc consts  --      0.5451                 0.6046                 0.7123
 IR Inten    --      6.9844                 4.6368                 3.0228

                     22                     23                     24
                      A                      A                      A
 Frequencies --    523.9715               541.7749               580.7575
 Red. masses --      4.2244                 5.4400                 4.6322
 Frc consts  --      0.6833                 0.9408                 0.9205
 IR Inten    --     16.6991                 5.6048                 0.9076

                     25                     26                     27
                      A                      A                      A
 Frequencies --    620.8603               647.6387               692.9997
 Red. masses --      5.4694                 4.7009                 5.6799
 Frc consts  --      1.2422                 1.1617                 1.6072
 IR Inten    --      6.4024                15.4249                 4.8960

                     28                     29                     30
                      A                      A                      A
 Frequencies --    711.7300               722.8639               743.1298
 Red. masses --      5.6840                 4.8000                 3.0139
 Frc consts  --      1.6964                 1.4778                 0.9807
 IR Inten    --      2.6644                 4.8615                22.3963

                     31                     32                     33
                      A                      A                      A
 Frequencies --    758.2595               804.3356               826.4065
 Red. masses --      1.6105                 5.7689                 3.5436
 Frc consts  --      0.5456                 2.1990                 1.4259
 IR Inten    --     30.8039                32.1068                 3.2598

                     34                     35                     36
                      A                      A                      A
 Frequencies --    844.5202               857.0722               895.5318
 Red. masses --      1.8459                 1.3439                 3.5895
 Frc consts  --      0.7757                 0.5816                 1.6961
 IR Inten    --     33.7324                 3.7939                83.3806

                     37                     38                     39
                      A                      A                      A
 Frequencies --    926.3378               931.7736               937.3661
 Red. masses --      2.2212                 1.4757                 2.2037
 Frc consts  --      1.1230                 0.7549                 1.1408
 IR Inten    --      8.6112                 0.7635                25.4153

                     40                     41                     42
                      A                      A                      A
 Frequencies --    995.3607              1005.0316              1007.7923
 Red. masses --      1.2934                 1.3710                 2.8568
 Frc consts  --      0.7550                 0.8159                 1.7095
 IR Inten    --      0.1175                 2.2440                41.0338

                     43                     44                     45
                      A                      A                      A
 Frequencies --   1045.1043              1053.7873              1111.9094
 Red. masses --      2.2315                 2.4060                 3.4758
 Frc consts  --      1.4360                 1.5742                 2.5319
 IR Inten    --      8.8708                 5.7082                33.0311

                     46                     47                     48
                      A                      A                      A
 Frequencies --   1129.0188              1150.5777              1162.2172
 Red. masses --      3.3266                 2.6371                 2.5025
 Frc consts  --      2.4984                 2.0569                 1.9915
 IR Inten    --     35.0179                21.6604               111.3564

                     49                     50                     51
                      A                      A                      A
 Frequencies --   1178.6584              1182.8763              1205.4549
 Red. masses --      1.2558                 1.5380                 1.9583
 Frc consts  --      1.0279                 1.2679                 1.6766
 IR Inten    --      6.9317                10.0285                26.2269

                     52                     53                     54
                      A                      A                      A
 Frequencies --   1216.7778              1227.6576              1258.8524
 Red. masses --      1.5372                 1.4821                 1.3950
 Frc consts  --      1.3409                 1.3161                 1.3024
 IR Inten    --      6.7627                 4.7151                10.1416

                     55                     56                     57
                      A                      A                      A
 Frequencies --   1261.8768              1278.4873              1320.2533
 Red. masses --      1.8547                 2.0998                 2.4210
 Frc consts  --      1.7400                 2.0221                 2.4863
 IR Inten    --      8.2535                85.1223                28.9703

                     58                     59                     60
                      A                      A                      A
 Frequencies --   1331.2121              1387.6481              1429.9682
 Red. masses --      1.6898                 1.2890                 2.9367
 Frc consts  --      1.7644                 1.4624                 3.5380
 IR Inten    --     15.7079                34.1476                 1.1840

                     61                     62                     63
                      A                      A                      A
 Frequencies --   1456.2246              1471.3999              1486.4281
 Red. masses --      2.1908                 1.2094                 2.6049
 Frc consts  --      2.7373                 1.5428                 3.3909
 IR Inten    --     40.3578                 8.0094                 3.7941

                     64                     65                     66
                      A                      A                      A
 Frequencies --   1497.5063              1500.7010              1526.3158
 Red. masses --      2.1547                 1.0600                 1.1524
 Frc consts  --      2.8469                 1.4065                 1.5817
 IR Inten    --     55.9550                16.1935                13.5916

                     67                     68                     69
                      A                      A                      A
 Frequencies --   1539.0460              1579.8875              1583.5815
 Red. masses --      1.0512                 6.0038                 6.3116
 Frc consts  --      1.4671                 8.8293                 9.3254
 IR Inten    --      8.8907                 4.5603               149.6862

                     70                     71                     72
                      A                      A                      A
 Frequencies --   1675.1270              1677.2159              1784.6911
 Red. masses --      5.3665                 5.9199                10.5766
 Frc consts  --      8.8723                 9.8117                19.8483
 IR Inten    --     50.3167                17.2283               466.2723

                     73                     74                     75
                      A                      A                      A
 Frequencies --   3056.9841              3109.1213              3151.1603
 Red. masses --      1.0363                 1.0595                 1.0979
 Frc consts  --      5.7059                 6.0341                 6.4230
 IR Inten    --     39.7491                27.4428                18.1867

                     76                     77                     78
                      A                      A                      A
 Frequencies --   3169.3638              3182.0291              3185.7358
 Red. masses --      1.1089                 1.0900                 1.1087
 Frc consts  --      6.5628                 6.5025                 6.6294
 IR Inten    --      4.3600                10.0411                 5.7257

                     79                     80                     81
                      A                      A                      A
 Frequencies --   3209.1632              3232.9461              3234.5285
 Red. masses --      1.0895                 1.0936                 1.0939
 Frc consts  --      6.6107                 6.7346                 6.7432
 IR Inten    --      8.1607                 0.5065                 5.5934

                     82                     83                     84
                      A                      A                      A
 Frequencies --   3242.9839              3245.5213              3275.1898
 Red. masses --      1.0910                 1.0945                 1.0962
 Frc consts  --      6.7604                 6.7925                 6.9279
 IR Inten    --      0.6743                 0.9703                 0.7195

 - Thermochemistry -
 -------------------
 Temperature   298.150 Kelvin.  Pressure   1.00000 Atm.
 Atom     1 has atomic number  6 and mass  12.00000

 Molecular mass:   264.05686 amu.
 Principal axes and moments of inertia in atomic units:
                           1         2         3
     Eigenvalues --  3097.173476431.332666631.28894
           X            0.99975   0.01135   0.01922
           Y           -0.01120   0.99991  -0.00794
           Z           -0.01931   0.00772   0.99978
 This molecule is an asymmetric top.
 Rotational symmetry number  1.
 Warning -- assumption of classical behavior for rotation
           may cause significant error
 Rotational temperatures (Kelvin)      0.02797     0.01347     0.01306
 Rotational constants (GHZ):           0.58271     0.28062     0.27216
 Zero-point vibrational energy     604186.8 (Joules/Mol)
                                  144.40410 (Kcal/Mol)
 Warning -- explicit consideration of  24 degrees of freedom as
           vibrations may cause significant error
 Vibrational temperatures:     31.76    40.63    58.90   119.06   143.02
          (Kelvin)            174.85   205.89   217.64   261.99   299.11
                              387.93   435.42   466.73   492.51   541.29
                              568.90   582.09   639.17   677.55   728.37
                              741.82   753.88   779.49   835.58   893.28
                              931.81   997.07  1024.02  1040.04  1069.20
                             1090.97  1157.26  1189.01  1215.08  1233.14
                             1288.47  1332.79  1340.61  1348.66  1432.10
                             1446.02  1449.99  1503.67  1516.16  1599.79
                             1624.41  1655.42  1672.17  1695.83  1701.90
                             1734.38  1750.67  1766.33  1811.21  1815.56
                             1839.46  1899.55  1915.32  1996.52  2057.41
                             2095.18  2117.02  2138.64  2154.58  2159.17
                             2196.03  2214.34  2273.11  2278.42  2410.13
                             2413.14  2567.77  4398.32  4473.33  4533.82
                             4560.01  4578.23  4583.56  4617.27  4651.49
                             4653.77  4665.93  4669.58  4712.27

 Zero-point correction=                           0.230123 (Hartree/Particle)
 Thermal correction to Energy=                    0.246064
 Thermal correction to Enthalpy=                  0.247008
 Thermal correction to Gibbs Free Energy=         0.184716
 Sum of electronic and zero-point Energies=          -1197.569513
 Sum of electronic and thermal Energies=             -1197.553572
 Sum of electronic and thermal Enthalpies=           -1197.552627
 Sum of electronic and thermal Free Energies=        -1197.614920

                     E (Thermal)             CV                S
                      KCal/Mol        Cal/Mol-Kelvin    Cal/Mol-Kelvin
 Total                  154.407             60.519            131.105
 Electronic               0.000              0.000              0.000
 Translational            0.889              2.981             42.612
 Rotational               0.889              2.981             33.246
 Vibrational            152.630             54.557             55.247
 Vibration     1          0.593              1.985              6.438
 Vibration     2          0.593              1.984              5.949
 Vibration     3          0.594              1.981              5.213
 Vibration     4          0.600              1.961              3.824
 Vibration     5          0.604              1.950              3.466
 Vibration     6          0.609              1.931              3.076
 Vibration     7          0.616              1.910              2.762
 Vibration     8          0.619              1.901              2.656
 Vibration     9          0.630              1.864              2.307
 Vibration    10          0.641              1.829              2.062
 Vibration    11          0.674              1.729              1.599
 Vibration    12          0.694              1.669              1.402
 Vibration    13          0.709              1.627              1.288
 Vibration    14          0.721              1.591              1.201
 Vibration    15          0.747              1.521              1.054
 Vibration    16          0.762              1.480              0.980
 Vibration    17          0.770              1.460              0.946
 Vibration    18          0.804              1.374              0.813
 Vibration    19          0.828              1.315              0.735
 Vibration    20          0.861              1.236              0.643
 Vibration    21          0.871              1.215              0.620
 Vibration    22          0.879              1.197              0.601
 Vibration    23          0.897              1.158              0.561
 Vibration    24          0.937              1.073              0.484

                           ! Non-Optimized Parameters !
 Normal termination of Gaussian 16 at Fri Dec 11 22:31:32 2020.

 ----------------------------------------------------------------------
 # B3LYP/6-311++G(d,p) empiricaldispersion=gd3bj scf=xqc pop=npa geom=c
 heck
 ----------------------------------------------------------------------

 ---------------------------------------
 CID_129120214_JID_8825_Energie_neutraal
 ---------------------------------------
 Structure from the checkpoint file:  "JID_8825.chk"
 Charge =  0 Multiplicity = 1

 SCF Done:  E(RB3LYP) =  -1198.04485546     A.U. after   17 cycles
 Normal termination of Gaussian 16 at Fri Dec 11 22:37:54 2020.

 ----------------------------------------------------------------------
 # B3LYP/6-311++G(d,p) empiricaldispersion=gd3bj scf=xqc pop=npa geom=c
 heck
 ----------------------------------------------------------------------

 -------------------------------------
 CID_129120214_JID_8825_Energie_kation
 -------------------------------------
 Structure from the checkpoint file:  "JID_8825.chk"
 Charge =  1 Multiplicity = 2

 SCF Done:  E(UB3LYP) =  -1197.76166976     A.U. after   33 cycles
 SCF Done:  E(UB3LYP) =  -1197.76166976     a.u. after    1 cycles
 Normal termination of Gaussian 16 at Fri Dec 11 22:55:12 2020.
 Gaussian 16:  ES64L-G16RevA.03 25-Dec-2016

 ----------------------------------------------------------------------
 # B3LYP/6-311++G(d,p) empiricaldispersion=gd3bj scf=xqc pop=npa geom=c
 heck
 ----------------------------------------------------------------------

 ------------------------------------
 CID_129120214_JID_8825_Energie_anion
 ------------------------------------
 Structure from the checkpoint file:  "JID_8825.chk"
 Charge = -1 Multiplicity = 2

                         Standard orientation:
 ---------------------------------------------------------------------
 Center     Atomic      Atomic             Coordinates (Angstroms)
 Number     Number       Type             X           Y           Z
 ---------------------------------------------------------------------
      1          6           0        3.411512    2.194944    0.866691
      2          8           0        2.275167    1.804811    0.071173
      3          7           0        2.011366    0.452326    0.216375
      4          6           0        0.880408    0.137181    0.891312
      5          6           0        0.471968   -1.167854    1.003615
      6          6           0        1.273605   -2.161028    0.366445
      7          6           0        2.406587   -1.834644   -0.321124
      8          6           0        2.862889   -0.465945   -0.466050
      9          8           0        3.854104   -0.074377   -1.066994
     10          6           0       -0.827897   -1.482771    1.659765
     11          8           0       -1.931656   -1.648375    0.689685
     12          7           0       -1.939249   -0.665802   -0.282011
     13          6           0       -1.520617   -1.095726   -1.506561
     14          6           0       -1.500237   -0.246084   -2.574138
     15          6           0       -1.915051    1.092430   -2.362776
     16          6           0       -2.329001    1.498588   -1.121312
     17          6           0       -2.366463    0.624267    0.014975
     18         16           0       -2.851829    1.108315    1.550684
     19          1           0        3.498836    3.269918    0.700649
     20          1           0        4.309114    1.679941    0.520671
     21          1           0        3.222417    1.992647    1.927324
     22          1           0        0.331228    0.978006    1.300680
     23          1           0        0.965732   -3.202174    0.435737
     24          1           0        3.021580   -2.583409   -0.807159
     25          1           0       -0.826019   -2.460342    2.146454
     26          1           0       -1.128392   -0.711768    2.368919
     27          1           0       -1.222046   -2.134137   -1.535172
     28          1           0       -1.163625   -0.600166   -3.540422
     29          1           0       -1.902715    1.799139   -3.186972
     30          1           0       -2.648791    2.517015   -0.938144
 ---------------------------------------------------------------------

 SCF Done:  E(UB3LYP) =  -1198.06621350     A.U. after   25 cycles

 The electronic state is 2-A.
 Alpha  occ. eigenvalues --  -88.65393 -19.07234 -19.05778 -18.96600 -14.29351
 Alpha  occ. eigenvalues --  -14.29160 -10.15354 -10.12297 -10.11946 -10.11071
 Alpha  occ. eigenvalues --  -10.09467 -10.08901 -10.06617 -10.06277 -10.05947
 Alpha  occ. eigenvalues --  -10.05420 -10.04782 -10.04414  -7.74177  -5.70589
 Alpha  occ. eigenvalues --   -5.70025  -5.69699  -1.01053  -0.99600  -0.90769
 Alpha  occ. eigenvalues --   -0.80891  -0.80357  -0.70120  -0.67926  -0.67405
 Alpha  occ. eigenvalues --   -0.64883  -0.60383  -0.58413  -0.56261  -0.52488
 Alpha  occ. eigenvalues --   -0.52371  -0.50693  -0.47803  -0.44020  -0.41240
 Alpha  occ. eigenvalues --   -0.40261  -0.38798  -0.38265  -0.37620  -0.36931
 Alpha  occ. eigenvalues --   -0.36630  -0.35259  -0.33678  -0.32959  -0.31522
 Alpha  occ. eigenvalues --   -0.30662  -0.29897  -0.28923  -0.28421  -0.27594
 Alpha  occ. eigenvalues --   -0.25844  -0.25498  -0.24232  -0.22697  -0.22502
 Alpha  occ. eigenvalues --   -0.20127  -0.19119  -0.18069  -0.17255  -0.16668
 Alpha  occ. eigenvalues --   -0.14485  -0.10626  -0.07806  -0.07803   0.03156
 Alpha virt. eigenvalues --    0.06093   0.07738   0.08335   0.08867   0.09719
 Alpha virt. eigenvalues --    0.10025   0.10721   0.10847   0.11045   0.11589
 Alpha virt. eigenvalues --    0.11902   0.12477   0.13268   0.13617   0.14065

  Beta  occ. eigenvalues --  -88.65384 -19.07233 -19.05800 -18.96577 -14.29080
  Beta  occ. eigenvalues --  -14.28944 -10.15360 -10.12287 -10.11882 -10.11046
  Beta  occ. eigenvalues --  -10.09202 -10.08609 -10.06464 -10.06361 -10.06048
  Beta  occ. eigenvalues --  -10.05161 -10.04619 -10.04285  -7.74169  -5.70587
  Beta  occ. eigenvalues --   -5.69993  -5.69695  -1.00896  -0.99415  -0.90722
  Beta  occ. eigenvalues --   -0.80615  -0.80085  -0.69901  -0.67587  -0.67045
  Beta  occ. eigenvalues --   -0.64555  -0.60258  -0.58184  -0.56147  -0.52103
  Beta  occ. eigenvalues --   -0.52069  -0.50472  -0.47531  -0.43870  -0.41087
  Beta  occ. eigenvalues --   -0.40129  -0.38413  -0.38036  -0.37280  -0.36790
  Beta  occ. eigenvalues --   -0.36361  -0.35191  -0.33505  -0.32779  -0.31436
  Beta  occ. eigenvalues --   -0.30342  -0.29727  -0.28812  -0.28055  -0.27415
  Beta  occ. eigenvalues --   -0.25590  -0.25325  -0.24005  -0.22578  -0.21927
  Beta  occ. eigenvalues --   -0.19966  -0.18831  -0.17211  -0.16331  -0.15515
  Beta  occ. eigenvalues --   -0.14396  -0.09881  -0.07754  -0.07262
  Beta virt. eigenvalues --    0.07641   0.08091   0.08196   0.08514   0.08864
  Beta virt. eigenvalues --    0.09910   0.10463   0.10702   0.10953   0.11253
  Beta virt. eigenvalues --    0.11619   0.11887   0.12486   0.13276   0.13614

 Mulliken charges and spin densities:
               1          2
     1  C   -0.266943  -0.002774
     2  O    0.204242   0.001218
     3  N   -0.321194   0.053462
     4  C   -0.686484   0.167755
     5  C    0.592822  -0.031206
     6  C    0.284666   0.136676
     7  C   -0.433648   0.112098
     8  C    0.010349   0.014712
     9  O   -0.382582   0.007427
    10  C   -0.641056  -0.005073
    11  O    0.186480  -0.011924
    12  N   -0.025467   0.091823
    13  C    0.135099   0.200951
    14  C   -0.447670  -0.002766
    15  C   -0.077389   0.137695
    16  C   -0.305351   0.118737
    17  C    0.127290   0.031949
    18  S   -0.745340   0.015611
    19  H    0.129102   0.008703
    20  H    0.178853  -0.001027
    21  H    0.126102  -0.000734
    22  H    0.178721  -0.018059
    23  H    0.159913  -0.012103
    24  H    0.158478  -0.009727
    25  H    0.108483   0.034548
    26  H    0.169499  -0.006628
    27  H    0.176747  -0.020713
    28  H    0.132786   0.012291
    29  H    0.134316  -0.017038
    30  H    0.139176  -0.005885
 Sum of Mulliken charges =  -1.00000   1.00000

 Dipole moment (field-independent basis, Debye):
    X=              2.6973    Y=             -1.3734    Z=              0.2906  Tot=              3.0407
 Quadrupole moment (field-independent basis, Debye-Ang):
   XX=           -172.0631   YY=           -121.9861   ZZ=           -127.3923
   XY=              9.5748   XZ=             18.2959   YZ=             -0.7425

 Summary of Natural Population Analysis:

                                       Natural Population
                Natural  -----------------------------------------------
    Atom  No    Charge         Core      Valence    Rydberg      Total
 -----------------------------------------------------------------------
      C    1   -0.10185      0.99962     2.09470    0.00752     3.10185
      O    2   -0.20184      0.99989     3.19058    0.01136     4.20184
      N    3   -0.03806      0.99957     2.52417    0.01432     3.53806
      C    4    0.08901      0.99950     1.90067    0.01082     2.91099
      C    5   -0.11137      0.99950     2.10143    0.01044     3.11137
      C    6   -0.04538      0.99954     2.03678    0.00907     3.04538
      C    7   -0.12788      0.99953     2.11931    0.00904     3.12788
      C    8    0.30403      0.99961     1.67540    0.02095     2.69597
      O    9   -0.33716      0.99988     3.33052    0.00676     4.33716
      C   10   -0.02180      0.99952     2.01142    0.01085     3.02180
      O   11   -0.21183      0.99990     3.20195    0.00998     4.21183
      N   12   -0.01581      0.99952     2.50035    0.01594     3.51581
      C   13    0.08351      0.99955     1.90606    0.01088     2.91649
      C   14   -0.16169      0.99957     2.15305    0.00907     3.16169
      C   15   -0.03420      0.99956     2.02579    0.00884     3.03420
      C   16   -0.10475      0.99950     2.09481    0.01044     3.10475
      C   17    0.03415      0.99954     1.94949    0.01683     2.96585
      S   18   -0.16414      4.99959     3.15012    0.01443     8.16414
      H   19    0.08767      0.00000     0.41153    0.00080     0.41233
      H   20    0.09762      0.00000     0.40110    0.00128     0.40238
      H   21    0.07988      0.00000     0.41888    0.00124     0.42012
      H   22    0.11204      0.00000     0.38664    0.00131     0.38796
      H   23    0.09442      0.00000     0.40458    0.00100     0.40558
      H   24    0.09861      0.00000     0.39958    0.00181     0.40139
      H   25    0.09054      0.00000     0.40837    0.00109     0.40946
      H   26    0.10577      0.00000     0.39263    0.00160     0.39423
      H   27    0.10352      0.00000     0.39551    0.00097     0.39648
      H   28    0.10157      0.00000     0.39747    0.00096     0.39843
      H   29    0.09288      0.00000     0.40613    0.00100     0.40712
      H   30    0.10254      0.00000     0.39593    0.00153     0.39746
 =======================================================================
   * Total *    0.00000     21.99289    46.78494    0.22216    69.00000

 Normal termination of Gaussian 16 at Fri Dec 11 23:08:17 2020.
