 Gaussian 16, Revision A.03,

 -----------------------------------------------------------
 # opt freq B3LYP/6-31G(d) empiricaldispersion=gd3bj scf=xqc
 -----------------------------------------------------------

 -----------------------------
 CID_6903745_JID_6339_neutraal
 -----------------------------
 Symbolic Z-matrix:
 Charge =  0 Multiplicity = 1

 SCF Done:  E(RB3LYP) =  -1065.90629641     A.U. after   15 cycles
 SCF Done:  E(RB3LYP) =  -1065.90892926     A.U. after   12 cycles
 SCF Done:  E(RB3LYP) =  -1065.90872226     A.U. after   12 cycles
 SCF Done:  E(RB3LYP) =  -1065.90939931     A.U. after   11 cycles
 SCF Done:  E(RB3LYP) =  -1065.90953652     A.U. after   11 cycles
 SCF Done:  E(RB3LYP) =  -1065.90955509     A.U. after   11 cycles
 SCF Done:  E(RB3LYP) =  -1065.90958345     A.U. after   10 cycles
 SCF Done:  E(RB3LYP) =  -1065.90959632     A.U. after   10 cycles
 SCF Done:  E(RB3LYP) =  -1065.90960961     A.U. after   10 cycles
 SCF Done:  E(RB3LYP) =  -1065.90962784     A.U. after   10 cycles
 SCF Done:  E(RB3LYP) =  -1065.90971461     A.U. after   10 cycles
 SCF Done:  E(RB3LYP) =  -1065.90971925     A.U. after   10 cycles
 SCF Done:  E(RB3LYP) =  -1065.90971858     A.U. after   10 cycles
 SCF Done:  E(RB3LYP) =  -1065.90971974     A.U. after   10 cycles
 SCF Done:  E(RB3LYP) =  -1065.90971978     A.U. after    7 cycles
 SCF Done:  E(RB3LYP) =  -1065.90971980     A.U. after    7 cycles
 Optimization completed.
    -- Stationary point found.
 Normal termination of Gaussian 16 at Thu Dec 10 22:20:42 2020.

 --------------------------------------------------------------------
 #N Geom=AllCheck Guess=TCheck SCRF=Check GenChk RB3LYP/6-31G(d) Freq
 --------------------------------------------------------------------

 Structure from the checkpoint file:  "JID_6339.chk"
 -----------------------------
 CID_6903745_JID_6339_neutraal
 -----------------------------
 Charge =  0 Multiplicity = 1

 SCF Done:  E(RB3LYP) =  -1065.90971980     A.U. after    1 cycles

  Exact polarizability: 293.396  12.608 177.987   8.624  -6.674  78.201
 Approx polarizability: 422.993  25.979 282.757  17.909 -15.789 118.787

                      1                      2                      3
                      A                      A                      A
 Frequencies --     19.5428                34.4735                52.7149
 Red. masses --      4.5407                 4.1073                 5.6054
 Frc consts  --      0.0010                 0.0029                 0.0092
 IR Inten    --      0.8034                 0.8358                 1.1199

                      4                      5                      6
                      A                      A                      A
 Frequencies --     63.9379                88.8688               121.1140
 Red. masses --      5.6441                 2.7761                 5.5624
 Frc consts  --      0.0136                 0.0129                 0.0481
 IR Inten    --      0.8413                 0.0120                 2.2655

                      7                      8                      9
                      A                      A                      A
 Frequencies --    144.3094               189.8359               223.9437
 Red. masses --      4.5795                 5.5463                 3.9136
 Frc consts  --      0.0562                 0.1178                 0.1156
 IR Inten    --      0.3192                 6.5977                 5.4590

                     10                     11                     12
                      A                      A                      A
 Frequencies --    240.9175               247.9280               257.5275
 Red. masses --      1.0783                 2.8448                 2.3293
 Frc consts  --      0.0369                 0.1030                 0.0910
 IR Inten    --      0.1818                 1.4458                 3.2846

                     13                     14                     15
                      A                      A                      A
 Frequencies --    283.1496               310.7391               312.2599
 Red. masses --      1.7385                 2.7648                 4.9034
 Frc consts  --      0.0821                 0.1573                 0.2817
 IR Inten    --      0.8271                 0.8985                 1.4922

                     16                     17                     18
                      A                      A                      A
 Frequencies --    374.1080               377.0259               409.6789
 Red. masses --      4.7259                 1.1118                 3.0873
 Frc consts  --      0.3897                 0.0931                 0.3053
 IR Inten    --     14.5535               112.8678                 7.4353

                     19                     20                     21
                      A                      A                      A
 Frequencies --    436.9109               464.6817               470.9047
 Red. masses --      3.6092                 3.0511                 3.0475
 Frc consts  --      0.4059                 0.3882                 0.3982
 IR Inten    --      9.1452                 4.1004                 6.6473

                     22                     23                     24
                      A                      A                      A
 Frequencies --    485.6604               536.9632               558.3997
 Red. masses --      3.6308                 7.1122                 4.5489
 Frc consts  --      0.5046                 1.2082                 0.8357
 IR Inten    --     31.4421                 0.4943                 5.0431

                     25                     26                     27
                      A                      A                      A
 Frequencies --    584.2968               614.0893               621.6016
 Red. masses --      1.4742                 4.4511                 4.8509
 Frc consts  --      0.2965                 0.9890                 1.1043
 IR Inten    --      2.2470                 0.0503                43.1367

                     28                     29                     30
                      A                      A                      A
 Frequencies --    642.8881               665.5659               698.3196
 Red. masses --      1.5725                 2.7747                 2.3414
 Frc consts  --      0.3829                 0.7242                 0.6727
 IR Inten    --     89.8106                25.9688                 8.4010

                     31                     32                     33
                      A                      A                      A
 Frequencies --    791.0870               793.8460               855.4865
 Red. masses --      5.7001                 1.4047                 2.3268
 Frc consts  --      2.1017                 0.5216                 1.0033
 IR Inten    --     14.9158                27.2772                 7.1126

                     34                     35                     36
                      A                      A                      A
 Frequencies --    860.0449               887.3053               926.6987
 Red. masses --      1.5651                 1.3753                 2.8144
 Frc consts  --      0.6821                 0.6380                 1.4240
 IR Inten    --     18.4158                 1.1936                 9.9785

                     37                     38                     39
                      A                      A                      A
 Frequencies --    942.9428               961.6741               963.3294
 Red. masses --      1.2227                 1.4726                 1.4300
 Frc consts  --      0.6405                 0.8024                 0.7819
 IR Inten    --      3.6795                10.1544                 0.7319

                     40                     41                     42
                      A                      A                      A
 Frequencies --    973.2734               998.7359              1017.2315
 Red. masses --      1.3135                 3.0806                 6.1604
 Frc consts  --      0.7331                 1.8104                 3.7557
 IR Inten    --      4.5344                 3.2773                 1.4447

                     43                     44                     45
                      A                      A                      A
 Frequencies --   1028.5314              1105.9519              1119.4724
 Red. masses --      3.3026                 2.4689                 2.0332
 Frc consts  --      2.0585                 1.7792                 1.5013
 IR Inten    --     48.4404                29.8220                15.4275

                     46                     47                     48
                      A                      A                      A
 Frequencies --   1158.5584              1171.7544              1195.3364
 Red. masses --      2.0486                 2.6247                 1.1903
 Frc consts  --      1.6201                 2.1232                 1.0020
 IR Inten    --     17.1936               176.3290                50.7698

                     49                     50                     51
                      A                      A                      A
 Frequencies --   1202.8464              1214.5138              1222.0486
 Red. masses --      1.8567                 1.3766                 1.9069
 Frc consts  --      1.5828                 1.1964                 1.6778
 IR Inten    --     55.7786               212.5753                30.5830

                     52                     53                     54
                      A                      A                      A
 Frequencies --   1236.6798              1314.9891              1351.3189
 Red. masses --      2.3876                 2.0491                 1.3666
 Frc consts  --      2.1514                 2.0877                 1.4703
 IR Inten    --    246.2035                65.0372                 5.9354

                     55                     56                     57
                      A                      A                      A
 Frequencies --   1366.8535              1381.9155              1393.0044
 Red. masses --      1.6293                 3.8747                 1.2586
 Frc consts  --      1.7935                 4.3597                 1.4389
 IR Inten    --      0.5012                 1.2764                 1.5805

                     58                     59                     60
                      A                      A                      A
 Frequencies --   1409.3311              1425.6671              1446.3900
 Red. masses --      1.7011                 1.2756                 1.2473
 Frc consts  --      1.9907                 1.5275                 1.5375
 IR Inten    --    102.8694                 9.5087                 8.7046

                     61                     62                     63
                      A                      A                      A
 Frequencies --   1478.9186              1506.4619              1513.4725
 Red. masses --      1.3914                 3.1134                 1.0815
 Frc consts  --      1.7931                 4.1630                 1.4596
 IR Inten    --     54.5010                92.6672                15.3621

                     64                     65                     66
                      A                      A                      A
 Frequencies --   1518.4374              1528.0813              1531.2242
 Red. masses --      1.0451                 1.7459                 1.5083
 Frc consts  --      1.4198                 2.4020                 2.0836
 IR Inten    --      5.1122               268.5432               186.2042

                     67                     68                     69
                      A                      A                      A
 Frequencies --   1540.2611              1557.7416              1602.2424
 Red. masses --      1.0485                 2.7511                 1.7443
 Frc consts  --      1.4656                 3.9332                 2.6383
 IR Inten    --      8.6313                44.8983               381.0811

                     70                     71                     72
                      A                      A                      A
 Frequencies --   1650.7748              1662.8221              1686.5246
 Red. masses --      5.9711                 5.7263                 7.1056
 Frc consts  --      9.5869                 9.3286                11.9080
 IR Inten    --     71.7158                25.5740                 7.6786

                     73                     74                     75
                      A                      A                      A
 Frequencies --   3044.4956              3049.0800              3062.1544
 Red. masses --      1.0383                 1.0392                 1.0865
 Frc consts  --      5.6701                 5.6922                 6.0026
 IR Inten    --     15.8124                30.7680                42.0244

                     76                     77                     78
                      A                      A                      A
 Frequencies --   3106.9170              3111.3069              3136.6325
 Red. masses --      1.1008                 1.0959                 1.1035
 Frc consts  --      6.2604                 6.2502                 6.3963
 IR Inten    --     17.2676                16.5286                20.0192

                     79                     80                     81
                      A                      A                      A
 Frequencies --   3148.4796              3152.9426              3190.7842
 Red. masses --      1.0946                 1.0933                 1.0871
 Frc consts  --      6.3928                 6.4038                 6.5209
 IR Inten    --     19.1496                25.7932                 5.7705

                     82                     83                     84
                      A                      A                      A
 Frequencies --   3204.0609              3206.5903              3224.5653
 Red. masses --      1.0897                 1.0922                 1.0946
 Frc consts  --      6.5911                 6.6166                 6.7058
 IR Inten    --      8.4759                15.8294                 9.4109

                     85                     86                     87
                      A                      A                      A
 Frequencies --   3499.4279              3596.0003              3750.1707
 Red. masses --      1.0764                 1.0762                 1.0659
 Frc consts  --      7.7666                 8.1991                 8.8319
 IR Inten    --     12.3909                44.9083                30.3254

 - Thermochemistry -
 -------------------
 Temperature   298.150 Kelvin.  Pressure   1.00000 Atm.
 Atom     1 has atomic number  6 and mass  12.00000

 Molecular mass:   237.09358 amu.
 Principal axes and moments of inertia in atomic units:
                           1         2         3
     Eigenvalues --  2280.368198018.324569959.48862
           X            0.99962  -0.02731  -0.00281
           Y            0.02730   0.99963  -0.00180
           Z            0.00285   0.00173   0.99999
 This molecule is an asymmetric top.
 Rotational symmetry number  1.
 Warning -- assumption of classical behavior for rotation
           may cause significant error
 Rotational temperatures (Kelvin)      0.03798     0.01080     0.00870
 Rotational constants (GHZ):           0.79143     0.22508     0.18121
 Zero-point vibrational energy     666976.4 (Joules/Mol)
                                  159.41119 (Kcal/Mol)
 Warning -- explicit consideration of  26 degrees of freedom as
           vibrations may cause significant error
 Vibrational temperatures:     28.12    49.60    75.84    91.99   127.86
          (Kelvin)            174.26   207.63   273.13   322.21   346.63
                              356.71   370.52   407.39   447.08   449.27
                              538.26   542.46   589.44   628.62   668.57
                              677.53   698.76   772.57   803.41   840.67
                              883.54   894.35   924.97   957.60  1004.73
                             1138.20  1142.17  1230.85  1237.41  1276.63
                             1333.31  1356.68  1383.63  1386.02  1400.32
                             1436.96  1463.57  1479.83  1591.22  1610.67
                             1666.91  1685.89  1719.82  1730.63  1747.41
                             1758.26  1779.31  1891.98  1944.25  1966.60
                             1988.27  2004.22  2027.71  2051.22  2081.03
                             2127.83  2167.46  2177.55  2184.69  2198.57
                             2203.09  2216.09  2241.24  2305.27  2375.10
                             2392.43  2426.53  4380.35  4386.95  4405.76
                             4470.16  4476.48  4512.91  4529.96  4536.38
                             4590.83  4609.93  4613.57  4639.43  5034.90
                             5173.84  5395.66

 Zero-point correction=                           0.254038 (Hartree/Particle)
 Thermal correction to Energy=                    0.270349
 Thermal correction to Enthalpy=                  0.271294
 Thermal correction to Gibbs Free Energy=         0.208494
 Sum of electronic and zero-point Energies=          -1065.655682
 Sum of electronic and thermal Energies=             -1065.639370
 Sum of electronic and thermal Enthalpies=           -1065.638426
 Sum of electronic and thermal Free Energies=        -1065.701226

                     E (Thermal)             CV                S
                      KCal/Mol        Cal/Mol-Kelvin    Cal/Mol-Kelvin
 Total                  169.647             61.269            132.172
 Electronic               0.000              0.000              0.000
 Translational            0.889              2.981             42.291
 Rotational               0.889              2.981             33.565
 Vibrational            167.869             55.308             56.316
 Vibration     1          0.593              1.986              6.680
 Vibration     2          0.594              1.983              5.554
 Vibration     3          0.596              1.977              4.713
 Vibration     4          0.597              1.972              4.332
 Vibration     5          0.602              1.957              3.685
 Vibration     6          0.609              1.932              3.083
 Vibration     7          0.616              1.909              2.746
 Vibration     8          0.633              1.854              2.229
 Vibration     9          0.649              1.805              1.927
 Vibration    10          0.658              1.778              1.796
 Vibration    11          0.662              1.766              1.745
 Vibration    12          0.667              1.750              1.678
 Vibration    13          0.682              1.705              1.515
 Vibration    14          0.700              1.653              1.358
 Vibration    15          0.701              1.650              1.350
 Vibration    16          0.745              1.525              1.063
 Vibration    17          0.748              1.519              1.051
 Vibration    18          0.774              1.449              0.928
 Vibration    19          0.797              1.390              0.836
 Vibration    20          0.822              1.328              0.753
 Vibration    21          0.828              1.315              0.735
 Vibration    22          0.842              1.282              0.695
 Vibration    23          0.892              1.168              0.572
 Vibration    24          0.914              1.121              0.527
 Vibration    25          0.941              1.065              0.477
 Vibration    26          0.973              1.002              0.426

 Optimization completed.
    -- Stationary point found.
 Normal termination of Gaussian 16 at Thu Dec 10 22:30:16 2020.

 ----------------------------------------------------------------------
 # B3LYP/6-311++G(d,p) empiricaldispersion=gd3bj scf=xqc pop=npa geom=c
 heck
 ----------------------------------------------------------------------

 -------------------------------------
 CID_6903745_JID_6339_Energie_neutraal
 -------------------------------------
 Structure from the checkpoint file:  "JID_6339.chk"
 Charge =  0 Multiplicity = 1

 SCF Done:  E(RB3LYP) =  -1066.12943848     A.U. after   16 cycles
 Normal termination of Gaussian 16 at Thu Dec 10 22:35:17 2020.

 ----------------------------------------------------------------------
 # B3LYP/6-311++G(d,p) empiricaldispersion=gd3bj scf=xqc pop=npa geom=c
 heck
 ----------------------------------------------------------------------

 -----------------------------------
 CID_6903745_JID_6339_Energie_kation
 -----------------------------------
 Structure from the checkpoint file:  "JID_6339.chk"
 Charge =  1 Multiplicity = 2

 SCF Done:  E(UB3LYP) =  -1065.85577734     A.U. after   30 cycles
 Normal termination of Gaussian 16 at Thu Dec 10 22:49:18 2020.
 Gaussian 16:  ES64L-G16RevA.03 25-Dec-2016

 ----------------------------------------------------------------------
 # B3LYP/6-311++G(d,p) empiricaldispersion=gd3bj scf=xqc pop=npa geom=c
 heck
 ----------------------------------------------------------------------

 ----------------------------------
 CID_6903745_JID_6339_Energie_anion
 ----------------------------------
 Structure from the checkpoint file:  "JID_6339.chk"
 Charge = -1 Multiplicity = 2

                         Standard orientation:
 ---------------------------------------------------------------------
 Center     Atomic      Atomic             Coordinates (Angstroms)
 Number     Number       Type             X           Y           Z
 ---------------------------------------------------------------------
      1          6           0       -1.190386    2.300462   -0.838046
      2          6           0       -1.961827    1.676418    0.327864
      3          6           0       -2.778487    2.714988    1.101087
      4          7           0       -2.883167    0.633756   -0.155610
      5          6           0       -2.819280   -0.712672   -0.101781
      6         16           0       -4.174567   -1.684798   -0.357502
      7          7           0       -1.625784   -1.334044    0.181328
      8          7           0       -0.405150   -0.748556    0.076564
      9          6           0        0.621156   -1.511062    0.217214
     10          6           0        1.985507   -0.999148    0.134777
     11          6           0        2.245479    0.362005   -0.096599
     12          6           0        3.558011    0.817533   -0.170695
     13          6           0        4.629460   -0.073608   -0.012072
     14          6           0        4.368686   -1.419813    0.218282
     15          6           0        3.056731   -1.889332    0.292333
     16          8           0        3.868144    2.128607   -0.396066
     17          1           0       -1.876937    2.778889   -1.546172
     18          1           0       -0.624615    1.531649   -1.369507
     19          1           0       -0.496112    3.066350   -0.470950
     20          1           0       -1.255323    1.198925    1.006076
     21          1           0       -3.524214    3.191574    0.451626
     22          1           0       -3.300739    2.255297    1.945830
     23          1           0       -2.123235    3.503612    1.485007
     24          1           0       -3.812211    0.950232   -0.403953
     25          1           0       -1.694797   -2.349936    0.215633
     26          1           0        0.505145   -2.586044    0.406199
     27          1           0        1.413498    1.049279   -0.218892
     28          1           0        5.643015    0.307962   -0.073901
     29          1           0        5.196873   -2.111505    0.340814
     30          1           0        2.860479   -2.942572    0.471405
     31          1           0        3.045492    2.631476   -0.500819
 ---------------------------------------------------------------------

 SCF Done:  E(UB3LYP) =  -1066.15184934     A.U. after   23 cycles

 The electronic state is 2-A.
 Alpha  occ. eigenvalues --  -88.66034 -19.04121 -14.25083 -14.22725 -14.18438
 Alpha  occ. eigenvalues --  -10.15258 -10.11431 -10.10578 -10.08107 -10.06340
 Alpha  occ. eigenvalues --  -10.05065 -10.04401 -10.04135 -10.03432 -10.02937
 Alpha  occ. eigenvalues --  -10.02935  -7.74817  -5.71249  -5.70595  -5.70399
 Alpha  occ. eigenvalues --   -0.95003  -0.89951  -0.83326  -0.73611  -0.71529
 Alpha  occ. eigenvalues --   -0.68118  -0.62764  -0.61104  -0.60176  -0.58527
 Alpha  occ. eigenvalues --   -0.52205  -0.50712  -0.50081  -0.49276  -0.45365
 Alpha  occ. eigenvalues --   -0.41942  -0.40465  -0.39306  -0.37111  -0.36469
 Alpha  occ. eigenvalues --   -0.35340  -0.33416  -0.32529  -0.31082  -0.30842
 Alpha  occ. eigenvalues --   -0.30422  -0.29606  -0.29171  -0.29079  -0.27007
 Alpha  occ. eigenvalues --   -0.26591  -0.25083  -0.24157  -0.23489  -0.23397
 Alpha  occ. eigenvalues --   -0.21656  -0.20895  -0.15191  -0.15095  -0.11343
 Alpha  occ. eigenvalues --   -0.10605  -0.09400  -0.08039   0.03143
 Alpha virt. eigenvalues --    0.06619   0.08104   0.08723   0.09141   0.09947
 Alpha virt. eigenvalues --    0.10410   0.10924   0.11459   0.11637   0.12150
 Alpha virt. eigenvalues --    0.12670   0.12759   0.13375   0.13851   0.14016

  Beta  occ. eigenvalues --  -88.66014 -19.04139 -14.25170 -14.22679 -14.17889
  Beta  occ. eigenvalues --  -10.15052 -10.11428 -10.10668 -10.08107 -10.06328
  Beta  occ. eigenvalues --  -10.04801 -10.04400 -10.04044 -10.03352 -10.02724
  Beta  occ. eigenvalues --  -10.02664  -7.74799  -5.71246  -5.70529  -5.70385
  Beta  occ. eigenvalues --   -0.95040  -0.89576  -0.83069  -0.73202  -0.71236
  Beta  occ. eigenvalues --   -0.67977  -0.62309  -0.60848  -0.60158  -0.58327
  Beta  occ. eigenvalues --   -0.51683  -0.50592  -0.49997  -0.49073  -0.45093
  Beta  occ. eigenvalues --   -0.41824  -0.40387  -0.39016  -0.37067  -0.36245
  Beta  occ. eigenvalues --   -0.35230  -0.33234  -0.32383  -0.30805  -0.30573
  Beta  occ. eigenvalues --   -0.30319  -0.29290  -0.29016  -0.28876  -0.26886
  Beta  occ. eigenvalues --   -0.26389  -0.25040  -0.23971  -0.23310  -0.22440
  Beta  occ. eigenvalues --   -0.21482  -0.20027  -0.14516  -0.14049  -0.10469
  Beta  occ. eigenvalues --   -0.09879  -0.09266  -0.06984
  Beta virt. eigenvalues --    0.06559   0.08044   0.08528   0.08716   0.09456
  Beta virt. eigenvalues --    0.09929   0.10366   0.11313   0.11467   0.11623
  Beta virt. eigenvalues --    0.12305   0.12793   0.13094   0.13550   0.13803

 Mulliken charges and spin densities:
               1          2
     1  C   -0.435391  -0.041376
     2  C    0.033057  -0.013415
     3  C   -0.580057  -0.013924
     4  N   -0.027823   0.034179
     5  C    0.238528   0.119676
     6  S   -0.974350   0.046558
     7  N    0.197837  -0.065118
     8  N   -0.103533   0.267263
     9  C   -0.528093   0.152327
    10  C    0.955765   0.034676
    11  C    0.080295   0.242930
    12  C   -0.769538  -0.042958
    13  C    0.011668   0.211861
    14  C   -0.379037   0.007988
    15  C   -0.692818   0.059901
    16  O   -0.240266  -0.002148
    17  H    0.100943   0.024470
    18  H    0.193082   0.029666
    19  H    0.081233   0.005132
    20  H    0.243877  -0.000270
    21  H    0.120307   0.005240
    22  H    0.162640  -0.000087
    23  H    0.131222   0.000300
    24  H    0.257243   0.000523
    25  H    0.229436  -0.000398
    26  H    0.041835  -0.022210
    27  H    0.056305  -0.022770
    28  H    0.135253  -0.017555
    29  H    0.115336  -0.001431
    30  H    0.094595  -0.001061
    31  H    0.250449   0.002030
 Sum of Mulliken charges =  -1.00000   1.00000

 Dipole moment (field-independent basis, Debye):
    X=              0.3545    Y=              5.0917    Z=              1.1737  Tot=              5.2373
 Quadrupole moment (field-independent basis, Debye-Ang):
   XX=           -187.1565   YY=           -115.6513   ZZ=           -116.6405
   XY=            -19.7796   XZ=             -3.4190   YZ=             -1.8934

 Summary of Natural Population Analysis:

                                       Natural Population
                Natural  -----------------------------------------------
    Atom  No    Charge         Core      Valence    Rydberg      Total
 -----------------------------------------------------------------------
      C    1   -0.28798      0.99964     2.28297    0.00537     3.28798
      C    2   -0.01753      0.99961     2.00745    0.01047     3.01753
      C    3   -0.28678      0.99965     2.28301    0.00412     3.28678
      N    4   -0.31020      0.99962     2.79624    0.01434     3.81020
      C    5    0.18668      0.99967     1.79412    0.01953     2.81332
      S    6   -0.18701      4.99962     3.17328    0.01411     8.18701
      N    7   -0.21990      0.99963     2.70745    0.01281     3.71990
      N    8   -0.08305      0.99962     2.56891    0.01451     3.58305
      C    9    0.07250      0.99961     1.91451    0.01338     2.92750
      C   10   -0.02107      0.99952     2.01253    0.00902     3.02107
      C   11   -0.09347      0.99948     2.08602    0.00797     3.09347
      C   12    0.13808      0.99939     1.85050    0.01203     2.86192
      C   13   -0.08615      0.99953     2.07662    0.01000     3.08615
      C   14   -0.10545      0.99958     2.09670    0.00917     3.10545
      C   15   -0.09439      0.99954     2.08613    0.00873     3.09439
      O   16   -0.35068      0.99988     3.34453    0.00628     4.35068
      H   17    0.09133      0.00000     0.40731    0.00135     0.40867
      H   18    0.11621      0.00000     0.38219    0.00160     0.38379
      H   19    0.09168      0.00000     0.40749    0.00084     0.40832
      H   20    0.11422      0.00000     0.38414    0.00164     0.38578
      H   21    0.09200      0.00000     0.40705    0.00096     0.40800
      H   22    0.10243      0.00000     0.39682    0.00076     0.39757
      H   23    0.09856      0.00000     0.40070    0.00074     0.40144
      H   24    0.19336      0.00000     0.30498    0.00166     0.30664
      H   25    0.18379      0.00000     0.31389    0.00232     0.31621
      H   26    0.06213      0.00000     0.43575    0.00211     0.43787
      H   27    0.09705      0.00000     0.40114    0.00181     0.40295
      H   28    0.09304      0.00000     0.40546    0.00150     0.40696
      H   29    0.09015      0.00000     0.40876    0.00109     0.40985
      H   30    0.09105      0.00000     0.40757    0.00138     0.40895
      H   31    0.22941      0.00000     0.26823    0.00236     0.27059
 =======================================================================
   * Total *    0.00000     19.99359    42.81246    0.19395    63.00000

 Normal termination of Gaussian 16 at Thu Dec 10 22:59:51 2020.
