 Gaussian 16, Revision A.03,

 -----------------------------------------------------------
 # opt freq B3LYP/6-31G(d) empiricaldispersion=gd3bj scf=xqc
 -----------------------------------------------------------

 -------------------------------
 CID_144218640_JID_1848_neutraal
 -------------------------------
 Symbolic Z-matrix:
 Charge =  0 Multiplicity = 1

 SCF Done:  E(RB3LYP) =  -463.283532181     A.U. after   13 cycles
 SCF Done:  E(RB3LYP) =  -463.287273102     A.U. after   11 cycles
 SCF Done:  E(RB3LYP) =  -463.287964796     A.U. after   11 cycles
 SCF Done:  E(RB3LYP) =  -463.288318207     A.U. after   11 cycles
 SCF Done:  E(RB3LYP) =  -463.288424228     A.U. after   11 cycles
 SCF Done:  E(RB3LYP) =  -463.288452990     A.U. after   10 cycles
 SCF Done:  E(RB3LYP) =  -463.288461163     A.U. after    9 cycles
 SCF Done:  E(RB3LYP) =  -463.288463115     A.U. after    8 cycles
 SCF Done:  E(RB3LYP) =  -463.288463778     A.U. after    8 cycles
 SCF Done:  E(RB3LYP) =  -463.288464047     A.U. after    8 cycles
 SCF Done:  E(RB3LYP) =  -463.288464203     A.U. after    8 cycles
 SCF Done:  E(RB3LYP) =  -463.288464289     A.U. after    9 cycles
 SCF Done:  E(RB3LYP) =  -463.288464314     A.U. after    8 cycles
 SCF Done:  E(RB3LYP) =  -463.288464317     A.U. after    7 cycles
 Optimization completed.
    -- Stationary point found.

 1\1\GINC-NODE114\FOpt\RB3LYP\6-31G(d)\C9H18N2\VSC10255\08-Dec-2020\0\\
 # opt freq B3LYP/6-31G(d) empiricaldispersion=gd3bj scf=xqc\\CID_14421
 8640_JID_1848_neutraal\\0,1\C,1.2183658987,-0.1654875825,0.0307340607\
 C,0.5597505462,-1.0254038713,1.1051248572\N,0.4868303733,-0.2976680708
 ,2.3705287438\C,-0.1601874109,-1.0374877142,3.460357735\C,0.4753307121
 ,-2.3739115261,3.8211025091\C,1.5637055144,-2.4938678288,4.6040288788\
 C,2.2451962328,-1.3788791064,5.3504387763\C,1.9122034611,-1.3405673604
 ,6.8653056163\C,2.2889160287,-2.6025637039,7.5871374764\C,3.2189753254

 Normal termination of Gaussian 16 at Tue Dec  8 21:24:04 2020.

 --------------------------------------------------------------------
 #N Geom=AllCheck Guess=TCheck SCRF=Check GenChk RB3LYP/6-31G(d) Freq
 --------------------------------------------------------------------

 Structure from the checkpoint file:  "JID_1848.chk"
 -------------------------------
 CID_144218640_JID_1848_neutraal
 -------------------------------
 Charge =  0 Multiplicity = 1

 SCF Done:  E(RB3LYP) =  -463.288464317     A.U. after    1 cycles

  Exact polarizability: 150.783  13.473 103.121  13.259  -1.582  83.632
 Approx polarizability: 182.170  26.711 151.875  26.850   1.519 125.576

                      1                      2                      3
                      A                      A                      A
 Frequencies --     15.5430                39.9752                59.1816
 Red. masses --      3.4862                 3.8574                 3.1069
 Frc consts  --      0.0005                 0.0036                 0.0064
 IR Inten    --      0.2791                 0.0403                 0.3537

                      4                      5                      6
                      A                      A                      A
 Frequencies --     87.8613                96.1899               120.2434
 Red. masses --      2.5038                 1.6936                 2.8405
 Frc consts  --      0.0114                 0.0092                 0.0242
 IR Inten    --      0.1621                 0.9227                 0.0159

                      7                      8                      9
                      A                      A                      A
 Frequencies --    136.3853               186.3186               259.6849
 Red. masses --      2.9812                 2.9804                 1.3380
 Frc consts  --      0.0327                 0.0610                 0.0532
 IR Inten    --      3.3980                 1.5125                 3.3575

                     10                     11                     12
                      A                      A                      A
 Frequencies --    264.9152               292.0123               340.8724
 Red. masses --      1.8729                 2.2900                 2.1591
 Frc consts  --      0.0774                 0.1150                 0.1478
 IR Inten    --      6.8832                 4.9680                 1.8946

                     13                     14                     15
                      A                      A                      A
 Frequencies --    353.1267               381.5943               436.2322
 Red. masses --      1.2098                 2.2790                 2.4370
 Frc consts  --      0.0889                 0.1955                 0.2732
 IR Inten    --     40.4956                 3.8924                 1.4069

                     16                     17                     18
                      A                      A                      A
 Frequencies --    450.3156               477.9724               527.9953
 Red. masses --      2.3899                 1.8004                 2.6222
 Frc consts  --      0.2855                 0.2423                 0.4307
 IR Inten    --     12.1854                 2.1848                14.0507

                     19                     20                     21
                      A                      A                      A
 Frequencies --    643.4833               675.4871               722.2693
 Red. masses --      2.5174                 1.6331                 1.5219
 Frc consts  --      0.6142                 0.4390                 0.4678
 IR Inten    --    109.7464                 6.1083               195.1461

                     22                     23                     24
                      A                      A                      A
 Frequencies --    756.7730               802.7959               834.4466
 Red. masses --      1.6962                 1.7202                 1.1815
 Frc consts  --      0.5724                 0.6532                 0.4847
 IR Inten    --     39.5648                48.2319                 6.8054

                     25                     26                     27
                      A                      A                      A
 Frequencies --    845.3393               868.1596               890.0811
 Red. masses --      1.4788                 2.3212                 1.6869
 Frc consts  --      0.6226                 1.0308                 0.7874
 IR Inten    --     44.0414                 8.3687                 5.6244

                     28                     29                     30
                      A                      A                      A
 Frequencies --    900.2253               935.6820               989.3744
 Red. masses --      2.1815                 1.3515                 1.5025
 Frc consts  --      1.0416                 0.6972                 0.8665
 IR Inten    --      8.1809                36.0982                 4.0295

                     31                     32                     33
                      A                      A                      A
 Frequencies --    990.9985              1015.3373              1043.5795
 Red. masses --      1.6339                 1.7535                 2.7204
 Frc consts  --      0.9454                 1.0651                 1.7456
 IR Inten    --      3.7309                 1.8180                 2.1034

                     34                     35                     36
                      A                      A                      A
 Frequencies --   1047.8871              1096.5048              1132.5008
 Red. masses --      1.1548                 2.4462                 2.1912
 Frc consts  --      0.7471                 1.7329                 1.6558
 IR Inten    --     10.8975                 2.4839                 6.1343

                     37                     38                     39
                      A                      A                      A
 Frequencies --   1139.9002              1145.2134              1173.2255
 Red. masses --      1.6846                 1.8784                 1.9710
 Frc consts  --      1.2897                 1.4515                 1.5985
 IR Inten    --      1.4153                76.6576                12.2104

                     40                     41                     42
                      A                      A                      A
 Frequencies --   1197.1779              1211.4199              1270.7681
 Red. masses --      1.2677                 1.5500                 1.5647
 Frc consts  --      1.0705                 1.3402                 1.4887
 IR Inten    --      4.8921                 2.4845                 5.1234

                     43                     44                     45
                      A                      A                      A
 Frequencies --   1286.1931              1315.7415              1331.2888
 Red. masses --      1.3370                 1.4166                 1.2251
 Frc consts  --      1.3032                 1.4449                 1.2793
 IR Inten    --      3.5353                20.0570                 0.3070

                     46                     47                     48
                      A                      A                      A
 Frequencies --   1347.2327              1358.4283              1366.4819
 Red. masses --      1.2689                 1.2904                 1.3074
 Frc consts  --      1.3570                 1.4030                 1.4383
 IR Inten    --     29.7176                 2.9943                12.4309

                     49                     50                     51
                      A                      A                      A
 Frequencies --   1388.6620              1410.7660              1431.8253
 Red. masses --      1.3982                 1.2894                 1.6849
 Frc consts  --      1.5886                 1.5120                 2.0352
 IR Inten    --      0.9936                 5.2561                 6.1684

                     52                     53                     54
                      A                      A                      A
 Frequencies --   1442.1648              1475.8411              1500.0199
 Red. masses --      1.3176                 1.1789                 1.0950
 Frc consts  --      1.6146                 1.5129                 1.4517
 IR Inten    --      9.2436                 1.5023                 1.5515

                     55                     56                     57
                      A                      A                      A
 Frequencies --   1511.3836              1512.3739              1528.6631
 Red. masses --      1.1165                 1.1209                 1.0548
 Frc consts  --      1.5027                 1.5106                 1.4523
 IR Inten    --     19.9425                 3.2693                18.1775

                     58                     59                     60
                      A                      A                      A
 Frequencies --   1530.1451              1532.2220              1553.1367
 Red. masses --      1.0897                 1.1067                 1.0902
 Frc consts  --      1.5032                 1.5308                 1.5494
 IR Inten    --      4.1022                 9.4703                 4.0899

                     61                     62                     63
                      A                      A                      A
 Frequencies --   1686.5930              1734.0787              1744.3552
 Red. masses --      1.1492                 4.4892                 5.7196
 Frc consts  --      1.9260                 7.9534                10.2538
 IR Inten    --     30.2874                10.0651                99.6785

                     64                     65                     66
                      A                      A                      A
 Frequencies --   2949.9963              3023.2907              3033.1284
 Red. masses --      1.0715                 1.0621                 1.0745
 Frc consts  --      5.4941                 5.7197                 5.8240
 IR Inten    --     66.0580                22.8180                11.0897

                     67                     68                     69
                      A                      A                      A
 Frequencies --   3033.5753              3048.6651              3056.6141
 Red. masses --      1.0762                 1.0382                 1.0661
 Frc consts  --      5.8349                 5.6853                 5.8688
 IR Inten    --     44.8490                31.4140                31.8355

                     70                     71                     72
                      A                      A                      A
 Frequencies --   3071.5264              3079.2217              3111.9641
 Red. masses --      1.0984                 1.1005                 1.0998
 Frc consts  --      6.1053                 6.1476                 6.2755
 IR Inten    --     37.8079                50.2637                43.4943

                     73                     74                     75
                      A                      A                      A
 Frequencies --   3113.1726              3133.1173              3134.7304
 Red. masses --      1.0987                 1.0876                 1.1029
 Frc consts  --      6.2738                 6.2902                 6.3856
 IR Inten    --     21.6521                24.3974                31.5289

                     76                     77                     78
                      A                      A                      A
 Frequencies --   3149.5420              3158.6211              3231.7499
 Red. masses --      1.0622                 1.0874                 1.1154
 Frc consts  --      6.2080                 6.3922                 6.8635
 IR Inten    --     25.7440                 9.2835                23.8439

                     79                     80                     81
                      A                      A                      A
 Frequencies --   3477.5940              3519.0253              3618.4001
 Red. masses --      1.0734                 1.0476                 1.0970
 Frc consts  --      7.6481                 7.6437                 8.4621
 IR Inten    --      0.8739                 4.5953                 1.7332

 - Thermochemistry -
 -------------------
 Temperature   298.150 Kelvin.  Pressure   1.00000 Atm.
 Atom     1 has atomic number  6 and mass  12.00000

 Molecular mass:   154.14700 amu.
 Principal axes and moments of inertia in atomic units:
                           1         2         3
     Eigenvalues --   806.333764390.256344767.32003
           X            0.99999  -0.00055  -0.00387
           Y            0.00052   0.99997  -0.00757
           Z            0.00388   0.00757   0.99996
 This molecule is an asymmetric top.
 Rotational symmetry number  1.
 Warning -- assumption of classical behavior for rotation
           may cause significant error
 Rotational temperatures (Kelvin)      0.10742     0.01973     0.01817
 Rotational constants (GHZ):           2.23821     0.41108     0.37857
 Zero-point vibrational energy     692557.6 (Joules/Mol)
                                  165.52523 (Kcal/Mol)
 Warning -- explicit consideration of  18 degrees of freedom as
           vibrations may cause significant error
 Vibrational temperatures:     22.36    57.52    85.15   126.41   138.40
          (Kelvin)            173.00   196.23   268.07   373.63   381.15
                              420.14   490.44   508.07   549.03   627.64
                              647.90   687.70   759.67   925.83   971.88
                             1039.18  1088.83  1155.04  1200.58  1216.25
                             1249.09  1280.63  1295.22  1346.24  1423.49
                             1425.83  1460.84  1501.48  1507.68  1577.63
                             1629.42  1640.06  1647.71  1688.01  1722.47
                             1742.96  1828.35  1850.54  1893.06  1915.43
                             1938.37  1954.48  1966.06  1997.97  2029.78
                             2060.08  2074.95  2123.41  2158.19  2174.54
                             2175.97  2199.41  2201.54  2204.53  2234.62
                             2426.63  2494.95  2509.74  4244.39  4349.84
                             4364.00  4364.64  4386.35  4397.79  4419.24
                             4430.31  4477.42  4479.16  4507.86  4510.18
                             4531.49  4544.55  4649.77  5003.48  5063.09
                             5206.07

 Zero-point correction=                           0.263781 (Hartree/Particle)
 Thermal correction to Energy=                    0.277395
 Thermal correction to Enthalpy=                  0.278339
 Thermal correction to Gibbs Free Energy=         0.221738
 Sum of electronic and zero-point Energies=           -463.024683
 Sum of electronic and thermal Energies=              -463.011070
 Sum of electronic and thermal Enthalpies=            -463.010126
 Sum of electronic and thermal Free Energies=         -463.066727

                     E (Thermal)             CV                S
                      KCal/Mol        Cal/Mol-Kelvin    Cal/Mol-Kelvin
 Total                  174.068             49.242            119.127
 Electronic               0.000              0.000              0.000
 Translational            0.889              2.981             41.008
 Rotational               0.889              2.981             31.201
 Vibrational            172.290             43.280             46.918
 Vibration     1          0.593              1.986              7.135
 Vibration     2          0.594              1.981              5.260
 Vibration     3          0.597              1.974              4.484
 Vibration     4          0.601              1.958              3.707
 Vibration     5          0.603              1.952              3.530
 Vibration     6          0.609              1.932              3.096
 Vibration     7          0.614              1.917              2.854
 Vibration     8          0.632              1.859              2.264
 Vibration     9          0.668              1.746              1.664
 Vibration    10          0.671              1.737              1.629
 Vibration    11          0.687              1.689              1.462
 Vibration    12          0.720              1.594              1.208
 Vibration    13          0.729              1.569              1.152
 Vibration    14          0.751              1.509              1.033
 Vibration    15          0.797              1.391              0.839
 Vibration    16          0.809              1.360              0.795
 Vibration    17          0.834              1.299              0.716
 Vibration    18          0.883              1.188              0.592

 Optimization completed.
    -- Stationary point found.

 1\1\GINC-NODE114\Freq\RB3LYP\6-31G(d)\C9H18N2\VSC10255\08-Dec-2020\0\\
 #N Geom=AllCheck Guess=TCheck SCRF=Check GenChk RB3LYP/6-31G(d) Freq\\
 CID_144218640_JID_1848_neutraal\\0,1\C,1.2183658987,-0.1654875825,0.03
 07340607\C,0.5597505462,-1.0254038713,1.1051248572\N,0.4868303733,-0.2
 976680708,2.3705287438\C,-0.1601874109,-1.0374877142,3.460357735\C,0.4
 753307121,-2.3739115261,3.8211025091\C,1.5637055144,-2.4938678288,4.60
 40288788\C,2.2451962328,-1.3788791064,5.3504387763\C,1.9122034611,-1.3
 405673604,6.8653056163\C,2.2889160287,-2.6025637039,7.5871374764\C,3.2

 Normal termination of Gaussian 16 at Tue Dec  8 21:31:42 2020.

 ----------------------------------------------------------------------
 # B3LYP/6-311++G(d,p) empiricaldispersion=gd3bj scf=xqc pop=npa geom=c
 heck
 ----------------------------------------------------------------------

 ---------------------------------------
 CID_144218640_JID_1848_Energie_neutraal
 ---------------------------------------
 Structure from the checkpoint file:  "JID_1848.chk"
 Charge =  0 Multiplicity = 1

 SCF Done:  E(RB3LYP) =  -463.433048959     A.U. after   14 cycles
 Normal termination of Gaussian 16 at Tue Dec  8 21:35:42 2020.

 ----------------------------------------------------------------------
 # B3LYP/6-311++G(d,p) empiricaldispersion=gd3bj scf=xqc pop=npa geom=c
 heck
 ----------------------------------------------------------------------

 -------------------------------------
 CID_144218640_JID_1848_Energie_kation
 -------------------------------------
 Structure from the checkpoint file:  "JID_1848.chk"
 Charge =  1 Multiplicity = 2

 SCF Done:  E(UB3LYP) =  -463.157714766     A.U. after   21 cycles
 Normal termination of Gaussian 16 at Tue Dec  8 21:43:53 2020.
 Gaussian 16:  ES64L-G16RevA.03 25-Dec-2016

 ------------------------------------
 CID_144218640_JID_1848_Energie_anion
 ------------------------------------
 Structure from the checkpoint file:  "JID_1848.chk"
 Charge = -1 Multiplicity = 2

                         Standard orientation:
 ---------------------------------------------------------------------
 Center     Atomic      Atomic             Coordinates (Angstroms)
 Number     Number       Type             X           Y           Z
 ---------------------------------------------------------------------
      1          6           0        4.201957   -1.157756   -0.725118
      2          6           0        3.203680   -0.107943   -0.246701
      3          7           0        2.204313   -0.713615    0.631132
      4          6           0        1.214502    0.228725    1.165886
      5          6           0        0.402639    0.994335    0.129175
      6          6           0       -0.668304    0.481680   -0.505010
      7          6           0       -1.317892   -0.844691   -0.215991
      8          6           0       -2.624915   -0.737519    0.613092
      9          6           0       -3.682123    0.096415   -0.052079
     10          6           0       -4.857014   -0.362635   -0.484092
     11          7           0        0.859665    2.304798   -0.094105
     12          1           0        4.677112   -1.650573    0.128669
     13          1           0        4.979025   -0.704194   -1.349924
     14          1           0        3.700718   -1.927854   -1.324860
     15          1           0        3.730084    0.661473    0.336491
     16          1           0        2.761323    0.402937   -1.121893
     17          1           0        1.709830   -1.432396    0.103390
     18          1           0        0.546420   -0.333911    1.823786
     19          1           0        1.744162    0.948165    1.802787
     20          1           0       -1.154838    1.094846   -1.264727
     21          1           0       -1.556098   -1.350806   -1.161478
     22          1           0       -0.632312   -1.509114    0.322645
     23          1           0       -3.016420   -1.745538    0.801914
     24          1           0       -2.371332   -0.297053    1.587997
     25          1           0       -3.438947    1.149723   -0.192212
     26          1           0       -5.583261    0.283359   -0.970320
     27          1           0       -5.140017   -1.406659   -0.362640
     28          1           0        1.868243    2.403541   -0.055042
     29          1           0        0.493280    2.732119   -0.938741
 ---------------------------------------------------------------------

 SCF Done:  E(UB3LYP) =  -463.417474074     A.U. after   33 cycles
 SCF Done:  E(UB3LYP) =  -463.417474074     a.u. after    1 cycles

 The electronic state is 2-A.
 Alpha  occ. eigenvalues --  -14.20648 -14.19824 -10.09889 -10.09555 -10.08790
 Alpha  occ. eigenvalues --  -10.08226 -10.07676 -10.07423 -10.07145 -10.05901
 Alpha  occ. eigenvalues --  -10.04681  -0.81887  -0.79093  -0.71457  -0.66918
 Alpha  occ. eigenvalues --   -0.64815  -0.60855  -0.56862  -0.52646  -0.50753
 Alpha  occ. eigenvalues --   -0.46689  -0.43754  -0.40242  -0.39573  -0.38156
 Alpha  occ. eigenvalues --   -0.36577  -0.35896  -0.33938  -0.33702  -0.32080
 Alpha  occ. eigenvalues --   -0.29893  -0.29395  -0.28155  -0.27238  -0.25967
 Alpha  occ. eigenvalues --   -0.25814  -0.25054  -0.24558  -0.23421  -0.21754
 Alpha  occ. eigenvalues --   -0.17150  -0.13220  -0.10024   0.04588
 Alpha virt. eigenvalues --    0.06330   0.06965   0.07714   0.08220   0.08535
 Alpha virt. eigenvalues --    0.08873   0.09770   0.10352   0.10703   0.10834
 Alpha virt. eigenvalues --    0.11286   0.11837   0.12557   0.12617   0.13264

  Beta  occ. eigenvalues --  -14.20601 -14.19811 -10.09887 -10.09539 -10.08755
  Beta  occ. eigenvalues --  -10.08218 -10.07665 -10.07411 -10.07122 -10.05872
  Beta  occ. eigenvalues --  -10.04665  -0.81847  -0.79041  -0.71431  -0.66878
  Beta  occ. eigenvalues --   -0.64774  -0.60806  -0.56813  -0.52597  -0.50656
  Beta  occ. eigenvalues --   -0.46637  -0.43696  -0.40196  -0.39525  -0.38126
  Beta  occ. eigenvalues --   -0.36538  -0.35838  -0.33891  -0.33662  -0.32054
  Beta  occ. eigenvalues --   -0.29858  -0.29361  -0.28115  -0.27208  -0.25932
  Beta  occ. eigenvalues --   -0.25745  -0.25025  -0.24522  -0.23391  -0.21716
  Beta  occ. eigenvalues --   -0.17104  -0.13184  -0.09993
  Beta virt. eigenvalues --    0.06533   0.07272   0.07623   0.08103   0.08840
  Beta virt. eigenvalues --    0.08911   0.09044   0.10056   0.10831   0.10960
  Beta virt. eigenvalues --    0.11277   0.11555   0.12066   0.12723   0.12970

 Mulliken charges and spin densities:
               1          2
     1  C    0.825633  -1.406414
     2  C   -0.031838  -0.268369
     3  N   -0.192426   0.250433
     4  C    0.688901  -1.589859
     5  C    1.124703  -1.138086
     6  C   -1.807180   1.884260
     7  C    0.662088  -0.788764
     8  C    0.791922  -1.296951
     9  C   -0.940988   1.315234
    10  C    0.362347  -1.042988
    11  N   -0.318301   0.048437
    12  H   -0.020993   0.170079
    13  H   -0.363470   0.496307
    14  H   -0.183968   0.308581
    15  H   -0.385845   0.546430
    16  H   -0.171269   0.333495
    17  H    0.159292   0.017221
    18  H    0.051798   0.139021
    19  H    0.039508   0.140272
    20  H   -0.232751   0.396815
    21  H   -0.020842   0.178756
    22  H   -0.094705   0.225079
    23  H   -0.106752   0.236094
    24  H    0.050827   0.064090
    25  H   -0.214792   0.393258
    26  H   -0.041003   0.152417
    27  H   -0.163119   0.274058
    28  H   -0.135612   0.388377
    29  H   -0.331164   0.572717
 Sum of Mulliken charges =  -1.00000   1.00000

 Dipole moment (field-independent basis, Debye):
    X=             -3.2132    Y=             -3.0408    Z=              2.2573  Tot=              4.9665
 Quadrupole moment (field-independent basis, Debye-Ang):
   XX=           -156.3488   YY=           -113.3246   ZZ=           -103.3142
   XY=             -4.6693   XZ=              3.9440   YZ=              3.7241

 Summary of Natural Population Analysis:

                                       Natural Population
                Natural  -----------------------------------------------
    Atom  No    Charge         Core      Valence    Rydberg      Total
 -----------------------------------------------------------------------
      C    1   -0.28460      0.99967     2.28024    0.00469     3.28460
      C    2   -0.09144      0.99964     2.08036    0.01143     3.09144
      N    3   -0.33547      0.99975     2.82355    0.01217     3.83547
      C    4   -0.10380      0.99957     2.09282    0.01140     3.10380
      C    5    0.08293      0.99946     1.90439    0.01322     2.91707
      C    6   -0.15000      0.99946     2.13879    0.01175     3.15000
      C    7   -0.19460      0.99961     2.18669    0.00830     3.19460
      C    8   -0.20292      0.99960     2.19503    0.00829     3.20292
      C    9   -0.07893      0.99956     2.06987    0.00950     3.07893
      C   10   -0.19705      0.99956     2.19062    0.00687     3.19705
      N   11   -0.40180      0.99972     2.89050    0.01159     3.90180
      H   12    0.09751      0.00000     0.40094    0.00154     0.40249
      H   13    0.10098      0.00000     0.39764    0.00137     0.39902
      H   14    0.09366      0.00000     0.40497    0.00137     0.40634
      H   15    0.08864      0.00000     0.40933    0.00203     0.41136
      H   16    0.08266      0.00000     0.41485    0.00249     0.41734
      H   17    0.16820      0.00000     0.32762    0.00418     0.33180
      H   18    0.10008      0.00000     0.39864    0.00128     0.39992
      H   19    0.09668      0.00000     0.40175    0.00157     0.40332
      H   20    0.09354      0.00000     0.40490    0.00156     0.40646
      H   21    0.09861      0.00000     0.39992    0.00147     0.40139
      H   22    0.09655      0.00000     0.40189    0.00156     0.40345
      H   23    0.09504      0.00000     0.40330    0.00167     0.40496
      H   24    0.10041      0.00000     0.39802    0.00157     0.39959
      H   25    0.09510      0.00000     0.40348    0.00141     0.40490
      H   26    0.09190      0.00000     0.40690    0.00120     0.40810
      H   27    0.08770      0.00000     0.41078    0.00152     0.41230
      H   28    0.18524      0.00000     0.31125    0.00351     0.31476
      H   29    0.18518      0.00000     0.31110    0.00372     0.31482
 =======================================================================
   * Total *   -0.00000     10.99562    31.86013    0.14426    43.00000

 Normal termination of Gaussian 16 at Tue Dec  8 21:54:12 2020.
