 Gaussian 16, Revision A.03,

 -----------------------------------------------------------
 # opt freq B3LYP/6-31G(d) empiricaldispersion=gd3bj scf=xqc
 -----------------------------------------------------------

 -------------------------------
 CID_53578172_JID_10186_neutraal
 -------------------------------
 Symbolic Z-matrix:
 Charge =  0 Multiplicity = 1

 SCF Done:  E(RB3LYP) =  -964.500131741     A.U. after   18 cycles
 SCF Done:  E(RB3LYP) =  -964.504738843     A.U. after   15 cycles
 SCF Done:  E(RB3LYP) =  -964.504888222     A.U. after   16 cycles
 SCF Done:  E(RB3LYP) =  -964.502134880     A.U. after   16 cycles
 SCF Done:  E(RB3LYP) =  -964.506291747     A.U. after   14 cycles
 SCF Done:  E(RB3LYP) =  -964.508939758     A.U. after   14 cycles
 SCF Done:  E(RB3LYP) =  -964.510017665     A.U. after   14 cycles
 SCF Done:  E(RB3LYP) =  -964.511768441     A.U. after   14 cycles
 SCF Done:  E(RB3LYP) =  -964.515051180     A.U. after   17 cycles
 SCF Done:  E(RB3LYP) =  -964.516705834     A.U. after   15 cycles
 SCF Done:  E(RB3LYP) =  -964.519154713     A.U. after   11 cycles
 SCF Done:  E(RB3LYP) =  -964.519155348     A.U. after   10 cycles
 SCF Done:  E(RB3LYP) =  -964.519155521     A.U. after    7 cycles
 SCF Done:  E(RB3LYP) =  -964.519155687     A.U. after    8 cycles
 SCF Done:  E(RB3LYP) =  -964.519155823     A.U. after    8 cycles
 SCF Done:  E(RB3LYP) =  -964.519155928     A.U. after    8 cycles
 Optimization completed.
    -- Stationary point found.
 Normal termination of Gaussian 16 at Sun Dec 13 16:58:05 2020.

 --------------------------------------------------------------------
 #N Geom=AllCheck Guess=TCheck SCRF=Check GenChk RB3LYP/6-31G(d) Freq
 --------------------------------------------------------------------

 Structure from the checkpoint file:  "JID_10186.chk"
 -------------------------------
 CID_53578172_JID_10186_neutraal
 -------------------------------
 Charge =  0 Multiplicity = 1

 SCF Done:  E(RB3LYP) =  -964.519155927     A.U. after    1 cycles

  Exact polarizability: 268.644  10.038 179.009   0.001  -0.001  79.677
 Approx polarizability: 379.026  25.791 330.810   0.002   0.013 119.191

                      1                      2                      3
                      A                      A                      A
 Frequencies --     12.6678                21.8843                50.8596
 Red. masses --      5.5865                 5.9112                 9.3006
 Frc consts  --      0.0005                 0.0017                 0.0142
 IR Inten    --      1.9767                 3.4064                 0.1370

                      4                      5                      6
                      A                      A                      A
 Frequencies --     55.4291                61.9633                96.8601
 Red. masses --      6.1862                 6.8671                 5.6419
 Frc consts  --      0.0112                 0.0155                 0.0312
 IR Inten    --      2.2161                 0.7717                 0.0782

                      7                      8                      9
                      A                      A                      A
 Frequencies --    116.8589               126.7423               175.4124
 Red. masses --      7.2805                 3.2447                 5.3725
 Frc consts  --      0.0586                 0.0307                 0.0974
 IR Inten    --      1.6936                 0.0002                 1.4879

                     10                     11                     12
                      A                      A                      A
 Frequencies --    193.5854               211.5023               235.9199
 Red. masses --      2.6382                 1.3098                 2.3608
 Frc consts  --      0.0583                 0.0345                 0.0774
 IR Inten    --      2.0514                 0.3962                 0.0004

                     13                     14                     15
                      A                      A                      A
 Frequencies --    239.9985               264.3137               272.5108
 Red. masses --      1.3135                 3.9534                 4.4807
 Frc consts  --      0.0446                 0.1627                 0.1960
 IR Inten    --      1.8592                 2.6895                 0.0885

                     16                     17                     18
                      A                      A                      A
 Frequencies --    298.5173               327.4380               356.6858
 Red. masses --      8.8006                 2.7902                 7.6298
 Frc consts  --      0.4621                 0.1763                 0.5719
 IR Inten    --      0.0109                 1.7609                 1.4692

                     19                     20                     21
                      A                      A                      A
 Frequencies --    386.0192               423.6400               429.1058
 Red. masses --      6.4073                 5.1247                 3.1588
 Frc consts  --      0.5625                 0.5419                 0.3427
 IR Inten    --      0.3239                 4.4690                 2.4293

                     22                     23                     24
                      A                      A                      A
 Frequencies --    450.3638               491.2588               507.7497
 Red. masses --      7.1470                 1.8966                 5.5026
 Frc consts  --      0.8541                 0.2697                 0.8358
 IR Inten    --      8.6416                45.3275                 8.0686

                     25                     26                     27
                      A                      A                      A
 Frequencies --    542.8278               559.8102               575.7067
 Red. masses --      2.4645                 5.6562                 4.9961
 Frc consts  --      0.4279                 1.0444                 0.9756
 IR Inten    --     40.5508                 6.6582                 8.4411

                     28                     29                     30
                      A                      A                      A
 Frequencies --    665.0144               673.9614               686.5458
 Red. masses --      1.4571                 7.0246                 2.8009
 Frc consts  --      0.3797                 1.8799                 0.7778
 IR Inten    --     43.2988                 2.6159                 8.4565

                     31                     32                     33
                      A                      A                      A
 Frequencies --    705.9687               735.7012               744.7238
 Red. masses --      3.3119                 3.8545                 5.6354
 Frc consts  --      0.9725                 1.2292                 1.8415
 IR Inten    --      2.3140                21.4937                73.1093

                     34                     35                     36
                      A                      A                      A
 Frequencies --    760.4835               762.6851               771.3421
 Red. masses --      6.5293                 4.1062                 5.3525
 Frc consts  --      2.2248                 1.4073                 1.8763
 IR Inten    --     38.5346                18.0848                 8.1195

                     37                     38                     39
                      A                      A                      A
 Frequencies --    831.7766               873.9937               898.3603
 Red. masses --      1.4839                 5.7561                 5.1434
 Frc consts  --      0.6049                 2.5906                 2.4457
 IR Inten    --     11.9411                40.2620                 5.3183

                     40                     41                     42
                      A                      A                      A
 Frequencies --    910.2567               934.0526               954.8437
 Red. masses --      1.5562                 2.9327                 1.1778
 Frc consts  --      0.7597                 1.5075                 0.6327
 IR Inten    --     12.1330                 0.1081                 3.7374

                     43                     44                     45
                      A                      A                      A
 Frequencies --    964.0615               989.1766              1008.1869
 Red. masses --      1.3803                 1.4596                 1.3191
 Frc consts  --      0.7558                 0.8414                 0.7899
 IR Inten    --      0.2205                 0.0120                 0.5823

                     46                     47                     48
                      A                      A                      A
 Frequencies --   1022.8246              1033.7113              1049.2036
 Red. masses --      6.3318                 5.2211                 5.4978
 Frc consts  --      3.9028                 3.2871                 3.5658
 IR Inten    --      0.2736                13.1269                33.7006

                     49                     50                     51
                      A                      A                      A
 Frequencies --   1111.8913              1113.1233              1125.3126
 Red. masses --      1.6450                 1.7671                 1.9000
 Frc consts  --      1.1983                 1.2900                 1.4176
 IR Inten    --    102.0027                27.2691                16.0414

                     52                     53                     54
                      A                      A                      A
 Frequencies --   1140.3506              1173.5514              1188.3039
 Red. masses --      2.5689                 2.6744                 4.5192
 Frc consts  --      1.9683                 2.1701                 3.7598
 IR Inten    --      0.1867                44.8037                32.5605

                     55                     56                     57
                      A                      A                      A
 Frequencies --   1202.6263              1213.4085              1302.8776
 Red. masses --      1.1788                 1.8993                 2.7435
 Frc consts  --      1.0045                 1.6476                 2.7439
 IR Inten    --      3.5472                 1.4777                 0.1222

                     58                     59                     60
                      A                      A                      A
 Frequencies --   1328.0363              1342.0598              1372.5536
 Red. masses --      1.6487                 4.3101                 1.4411
 Frc consts  --      1.7133                 4.5739                 1.5996
 IR Inten    --     14.1298               244.4527                23.6908

                     61                     62                     63
                      A                      A                      A
 Frequencies --   1377.1733              1379.4117              1395.1790
 Red. masses --      4.3440                 1.2820                 2.3480
 Frc consts  --      4.8541                 1.4373                 2.6929
 IR Inten    --      9.5235                 0.6160                 3.4920

                     64                     65                     66
                      A                      A                      A
 Frequencies --   1401.4855              1421.9990              1435.8056
 Red. masses --     11.0060                 1.2186                 2.7304
 Frc consts  --     12.7367                 1.4519                 3.3164
 IR Inten    --    346.7135                 5.1060                37.9430

                     67                     68                     69
                      A                      A                      A
 Frequencies --   1448.4492              1480.2751              1497.3068
 Red. masses --      1.3591                 2.9743                 3.2559
 Frc consts  --      1.6800                 3.8400                 4.3007
 IR Inten    --     11.2884               108.6520                46.7204

                     70                     71                     72
                      A                      A                      A
 Frequencies --   1517.1693              1526.3214              1534.7340
 Red. masses --      1.0401                 2.1064                 1.1851
 Frc consts  --      1.4106                 2.8913                 1.6446
 IR Inten    --      0.0117                 1.5108                 4.3653

                     73                     74                     75
                      A                      A                      A
 Frequencies --   1540.0952              1554.8529              1600.1697
 Red. masses --      1.0494                 1.0590                 4.8280
 Frc consts  --      1.4666                 1.5084                 7.2837
 IR Inten    --      0.8899                 5.2875                 7.4152

                     76                     77                     78
                      A                      A                      A
 Frequencies --   1607.6001              1628.6194              1651.9392
 Red. masses --      4.7827                 8.0795                 6.9960
 Frc consts  --      7.2825                12.6263                11.2484
 IR Inten    --    553.8622               151.9284                59.6179

                     79                     80                     81
                      A                      A                      A
 Frequencies --   1685.6276              1780.5313              3054.7046
 Red. masses --      7.7008                 7.6837                 1.0387
 Frc consts  --     12.8917                14.3522                 5.7107
 IR Inten    --     22.7660               445.8649                35.1344

                     82                     83                     84
                      A                      A                      A
 Frequencies --   3057.1383              3082.6343              3113.8540
 Red. masses --      1.0405                 1.0837                 1.1022
 Frc consts  --      5.7295                 6.0677                 6.2967
 IR Inten    --     23.6110                16.7816                17.4052

                     85                     86                     87
                      A                      A                      A
 Frequencies --   3115.4059              3166.8549              3169.8980
 Red. masses --      1.1019                 1.0985                 1.0978
 Frc consts  --      6.3011                 6.4908                 6.4990
 IR Inten    --     30.8780                 0.0011                13.9201

                     88                     89                     90
                      A                      A                      A
 Frequencies --   3214.7961              3237.2991              3243.6738
 Red. masses --      1.0896                 1.0933                 1.0905
 Frc consts  --      6.6346                 6.7508                 6.7602
 IR Inten    --      6.9955                 1.2603                 2.4423

                     91                     92                     93
                      A                      A                      A
 Frequencies --   3258.3076              3577.8791              3661.9296
 Red. masses --      1.0929                 1.0750                 1.0816
 Frc consts  --      6.8364                 8.1078                 8.5458
 IR Inten    --      3.6273                50.8235                76.1671

 - Thermochemistry -
 -------------------
 Temperature   298.150 Kelvin.  Pressure   1.00000 Atm.
 Atom     1 has atomic number  6 and mass  12.00000

 Molecular mass:   275.10184 amu.
 Principal axes and moments of inertia in atomic units:
                           1         2         3
     Eigenvalues --  2030.83858********************
           X            0.99996  -0.00856   0.00000
           Y            0.00856   0.99996  -0.00001
           Z           -0.00000   0.00001   1.00000
 This molecule is an asymmetric top.
 Rotational symmetry number  1.
 Warning -- assumption of classical behavior for rotation
           may cause significant error
 Rotational temperatures (Kelvin)      0.04265     0.00697     0.00616
 Rotational constants (GHZ):           0.88867     0.14515     0.12833
 Zero-point vibrational energy     672873.8 (Joules/Mol)
                                  160.82071 (Kcal/Mol)
 Warning -- explicit consideration of  27 degrees of freedom as
           vibrations may cause significant error
 Vibrational temperatures:     18.23    31.49    73.18    79.75    89.15
          (Kelvin)            139.36   168.13   182.35   252.38   278.53
                              304.30   339.44   345.30   380.29   392.08
                              429.50   471.11   513.19   555.40   609.52
                              617.39   647.97   706.81   730.54   781.01
                              805.44   828.31   956.81   969.68   987.79
                             1015.73  1058.51  1071.49  1094.17  1097.33
                             1109.79  1196.74  1257.48  1292.54  1309.66
                             1343.89  1373.81  1387.07  1423.20  1450.56
                             1471.62  1487.28  1509.57  1599.76  1601.54
                             1619.07  1640.71  1688.48  1709.70  1730.31
                             1745.82  1874.55  1910.75  1930.92  1974.80
                             1981.45  1984.67  2007.35  2016.43  2045.94
                             2065.80  2084.00  2129.79  2154.29  2182.87
                             2196.04  2208.14  2215.85  2237.09  2302.29
                             2312.98  2343.22  2376.77  2425.24  2561.79
                             4395.04  4398.54  4435.22  4480.14  4482.37
                             4556.40  4560.78  4625.37  4657.75  4666.92
                             4687.98  5147.77  5268.70

 Zero-point correction=                           0.256284 (Hartree/Particle)
 Thermal correction to Energy=                    0.274264
 Thermal correction to Enthalpy=                  0.275208
 Thermal correction to Gibbs Free Energy=         0.207356
 Sum of electronic and zero-point Energies=           -964.262872
 Sum of electronic and thermal Energies=              -964.244892
 Sum of electronic and thermal Enthalpies=            -964.243948
 Sum of electronic and thermal Free Energies=         -964.311800

                     E (Thermal)             CV                S
                      KCal/Mol        Cal/Mol-Kelvin    Cal/Mol-Kelvin
 Total                  172.103             66.823            142.806
 Electronic               0.000              0.000              0.000
 Translational            0.889              2.981             42.734
 Rotational               0.889              2.981             34.228
 Vibrational            170.326             60.861             65.843
 Vibration     1          0.593              1.987              7.541
 Vibration     2          0.593              1.985              6.455
 Vibration     3          0.595              1.977              4.784
 Vibration     4          0.596              1.975              4.614
 Vibration     5          0.597              1.972              4.394
 Vibration     6          0.603              1.951              3.517
 Vibration     7          0.608              1.935              3.152
 Vibration     8          0.611              1.926              2.995
 Vibration     9          0.627              1.873              2.377
 Vibration    10          0.635              1.849              2.193
 Vibration    11          0.643              1.823              2.031
 Vibration    12          0.655              1.786              1.833
 Vibration    13          0.657              1.779              1.803
 Vibration    14          0.671              1.738              1.633
 Vibration    15          0.676              1.724              1.580
 Vibration    16          0.692              1.676              1.425
 Vibration    17          0.711              1.621              1.273
 Vibration    18          0.732              1.562              1.137
 Vibration    19          0.755              1.500              1.015
 Vibration    20          0.786              1.419              0.880
 Vibration    21          0.790              1.407              0.862
 Vibration    22          0.809              1.360              0.795
 Vibration    23          0.847              1.269              0.680
 Vibration    24          0.863              1.233              0.639
 Vibration    25          0.898              1.155              0.559
 Vibration    26          0.915              1.118              0.524
 Vibration    27          0.932              1.084              0.493

                           ! Non-Optimized Parameters !
 Normal termination of Gaussian 16 at Sun Dec 13 17:14:10 2020.

 ----------------------------------------------------------------------
 # B3LYP/6-311++G(d,p) empiricaldispersion=gd3bj scf=xqc pop=npa geom=c
 heck
 ----------------------------------------------------------------------

 ---------------------------------------
 CID_53578172_JID_10186_Energie_neutraal
 ---------------------------------------
 Structure from the checkpoint file:  "JID_10186.chk"
 Charge =  0 Multiplicity = 1

 SCF Done:  E(RB3LYP) =  -964.789409171     A.U. after   19 cycles
 Normal termination of Gaussian 16 at Sun Dec 13 17:22:51 2020.

 ----------------------------------------------------------------------
 # B3LYP/6-311++G(d,p) empiricaldispersion=gd3bj scf=xqc pop=npa geom=c
 heck
 ----------------------------------------------------------------------

 -------------------------------------
 CID_53578172_JID_10186_Energie_kation
 -------------------------------------
 Structure from the checkpoint file:  "JID_10186.chk"
 Charge =  1 Multiplicity = 2

 SCF Done:  E(UB3LYP) =  -964.477758730     A.U. after   29 cycles
 Normal termination of Gaussian 16 at Sun Dec 13 17:41:34 2020.
 Gaussian 16:  ES64L-G16RevA.03 25-Dec-2016

 ----------------------------------------------------------------------
 # B3LYP/6-311++G(d,p) empiricaldispersion=gd3bj scf=xqc pop=npa geom=c
 heck
 ----------------------------------------------------------------------

 ------------------------------------
 CID_53578172_JID_10186_Energie_anion
 ------------------------------------
 Structure from the checkpoint file:  "JID_10186.chk"
 Charge = -1 Multiplicity = 2

                         Standard orientation:
 ---------------------------------------------------------------------
 Center     Atomic      Atomic             Coordinates (Angstroms)
 Number     Number       Type             X           Y           Z
 ---------------------------------------------------------------------
      1          6           0       -3.440319    1.691042    1.284540
      2          6           0       -4.137233    1.211191    0.000026
      3          6           0       -3.440778    1.690746   -1.284735
      4          6           0       -4.419015   -0.287483    0.000620
      5          8           0       -5.564518   -0.712638    0.001962
      6          7           0       -3.399917   -1.246028   -0.000505
      7          6           0       -2.018316   -1.242098   -0.000492
      8          7           0       -1.379124   -2.415696   -0.000769
      9          7           0       -0.077553   -2.019850   -0.000760
     10          6           0        0.020656   -0.671995   -0.000369
     11          7           0       -1.207040   -0.152068   -0.000264
     12          6           0        1.261357    0.099571   -0.000353
     13          6           0        2.515025   -0.520308    0.000023
     14          6           0        3.656584    0.271583    0.000096
     15          6           0        3.602445    1.662515   -0.000175
     16          6           0        2.348701    2.272435   -0.000566
     17          6           0        1.188341    1.503257   -0.000645
     18          7           0        4.970137   -0.393463    0.000504
     19          8           0        4.984851   -1.624200    0.000272
     20          8           0        5.969638    0.321451    0.001156
     21          1           0       -2.414188    1.325666    1.347537
     22          1           0       -3.990805    1.362390    2.172929
     23          1           0       -3.415487    2.786796    1.292641
     24          1           0       -5.151163    1.623028    0.000238
     25          1           0       -2.414790    1.325084   -1.348266
     26          1           0       -3.991830    1.362423   -2.172890
     27          1           0       -3.415492    2.786505   -1.292806
     28          1           0       -3.790421   -2.182380    0.000067
     29          1           0        0.646830   -2.722736   -0.000253
     30          1           0        2.637424   -1.596158    0.000236
     31          1           0        4.521835    2.233691   -0.000068
     32          1           0        2.277990    3.355226   -0.000821
     33          1           0        0.210115    1.970563   -0.000927
 ---------------------------------------------------------------------

 SCF Done:  E(UB3LYP) =  -964.847231796     A.U. after   24 cycles

 The electronic state is 2-A.
 Alpha  occ. eigenvalues --  -19.02191 -18.96758 -18.96626 -14.34630 -14.30467
 Alpha  occ. eigenvalues --  -14.27771 -14.24997 -14.21661 -10.20793 -10.18223
 Alpha  occ. eigenvalues --  -10.16042 -10.11158 -10.08384 -10.08384 -10.08214
 Alpha  occ. eigenvalues --  -10.08156 -10.07061 -10.06326 -10.05227 -10.05063
 Alpha  occ. eigenvalues --   -1.04761  -0.99704  -0.97482  -0.87670  -0.86718
 Alpha  occ. eigenvalues --   -0.81243  -0.76244  -0.73714  -0.72305  -0.66313
 Alpha  occ. eigenvalues --   -0.64660  -0.61259  -0.58428  -0.56998  -0.55550
 Alpha  occ. eigenvalues --   -0.54658  -0.51374  -0.48716  -0.46753  -0.43301
 Alpha  occ. eigenvalues --   -0.42733  -0.40508  -0.39391  -0.38833  -0.37770
 Alpha  occ. eigenvalues --   -0.36912  -0.36446  -0.36246  -0.35577  -0.35332
 Alpha  occ. eigenvalues --   -0.34326  -0.32368  -0.32226  -0.31787  -0.30702
 Alpha  occ. eigenvalues --   -0.29780  -0.27559  -0.27191  -0.26744  -0.25679
 Alpha  occ. eigenvalues --   -0.25448  -0.25088  -0.23804  -0.21478  -0.19860
 Alpha  occ. eigenvalues --   -0.18829  -0.16909  -0.15673  -0.14994  -0.14327
 Alpha  occ. eigenvalues --   -0.13099  -0.12393   0.00619
 Alpha virt. eigenvalues --    0.05264   0.06174   0.06562   0.07846   0.08328
 Alpha virt. eigenvalues --    0.08562   0.09185   0.10034   0.10312   0.11487
 Alpha virt. eigenvalues --    0.11730   0.12417   0.12579   0.12747   0.13417

  Beta  occ. eigenvalues --  -19.02189 -18.96352 -18.96158 -14.34090 -14.30432
  Beta  occ. eigenvalues --  -14.27772 -14.25001 -14.21654 -10.20791 -10.18223
  Beta  occ. eigenvalues --  -10.16009 -10.11158 -10.08383 -10.08382 -10.08247
  Beta  occ. eigenvalues --  -10.08059 -10.07024 -10.06432 -10.04863 -10.04786
  Beta  occ. eigenvalues --   -1.03830  -0.99678  -0.97477  -0.86848  -0.86709
  Beta  occ. eigenvalues --   -0.81214  -0.76059  -0.73567  -0.72279  -0.65769
  Beta  occ. eigenvalues --   -0.64413  -0.61257  -0.58403  -0.56861  -0.55031
  Beta  occ. eigenvalues --   -0.54264  -0.51175  -0.48683  -0.46545  -0.43085
  Beta  occ. eigenvalues --   -0.42649  -0.40144  -0.39322  -0.38790  -0.37759
  Beta  occ. eigenvalues --   -0.36227  -0.35981  -0.35557  -0.34961  -0.34206
  Beta  occ. eigenvalues --   -0.34175  -0.32186  -0.31930  -0.31764  -0.30694
  Beta  occ. eigenvalues --   -0.29776  -0.27425  -0.27168  -0.26322  -0.25548
  Beta  occ. eigenvalues --   -0.25342  -0.24827  -0.23715  -0.21149  -0.19843
  Beta  occ. eigenvalues --   -0.18826  -0.16503  -0.14101  -0.13889  -0.12660
  Beta  occ. eigenvalues --   -0.12077  -0.11958
  Beta virt. eigenvalues --    0.05805   0.06166   0.06468   0.07676   0.07838
  Beta virt. eigenvalues --    0.08313   0.08563   0.09170   0.10013   0.10302
  Beta virt. eigenvalues --    0.11724   0.12402   0.12578   0.12741   0.13129

 Mulliken charges and spin densities:
               1          2
     1  C   -0.571305   0.000992
     2  C    0.386282  -0.001508
     3  C   -0.571350   0.000992
     4  C   -0.229534   0.001095
     5  O   -0.281771   0.000711
     6  N   -0.385144  -0.000440
     7  C    0.233743   0.001560
     8  N    0.018420  -0.001530
     9  N   -0.257763   0.010210
    10  C    0.205096   0.021783
    11  N   -0.128750   0.005747
    12  C    1.260261  -0.017842
    13  C   -1.213355   0.041561
    14  C   -0.304360  -0.023688
    15  C    0.490902   0.279546
    16  C   -0.574453  -0.074516
    17  C   -0.845163   0.277002
    18  N   -0.248666   0.183766
    19  O   -0.169861   0.175125
    20  O   -0.156550   0.156213
    21  H    0.188897  -0.000130
    22  H    0.131120   0.000552
    23  H    0.126670   0.000618
    24  H    0.215007  -0.000010
    25  H    0.188976  -0.000116
    26  H    0.131074   0.000552
    27  H    0.126660   0.000617
    28  H    0.333381  -0.000023
    29  H    0.337364  -0.000594
    30  H    0.179838  -0.003082
    31  H    0.215060  -0.015751
    32  H    0.146920   0.005383
    33  H    0.022354  -0.024795
 Sum of Mulliken charges =  -1.00000   1.00000

 Dipole moment (field-independent basis, Debye):
    X=            -11.1571    Y=              2.0092    Z=             -0.0033  Tot=             11.3366
 Quadrupole moment (field-independent basis, Debye-Ang):
   XX=           -261.0857   YY=           -126.5650   ZZ=           -123.3175
   XY=             -0.7810   XZ=              0.0026   YZ=             -0.0027

 Summary of Natural Population Analysis:

                                       Natural Population
                Natural  -----------------------------------------------
    Atom  No    Charge         Core      Valence    Rydberg      Total
 -----------------------------------------------------------------------
      C    1   -0.28862      0.99965     2.28409    0.00488     3.28862
      C    2   -0.14656      0.99957     2.13939    0.00760     3.14656
      C    3   -0.28863      0.99965     2.28409    0.00489     3.28863
      C    4    0.35376      0.99965     1.62365    0.02295     2.64624
      O    5   -0.31925      0.99988     3.31199    0.00739     4.31925
      N    6   -0.31311      0.99962     2.80506    0.00844     3.81311
      C    7    0.25744      0.99964     1.72515    0.01777     2.74256
      N    8   -0.19122      0.99971     2.67973    0.01178     3.69122
      N    9   -0.17342      0.99965     2.66273    0.01104     3.67342
      C   10    0.21273      0.99960     1.77252    0.01514     2.78727
      N   11   -0.29219      0.99967     2.78055    0.01197     3.79219
      C   12   -0.07260      0.99938     2.06395    0.00926     3.07260
      C   13   -0.07755      0.99943     2.06793    0.01019     3.07755
      C   14    0.05786      0.99932     1.92981    0.01301     2.94214
      C   15   -0.05648      0.99960     2.03892    0.01797     3.05648
      C   16   -0.08194      0.99946     2.07586    0.00661     3.08194
      C   17   -0.03344      0.99961     2.01740    0.01642     3.03344
      N   18    0.29668      0.99972     2.17593    0.02767     3.20332
      O   19   -0.19336      0.99990     3.18516    0.00831     4.19336
      O   20   -0.19420      0.99990     3.18635    0.00795     4.19420
      H   21    0.11737      0.00000     0.38167    0.00096     0.38263
      H   22    0.09709      0.00000     0.40211    0.00080     0.40291
      H   23    0.09668      0.00000     0.40245    0.00087     0.40332
      H   24    0.10380      0.00000     0.39428    0.00192     0.39620
      H   25    0.11737      0.00000     0.38167    0.00096     0.38263
      H   26    0.09708      0.00000     0.40212    0.00080     0.40292
      H   27    0.09669      0.00000     0.40245    0.00087     0.40331
      H   28    0.20304      0.00000     0.29431    0.00265     0.29696
      H   29    0.20412      0.00000     0.29396    0.00192     0.29588
      H   30    0.11119      0.00000     0.38787    0.00094     0.38881
      H   31    0.11154      0.00000     0.38702    0.00144     0.38846
      H   32    0.08987      0.00000     0.40886    0.00127     0.41013
      H   33    0.09886      0.00000     0.39976    0.00139     0.40114
 =======================================================================
   * Total *    0.00059     19.99259    51.74879    0.25803    71.99941

 Normal termination of Gaussian 16 at Sun Dec 13 17:56:51 2020.
