 Gaussian 16, Revision A.03,

 -----------------------------------------------------------
 # opt freq B3LYP/6-31G(d) empiricaldispersion=gd3bj scf=xqc
 -----------------------------------------------------------

 -------------------------
 CID_8487_JID_224_neutraal
 -------------------------
 Symbolic Z-matrix:
 Charge =  0 Multiplicity = 1

 SCF Done:  E(RB3LYP) =  -460.142242340     A.U. after   14 cycles
 SCF Done:  E(RB3LYP) =  -460.143352149     A.U. after   12 cycles
 SCF Done:  E(RB3LYP) =  -460.143410214     A.U. after   12 cycles
 SCF Done:  E(RB3LYP) =  -460.143341121     A.U. after   11 cycles
 SCF Done:  E(RB3LYP) =  -460.143424432     A.U. after   11 cycles
 SCF Done:  E(RB3LYP) =  -460.143431588     A.U. after    9 cycles
 SCF Done:  E(RB3LYP) =  -460.143432765     A.U. after    9 cycles
 SCF Done:  E(RB3LYP) =  -460.143432851     A.U. after    7 cycles
 Optimization completed.
    -- Stationary point found.
 Normal termination of Gaussian 16 at Tue Dec  8 10:18:53 2020.

 --------------------------------------------------------------------
 #N Geom=AllCheck Guess=TCheck SCRF=Check GenChk RB3LYP/6-31G(d) Freq
 --------------------------------------------------------------------

 Structure from the checkpoint file:  "JID_224.chk"
 -------------------------
 CID_8487_JID_224_neutraal
 -------------------------
 Charge =  0 Multiplicity = 1

 SCF Done:  E(RB3LYP) =  -460.143432851     A.U. after    1 cycles

  Exact polarizability: 118.521   1.211 100.586  -0.001  -0.002  37.422
 Approx polarizability: 190.449 -11.776 169.365  -0.004  -0.003  56.729

                      1                      2                      3
                      A                      A                      A
 Frequencies --     58.8443               147.1288               174.5735
 Red. masses --      4.5439                 4.5037                 1.0485
 Frc consts  --      0.0093                 0.0574                 0.0188
 IR Inten    --      2.9729                 0.9974                 0.1210

                      4                      5                      6
                      A                      A                      A
 Frequencies --    191.9743               240.3424               356.3634
 Red. masses --      4.3471                 4.1964                 1.1094
 Frc consts  --      0.0944                 0.1428                 0.0830
 IR Inten    --      3.0579                 0.9578               120.6394

                      7                      8                      9
                      A                      A                      A
 Frequencies --    367.4291               386.1086               434.5279
 Red. masses --      4.7932                 4.5695                 3.2812
 Frc consts  --      0.3813                 0.4014                 0.3650
 IR Inten    --      1.2527                12.4140                 0.5050

                     10                     11                     12
                      A                      A                      A
 Frequencies --    486.2358               509.6932               537.2532
 Red. masses --      4.1773                 3.3354                 6.4619
 Frc consts  --      0.5819                 0.5105                 1.0989
 IR Inten    --      5.5221                 3.7225                 1.2243

                     13                     14                     15
                      A                      A                      A
 Frequencies --    610.9445               640.3468               700.7638
 Red. masses --      4.4158                 3.1201                 2.2862
 Frc consts  --      0.9711                 0.7538                 0.6615
 IR Inten    --     24.4121                 0.7774                11.2519

                     16                     17                     18
                      A                      A                      A
 Frequencies --    722.1045               815.2019               851.3089
 Red. masses --      6.1116                 1.3850                 1.5318
 Frc consts  --      1.8776                 0.5423                 0.6541
 IR Inten    --      6.1872                27.6325                19.9430

                     19                     20                     21
                      A                      A                      A
 Frequencies --    925.5933               928.0139               970.2724
 Red. masses --      1.3539                 5.2176                 2.0074
 Frc consts  --      0.6834                 2.6475                 1.1135
 IR Inten    --      0.0690                17.0708                25.3497

                     22                     23                     24
                      A                      A                      A
 Frequencies --    989.1629              1019.6083              1056.2697
 Red. masses --      1.2767                 6.1289                 1.8651
 Frc consts  --      0.7360                 3.7540                 1.2261
 IR Inten    --      0.8041                 1.9139                 1.5911

                     25                     26                     27
                      A                      A                      A
 Frequencies --   1105.0613              1115.3009              1192.5737
 Red. masses --      1.8073                 1.5845                 1.1160
 Frc consts  --      1.3003                 1.1612                 0.9351
 IR Inten    --      4.2061                 7.7013                 6.0564

                     28                     29                     30
                      A                      A                      A
 Frequencies --   1216.3913              1258.5353              1332.4277
 Red. masses --      1.3597                 2.2804                 3.2143
 Frc consts  --      1.1854                 2.1281                 3.3622
 IR Inten    --    171.9020               121.0404               185.5350

                     31                     32                     33
                      A                      A                      A
 Frequencies --   1359.1815              1385.4225              1410.5639
 Red. masses --      1.5337                 5.2228                 1.3466
 Frc consts  --      1.6694                 5.9063                 1.5786
 IR Inten    --      0.8551                24.0396                45.6835

                     34                     35                     36
                      A                      A                      A
 Frequencies --   1496.1004              1500.6719              1508.3842
 Red. masses --      3.0237                 1.0563                 1.0483
 Frc consts  --      3.9876                 1.4015                 1.4052
 IR Inten    --     88.0907                 8.2386                 9.5714

                     37                     38                     39
                      A                      A                      A
 Frequencies --   1550.2442              1657.3982              1663.4786
 Red. masses --      2.5334                 5.7933                 5.8243
 Frc consts  --      3.5872                 9.3763                 9.4957
 IR Inten    --      5.9141                24.6746                61.7252

                     40                     41                     42
                      A                      A                      A
 Frequencies --   1782.7879              3053.4691              3113.0378
 Red. masses --     10.7706                 1.0384                 1.1000
 Frc consts  --     20.1693                 5.7042                 6.2807
 IR Inten    --    161.9669                 3.1778                10.5955

                     43                     44                     45
                      A                      A                      A
 Frequencies --   3172.3336              3187.2197              3198.1530
 Red. masses --      1.1010                 1.0892                 1.0882
 Frc consts  --      6.5280                 6.5190                 6.5575
 IR Inten    --     10.8366                14.0173                 9.9735

                     46                     47                     48
                      A                      A                      A
 Frequencies --   3221.0022              3236.8932              3751.8796
 Red. masses --      1.0933                 1.0926                 1.0659
 Frc consts  --      6.6827                 6.7445                 8.8405
 IR Inten    --      7.1116                 3.5106                37.9799

 - Thermochemistry -
 -------------------
 Temperature   298.150 Kelvin.  Pressure   1.00000 Atm.
 Atom     1 has atomic number  6 and mass  12.00000

 Molecular mass:   136.05243 amu.
 Principal axes and moments of inertia in atomic units:
                           1         2         3
     Eigenvalues --   709.484141904.076852602.31493
           X            0.99910   0.04250   0.00000
           Y           -0.04250   0.99910  -0.00000
           Z           -0.00000   0.00000   1.00000
 This molecule is an asymmetric top.
 Rotational symmetry number  1.
 Warning -- assumption of classical behavior for rotation
           may cause significant error
 Rotational temperatures (Kelvin)      0.12208     0.04549     0.03328
 Rotational constants (GHZ):           2.54374     0.94783     0.69351
 Zero-point vibrational energy     374362.8 (Joules/Mol)
                                   89.47486 (Kcal/Mol)
 Warning -- explicit consideration of  13 degrees of freedom as
           vibrations may cause significant error
 Vibrational temperatures:     84.66   211.69   251.17   276.21   345.80
          (Kelvin)            512.73   528.65   555.52   625.19   699.58
                              733.33   772.99   879.01   921.32  1008.24
                             1038.95  1172.89  1224.84  1331.72  1335.21
                             1396.01  1423.18  1466.99  1519.74  1589.94
                             1604.67  1715.85  1750.12  1810.75  1917.07
                             1955.56  1993.31  2029.49  2152.55  2159.13
                             2170.23  2230.46  2384.63  2393.37  2565.03
                             4393.26  4478.97  4564.28  4585.70  4601.43
                             4634.30  4657.17  5398.12

 Zero-point correction=                           0.142587 (Hartree/Particle)
 Thermal correction to Energy=                    0.151549
 Thermal correction to Enthalpy=                  0.152493
 Thermal correction to Gibbs Free Energy=         0.108486
 Sum of electronic and zero-point Energies=           -460.000846
 Sum of electronic and thermal Energies=              -459.991884
 Sum of electronic and thermal Enthalpies=            -459.990940
 Sum of electronic and thermal Free Energies=         -460.034947

                     E (Thermal)             CV                S
                      KCal/Mol        Cal/Mol-Kelvin    Cal/Mol-Kelvin
 Total                   95.098             34.173             92.621
 Electronic               0.000              0.000              0.000
 Translational            0.889              2.981             40.636
 Rotational               0.889              2.981             29.643
 Vibrational             93.321             28.211             22.343
 Vibration     1          0.596              1.974              4.496
 Vibration     2          0.617              1.906              2.709
 Vibration     3          0.627              1.874              2.386
 Vibration     4          0.634              1.851              2.209
 Vibration     5          0.657              1.779              1.800
 Vibration     6          0.732              1.562              1.138
 Vibration     7          0.740              1.539              1.091
 Vibration     8          0.755              1.500              1.015
 Vibration     9          0.795              1.395              0.844
 Vibration    10          0.842              1.281              0.693
 Vibration    11          0.865              1.229              0.634
 Vibration    12          0.892              1.168              0.571
 Vibration    13          0.970              1.009              0.431

 Optimization completed.
    -- Stationary point found.
 Normal termination of Gaussian 16 at Tue Dec  8 10:21:41 2020.

 ----------------------------------------------------------------------
 # B3LYP/6-311++G(d,p) empiricaldispersion=gd3bj scf=xqc pop=npa geom=c
 heck
 ----------------------------------------------------------------------

 ---------------------------------
 CID_8487_JID_224_Energie_neutraal
 ---------------------------------
 Structure from the checkpoint file:  "JID_224.chk"
 Charge =  0 Multiplicity = 1

 SCF Done:  E(RB3LYP) =  -460.280118245     A.U. after   15 cycles
 Normal termination of Gaussian 16 at Tue Dec  8 10:22:37 2020.

 ----------------------------------------------------------------------
 # B3LYP/6-311++G(d,p) empiricaldispersion=gd3bj scf=xqc pop=npa geom=c
 heck
 ----------------------------------------------------------------------

 -------------------------------
 CID_8487_JID_224_Energie_kation
 -------------------------------
 Structure from the checkpoint file:  "JID_224.chk"
 Charge =  1 Multiplicity = 2

 SCF Done:  E(UB3LYP) =  -459.960116115     A.U. after   29 cycles
 Normal termination of Gaussian 16 at Tue Dec  8 10:25:42 2020.
 Gaussian 16:  ES64L-G16RevA.03 25-Dec-2016

 ----------------------------------------------------------------------
 # B3LYP/6-311++G(d,p) empiricaldispersion=gd3bj scf=xqc pop=npa geom=c
 heck
 ----------------------------------------------------------------------

 ------------------------------
 CID_8487_JID_224_Energie_anion
 ------------------------------
 Structure from the checkpoint file:  "JID_224.chk"
 Charge = -1 Multiplicity = 2

                         Standard orientation:
 ---------------------------------------------------------------------
 Center     Atomic      Atomic             Coordinates (Angstroms)
 Number     Number       Type             X           Y           Z
 ---------------------------------------------------------------------
      1          6           0       -2.505832   -1.497716   -0.000163
      2          6           0       -2.023841   -0.056946    0.000036
      3          8           0       -2.824404    0.865146    0.000191
      4          6           0       -0.549749    0.208893    0.000017
      5          6           0        0.393940   -0.828160    0.000030
      6          6           0        1.758406   -0.533782    0.000033
      7          6           0        2.188184    0.797374   -0.000034
      8          6           0        1.246938    1.824738   -0.000085
      9          6           0       -0.116355    1.540407   -0.000051
     10          8           0        2.722188   -1.503243    0.000041
     11          1           0       -3.596697   -1.501634   -0.000108
     12          1           0       -2.140446   -2.034075    0.883571
     13          1           0       -2.140521   -2.033749   -0.884129
     14          1           0        0.073595   -1.866799    0.000019
     15          1           0        3.253667    1.002662   -0.000049
     16          1           0        1.585471    2.856784   -0.000151
     17          1           0       -0.862485    2.326453   -0.000061
     18          1           0        2.294990   -2.373720    0.000351
 ---------------------------------------------------------------------

 SCF Done:  E(UB3LYP) =  -460.287326413     A.U. after   30 cycles

 The electronic state is 2-A.
 Alpha  occ. eigenvalues --  -19.02157 -18.90318 -10.08053 -10.04924 -10.01772
 Alpha  occ. eigenvalues --  -10.01726 -10.00902 -10.00361  -9.99999  -9.99921
 Alpha  occ. eigenvalues --   -0.92984  -0.84610  -0.69249  -0.60638  -0.58301
 Alpha  occ. eigenvalues --   -0.57010  -0.48087  -0.45894  -0.40589  -0.35632
 Alpha  occ. eigenvalues --   -0.34574  -0.31351  -0.29056  -0.28514  -0.28097
 Alpha  occ. eigenvalues --   -0.26948  -0.25789  -0.23561  -0.23329  -0.20571
 Alpha  occ. eigenvalues --   -0.19777  -0.19288  -0.17617  -0.10513  -0.07873
 Alpha  occ. eigenvalues --   -0.06945   0.05782
 Alpha virt. eigenvalues --    0.08649   0.10336   0.10552   0.12373   0.12812
 Alpha virt. eigenvalues --    0.13377   0.14731   0.14781   0.16423   0.17122
 Alpha virt. eigenvalues --    0.18264   0.18322   0.18630   0.20041   0.20558

  Beta  occ. eigenvalues --  -19.02170 -18.89726 -10.08137 -10.04573 -10.01805
  Beta  occ. eigenvalues --  -10.01745 -10.00695 -10.00050  -9.99848  -9.99788
  Beta  occ. eigenvalues --   -0.93012  -0.83531  -0.68897  -0.60056  -0.58023
  Beta  occ. eigenvalues --   -0.56757  -0.47741  -0.45336  -0.40385  -0.35148
  Beta  occ. eigenvalues --   -0.34245  -0.31149  -0.28838  -0.28009  -0.27827
  Beta  occ. eigenvalues --   -0.26804  -0.25534  -0.23374  -0.23000  -0.19547
  Beta  occ. eigenvalues --   -0.19129  -0.19054  -0.15674  -0.08878  -0.06659
  Beta  occ. eigenvalues --   -0.06395
  Beta virt. eigenvalues --    0.08566   0.10280   0.10480   0.11926   0.12338
  Beta virt. eigenvalues --    0.13332   0.13389   0.14659   0.15129   0.16358
  Beta virt. eigenvalues --    0.17006   0.18198   0.18353   0.19997   0.20197

 Mulliken charges and spin densities:
               1          2
     1  C   -0.432184  -0.036943
     2  C   -0.322502   0.200339
     3  O   -0.414195   0.213379
     4  C    1.531929   0.047868
     5  C   -1.150230   0.191993
     6  C   -0.588322  -0.037260
     7  C   -0.090654   0.240598
     8  C   -0.359749   0.000079
     9  C    0.112754   0.148550
    10  O   -0.269253   0.000082
    11  H    0.146139  -0.002372
    12  H    0.079719   0.038445
    13  H    0.079976   0.038183
    14  H    0.059748  -0.013801
    15  H    0.113530  -0.021178
    16  H    0.106844   0.000326
    17  H    0.147687  -0.008118
    18  H    0.248760  -0.000170
 Sum of Mulliken charges =  -1.00000   1.00000

 Dipole moment (field-independent basis, Debye):
    X=              3.1092    Y=             -3.2851    Z=             -0.0010  Tot=              4.5232
 Quadrupole moment (field-independent basis, Debye-Ang):
   XX=            -97.0687   YY=            -65.8870   ZZ=            -68.1308
   XY=              4.9213   XZ=              0.0035   YZ=              0.0013

 Summary of Natural Population Analysis:

                                       Natural Population
                Natural  -----------------------------------------------
    Atom  No    Charge         Core      Valence    Rydberg      Total
 -----------------------------------------------------------------------
      C    1   -0.33192      0.99965     2.32766    0.00462     3.33192
      C    2    0.30814      0.99966     1.67185    0.02036     2.69186
      O    3   -0.25114      0.99988     3.24429    0.00698     4.25114
      C    4   -0.02608      0.99949     2.01556    0.01103     3.02608
      C    5   -0.09903      0.99950     2.09145    0.00808     3.09903
      C    6    0.13256      0.99939     1.85592    0.01213     2.86744
      C    7   -0.08006      0.99953     2.07023    0.01029     3.08006
      C    8   -0.11165      0.99958     2.10274    0.00933     3.11165
      C    9   -0.07936      0.99953     2.07032    0.00951     3.07936
      O   10   -0.35357      0.99988     3.34735    0.00634     4.35357
      H   11    0.10015      0.00000     0.39841    0.00144     0.39985
      H   12    0.09762      0.00000     0.39997    0.00241     0.40238
      H   13    0.09762      0.00000     0.39998    0.00240     0.40238
      H   14    0.08741      0.00000     0.41136    0.00124     0.41259
      H   15    0.08964      0.00000     0.40882    0.00153     0.41036
      H   16    0.08768      0.00000     0.41118    0.00114     0.41232
      H   17    0.10525      0.00000     0.39356    0.00119     0.39475
      H   18    0.22673      0.00000     0.27082    0.00246     0.27327
 =======================================================================
   * Total *   -0.00000      9.99607    25.89146    0.11247    36.00000

 Normal termination of Gaussian 16 at Tue Dec  8 10:28:54 2020.
