 Gaussian 16, Revision A.03,

 -----------------------------------------------------------
 # opt freq B3LYP/6-31G(d) empiricaldispersion=gd3bj scf=xqc
 -----------------------------------------------------------

 ------------------------------
 CID_79682442_JID_8076_neutraal
 ------------------------------
 Symbolic Z-matrix:
 Charge =  0 Multiplicity = 1

 SCF Done:  E(RB3LYP) =  -1185.51247356     A.U. after   15 cycles
 SCF Done:  E(RB3LYP) =  -1185.50192030     A.U. after   15 cycles
 SCF Done:  E(RB3LYP) =  -1185.51622698     A.U. after   13 cycles
 SCF Done:  E(RB3LYP) =  -1185.51125231     A.U. after   15 cycles
 SCF Done:  E(RB3LYP) =  -1185.51807714     A.U. after   13 cycles
 SCF Done:  E(RB3LYP) =  -1185.51920336     A.U. after   13 cycles
 SCF Done:  E(RB3LYP) =  -1185.51538503     A.U. after   13 cycles
 SCF Done:  E(RB3LYP) =  -1185.52254814     A.U. after   13 cycles
 SCF Done:  E(RB3LYP) =  -1185.52385331     A.U. after   13 cycles
 SCF Done:  E(RB3LYP) =  -1185.52377701     A.U. after   12 cycles
 SCF Done:  E(RB3LYP) =  -1185.52478067     A.U. after    9 cycles
 SCF Done:  E(RB3LYP) =  -1185.52478090     A.U. after    9 cycles
 SCF Done:  E(RB3LYP) =  -1185.52478095     A.U. after    7 cycles
 SCF Done:  E(RB3LYP) =  -1185.52478097     A.U. after    6 cycles
 SCF Done:  E(RB3LYP) =  -1185.52478098     A.U. after    6 cycles
 Optimization completed.
    -- Stationary point found.
 Normal termination of Gaussian 16 at Fri Dec 11 19:09:02 2020.

 --------------------------------------------------------------------
 #N Geom=AllCheck Guess=TCheck SCRF=Check GenChk RB3LYP/6-31G(d) Freq
 --------------------------------------------------------------------

 Structure from the checkpoint file:  "JID_8076.chk"
 ------------------------------
 CID_79682442_JID_8076_neutraal
 ------------------------------
 Charge =  0 Multiplicity = 1

 SCF Done:  E(RB3LYP) =  -1185.52478098     A.U. after    1 cycles

  Exact polarizability: 230.631   4.174 180.387  12.329   1.276 107.125
 Approx polarizability: 308.639  11.865 283.875  30.709   5.497 171.530

                      1                      2                      3
                      A                      A                      A
 Frequencies --     23.1828                27.7342                32.6961
 Red. masses --      1.2570                 2.5014                 6.2174
 Frc consts  --      0.0004                 0.0011                 0.0039
 IR Inten    --      0.1615                 0.3244                 0.1667

                      4                      5                      6
                      A                      A                      A
 Frequencies --     53.7922                59.0230                78.6384
 Red. masses --      5.4635                 5.3882                 7.4678
 Frc consts  --      0.0093                 0.0111                 0.0272
 IR Inten    --      0.4446                 0.9987                 0.1007

                      7                      8                      9
                      A                      A                      A
 Frequencies --    112.7622               128.0556               152.3587
 Red. masses --      5.6655                 2.8858                 4.2906
 Frc consts  --      0.0424                 0.0279                 0.0587
 IR Inten    --      1.7249                 0.8680                 0.8391

                     10                     11                     12
                      A                      A                      A
 Frequencies --    157.7469               170.6621               216.1828
 Red. masses --      1.0963                 6.9948                 4.9615
 Frc consts  --      0.0161                 0.1200                 0.1366
 IR Inten    --      0.1944                 2.5110                 7.8224

                     13                     14                     15
                      A                      A                      A
 Frequencies --    226.7760               250.9657               270.7552
 Red. masses --      3.2339                 6.8129                 3.4394
 Frc consts  --      0.0980                 0.2528                 0.1486
 IR Inten    --      3.8301                 5.2245                 0.6910

                     16                     17                     18
                      A                      A                      A
 Frequencies --    293.6348               305.3746               313.7714
 Red. masses --      3.3664                 2.9018                 3.2283
 Frc consts  --      0.1710                 0.1594                 0.1873
 IR Inten    --      2.8278                 7.2468                 1.1280

                     19                     20                     21
                      A                      A                      A
 Frequencies --    329.4239               381.6581               410.4687
 Red. masses --      3.1698                 6.1178                 4.5648
 Frc consts  --      0.2027                 0.5250                 0.4531
 IR Inten    --      7.4273                 1.6331                11.6577

                     22                     23                     24
                      A                      A                      A
 Frequencies --    432.3553               456.7530               473.5249
 Red. masses --      2.3729                 2.9661                 3.2179
 Frc consts  --      0.2613                 0.3646                 0.4251
 IR Inten    --      2.5457                 4.9879                 3.8688

                     25                     26                     27
                      A                      A                      A
 Frequencies --    480.1021               527.8824               551.2374
 Red. masses --      4.2855                 2.2983                 1.0726
 Frc consts  --      0.5820                 0.3773                 0.1920
 IR Inten    --      7.5582                 9.4598                70.5768

                     28                     29                     30
                      A                      A                      A
 Frequencies --    565.3755               594.7965               644.9055
 Red. masses --      3.6832                 2.9030                 2.4406
 Frc consts  --      0.6937                 0.6051                 0.5980
 IR Inten    --      9.7614                 8.7574                 5.9306

                     31                     32                     33
                      A                      A                      A
 Frequencies --    652.3120               682.0609               722.0526
 Red. masses --      2.2045                 4.0778                 3.7032
 Frc consts  --      0.5527                 1.1177                 1.1375
 IR Inten    --     58.7838                21.5126                 9.8206

                     34                     35                     36
                      A                      A                      A
 Frequencies --    728.6347               743.8866               745.0037
 Red. masses --      3.3259                 2.5452                 1.5028
 Frc consts  --      1.0404                 0.8298                 0.4914
 IR Inten    --     32.4243                25.1172                72.1308

                     37                     38                     39
                      A                      A                      A
 Frequencies --    788.7941               816.5215               827.7098
 Red. masses --      4.9787                 3.5654                 2.7674
 Frc consts  --      1.8251                 1.4005                 1.1171
 IR Inten    --      8.2371                12.2781                 2.7252

                     40                     41                     42
                      A                      A                      A
 Frequencies --    834.2403               890.0428               899.3067
 Red. masses --      1.5147                 4.2339                 1.8069
 Frc consts  --      0.6211                 1.9761                 0.8610
 IR Inten    --     20.4622                 2.3068                14.6554

                     43                     44                     45
                      A                      A                      A
 Frequencies --    931.1111               940.0823               960.6629
 Red. masses --      1.4335                 1.6708                 1.3195
 Frc consts  --      0.7322                 0.8700                 0.7175
 IR Inten    --      8.8072                13.1182                 1.6209

                     46                     47                     48
                      A                      A                      A
 Frequencies --    976.0549               986.4701              1033.9476
 Red. masses --      2.1097                 1.9946                 1.8397
 Frc consts  --      1.1842                 1.1436                 1.1588
 IR Inten    --     17.9027                 4.3401                 7.2386

                     49                     50                     51
                      A                      A                      A
 Frequencies --   1048.1773              1065.6670              1072.0479
 Red. masses --      1.5141                 3.3646                 1.5026
 Frc consts  --      0.9801                 2.2513                 1.0174
 IR Inten    --      1.7135                16.7551                 3.5958

                     52                     53                     54
                      A                      A                      A
 Frequencies --   1078.8397              1099.8378              1125.8354
 Red. masses --      1.5178                 2.0802                 2.9754
 Frc consts  --      1.0408                 1.4826                 2.2220
 IR Inten    --     12.9109               138.7524                24.0547

                     55                     56                     57
                      A                      A                      A
 Frequencies --   1147.3236              1179.5365              1197.7589
 Red. masses --      2.1826                 1.1902                 1.4973
 Frc consts  --      1.6928                 0.9757                 1.2656
 IR Inten    --      6.1358                42.2101                 1.7708

                     58                     59                     60
                      A                      A                      A
 Frequencies --   1205.0232              1247.8085              1250.1157
 Red. masses --      1.1950                 1.8019                 1.2451
 Frc consts  --      1.0223                 1.6530                 1.1464
 IR Inten    --     34.7815                 1.2935                20.0170

                     61                     62                     63
                      A                      A                      A
 Frequencies --   1272.7697              1284.8472              1293.3296
 Red. masses --      1.1758                 1.3675                 2.4456
 Frc consts  --      1.1222                 1.3301                 2.4102
 IR Inten    --     12.0758                 5.3820                16.1184

                     64                     65                     66
                      A                      A                      A
 Frequencies --   1324.5361              1333.7181              1348.9226
 Red. masses --      1.3851                 1.5713                 5.3392
 Frc consts  --      1.4317                 1.6468                 5.7240
 IR Inten    --     19.2935                 1.9285                 1.7277

                     67                     68                     69
                      A                      A                      A
 Frequencies --   1398.2033              1411.4867              1413.6832
 Red. masses --      1.3289                 1.4402                 2.0964
 Frc consts  --      1.5307                 1.6905                 2.4684
 IR Inten    --     22.5700                51.9035               205.4277

                     70                     71                     72
                      A                      A                      A
 Frequencies --   1443.8323              1445.9177              1454.9259
 Red. masses --      1.2529                 1.2768                 1.2821
 Frc consts  --      1.5389                 1.5728                 1.5991
 IR Inten    --      0.3804                 1.7890                71.3466

                     73                     74                     75
                      A                      A                      A
 Frequencies --   1465.3484              1469.8009              1479.6557
 Red. masses --      2.8251                 1.9166                 1.2121
 Frc consts  --      3.5741                 2.4394                 1.5635
 IR Inten    --     13.2887                28.5208                53.8788

                     76                     77                     78
                      A                      A                      A
 Frequencies --   1495.4724              1498.8780              1514.6560
 Red. masses --      1.1024                 1.1863                 1.0560
 Frc consts  --      1.4526                 1.5703                 1.4274
 IR Inten    --     29.9070                56.9541                 7.3347

                     79                     80                     81
                      A                      A                      A
 Frequencies --   1518.2012              1520.6207              1532.2674
 Red. masses --      1.0496                 1.0970                 1.1358
 Frc consts  --      1.4254                 1.4945                 1.5712
 IR Inten    --      8.2746                 3.6405                20.3241

                     82                     83                     84
                      A                      A                      A
 Frequencies --   1534.1568              1565.1473              1634.0072
 Red. masses --      1.0916                 2.9343                 5.4848
 Frc consts  --      1.5137                 4.2350                 8.6281
 IR Inten    --     10.3301                46.8728                16.0613

                     85                     86                     87
                      A                      A                      A
 Frequencies --   1677.8262              1735.1627              3033.6064
 Red. masses --      6.2505                 6.5311                 1.0455
 Frc consts  --     10.3672                11.5855                 5.6690
 IR Inten    --     41.4866               570.7370                28.4050

                     88                     89                     90
                      A                      A                      A
 Frequencies --   3040.9411              3046.2727              3072.3128
 Red. masses --      1.0647                 1.0398                 1.0866
 Frc consts  --      5.8006                 5.6853                 6.0429
 IR Inten    --     42.1305                26.5388                35.9233

                     91                     92                     93
                      A                      A                      A
 Frequencies --   3090.2548              3095.9926              3103.1700
 Red. masses --      1.0925                 1.0596                 1.0972
 Frc consts  --      6.1469                 5.9837                 6.2250
 IR Inten    --     16.2241                 8.0814                17.1688

                     94                     95                     96
                      A                      A                      A
 Frequencies --   3105.1762              3109.6480              3132.8335
 Red. masses --      1.0969                 1.0600                 1.1024
 Frc consts  --      6.2316                 6.0394                 6.3747
 IR Inten    --     66.9901                 8.3097                14.0889

                     97                     98                     99
                      A                      A                      A
 Frequencies --   3136.4982              3150.4907              3165.8845
 Red. masses --      1.1002                 1.1056                 1.1076
 Frc consts  --      6.3772                 6.4658                 6.5406
 IR Inten    --     16.5742                 2.5194                 1.8717

                    100                    101                    102
                      A                      A                      A
 Frequencies --   3179.9670              3196.8346              3204.8893
 Red. masses --      1.0871                 1.0945                 1.0917
 Frc consts  --      6.4766                 6.5901                 6.6065
 IR Inten    --      9.8460                25.3705                 4.2188

                    103                    104                    105
                      A                      A                      A
 Frequencies --   3533.8954              3566.2018              3644.8141
 Red. masses --      1.0677                 1.0749                 1.0649
 Frc consts  --      7.8559                 8.0543                 8.3348
 IR Inten    --    636.5248                22.6587                48.5505

 - Thermochemistry -
 -------------------
 Temperature   298.150 Kelvin.  Pressure   1.00000 Atm.
 Atom     1 has atomic number  6 and mass  12.00000

 Molecular mass:   269.10857 amu.
 Principal axes and moments of inertia in atomic units:
                           1         2         3
     Eigenvalues --  2425.433759539.84664**********
           X            1.00000   0.00090  -0.00129
           Y           -0.00090   0.99998  -0.00551
           Z            0.00128   0.00551   0.99998
 This molecule is an asymmetric top.
 Rotational symmetry number  1.
 Warning -- assumption of classical behavior for rotation
           may cause significant error
 Rotational temperatures (Kelvin)      0.03571     0.00908     0.00763
 Rotational constants (GHZ):           0.74409     0.18918     0.15891
 Zero-point vibrational energy     815114.6 (Joules/Mol)
                                  194.81706 (Kcal/Mol)
 Warning -- explicit consideration of  29 degrees of freedom as
           vibrations may cause significant error
 Vibrational temperatures:     33.35    39.90    47.04    77.39    84.92
          (Kelvin)            113.14   162.24   184.24   219.21   226.96
                              245.54   311.04   326.28   361.08   389.56
                              422.48   439.37   451.45   473.97   549.12
                              590.57   622.06   657.17   681.30   690.76
                              759.51   793.11   813.45   855.78   927.88
                              938.53   981.33  1038.87  1048.34  1070.29
                             1071.89  1134.90  1174.79  1190.89  1200.29
                             1280.57  1293.90  1339.66  1352.57  1382.18
                             1404.33  1419.31  1487.62  1508.09  1533.26
                             1542.44  1552.21  1582.42  1619.83  1650.74
                             1697.09  1723.31  1733.76  1795.32  1798.64
                             1831.23  1848.61  1860.81  1905.71  1918.92
                             1940.80  2011.70  2030.81  2033.97  2077.35
                             2080.35  2093.31  2108.31  2114.72  2128.89
                             2151.65  2156.55  2179.25  2184.35  2187.83
                             2204.59  2207.31  2251.90  2350.97  2414.02
                             2496.51  4364.68  4375.24  4382.91  4420.37
                             4446.19  4454.44  4464.77  4467.66  4474.09
                             4507.45  4512.72  4532.85  4555.00  4575.26
                             4599.53  4611.12  5084.49  5130.97  5244.07

 Zero-point correction=                           0.310461 (Hartree/Particle)
 Thermal correction to Energy=                    0.329510
 Thermal correction to Enthalpy=                  0.330454
 Thermal correction to Gibbs Free Energy=         0.260995
 Sum of electronic and zero-point Energies=          -1185.214320
 Sum of electronic and thermal Energies=             -1185.195271
 Sum of electronic and thermal Enthalpies=           -1185.194327
 Sum of electronic and thermal Free Energies=        -1185.263785

                     E (Thermal)             CV                S
                      KCal/Mol        Cal/Mol-Kelvin    Cal/Mol-Kelvin
 Total                  206.770             70.985            146.187
 Electronic               0.000              0.000              0.000
 Translational            0.889              2.981             42.669
 Rotational               0.889              2.981             33.929
 Vibrational            204.993             65.023             69.589
 Vibration     1          0.593              1.985              6.341
 Vibration     2          0.593              1.984              5.985
 Vibration     3          0.594              1.983              5.659
 Vibration     4          0.596              1.976              4.673
 Vibration     5          0.596              1.974              4.490
 Vibration     6          0.600              1.964              3.925
 Vibration     7          0.607              1.939              3.221
 Vibration     8          0.611              1.925              2.975
 Vibration     9          0.619              1.900              2.643
 Vibration    10          0.621              1.894              2.577
 Vibration    11          0.626              1.879              2.428
 Vibration    12          0.645              1.816              1.991
 Vibration    13          0.650              1.800              1.904
 Vibration    14          0.663              1.761              1.724
 Vibration    15          0.674              1.727              1.591
 Vibration    16          0.688              1.686              1.453
 Vibration    17          0.696              1.664              1.387
 Vibration    18          0.702              1.647              1.342
 Vibration    19          0.712              1.617              1.263
 Vibration    20          0.751              1.509              1.033
 Vibration    21          0.775              1.447              0.925
 Vibration    22          0.793              1.400              0.851
 Vibration    23          0.815              1.346              0.776
 Vibration    24          0.830              1.309              0.728
 Vibration    25          0.836              1.294              0.710
 Vibration    26          0.883              1.188              0.592
 Vibration    27          0.907              1.137              0.542
 Vibration    28          0.921              1.106              0.513
 Vibration    29          0.952              1.043              0.459

 Optimization completed.
    -- Stationary point found.
 Normal termination of Gaussian 16 at Fri Dec 11 19:26:50 2020.

 ----------------------------------------------------------------------
 # B3LYP/6-311++G(d,p) empiricaldispersion=gd3bj scf=xqc pop=npa geom=c
 heck
 ----------------------------------------------------------------------

 --------------------------------------
 CID_79682442_JID_8076_Energie_neutraal
 --------------------------------------
 Structure from the checkpoint file:  "JID_8076.chk"
 Charge =  0 Multiplicity = 1

 SCF Done:  E(RB3LYP) =  -1185.79166992     A.U. after   16 cycles
 Normal termination of Gaussian 16 at Fri Dec 11 19:35:50 2020.

 ----------------------------------------------------------------------
 # B3LYP/6-311++G(d,p) empiricaldispersion=gd3bj scf=xqc pop=npa geom=c
 heck
 ----------------------------------------------------------------------

 ------------------------------------
 CID_79682442_JID_8076_Energie_kation
 ------------------------------------
 Structure from the checkpoint file:  "JID_8076.chk"
 Charge =  1 Multiplicity = 2

 SCF Done:  E(UB3LYP) =  -1185.49308772     A.U. after   28 cycles
 Normal termination of Gaussian 16 at Fri Dec 11 19:58:59 2020.
 Gaussian 16:  ES64L-G16RevA.03 25-Dec-2016

 ----------------------------------------------------------------------
 # B3LYP/6-311++G(d,p) empiricaldispersion=gd3bj scf=xqc pop=npa geom=c
 heck
 ----------------------------------------------------------------------

 -----------------------------------
 CID_79682442_JID_8076_Energie_anion
 -----------------------------------
 Structure from the checkpoint file:  "JID_8076.chk"
 Charge = -1 Multiplicity = 2

                         Standard orientation:
 ---------------------------------------------------------------------
 Center     Atomic      Atomic             Coordinates (Angstroms)
 Number     Number       Type             X           Y           Z
 ---------------------------------------------------------------------
      1          6           0       -3.446467   -3.006584    0.118172
      2          6           0       -3.381329   -1.499879    0.062458
      3          6           0       -2.196500   -0.826672    0.371197
      4          6           0       -2.130831    0.567899    0.328520
      5          6           0       -3.263048    1.339352    0.012757
      6          6           0       -4.447711    0.654984   -0.273212
      7          6           0       -4.508511   -0.736771   -0.260750
      8          6           0       -3.195314    2.844700   -0.025087
      9          7           0       -0.914638    1.240869    0.639040
     10          6           0        0.333465    1.085067    0.113074
     11          8           0        1.259597    1.798534    0.516542
     12          6           0        0.559839    0.050512   -0.966619
     13         16           0        1.259849   -1.530242   -0.322974
     14          6           0        2.706080   -1.012869    0.688403
     15          6           0        4.032823   -0.815890   -0.062807
     16          6           0        4.033893    0.358491   -1.046143
     17          8           0        3.935293    1.589409   -0.347316
     18          8           0        5.049872   -0.592879    0.904392
     19          1           0       -2.449702   -3.451481    0.043481
     20          1           0       -3.890632   -3.348537    1.061865
     21          1           0       -4.061907   -3.408687   -0.693758
     22          1           0       -1.310738   -1.386756    0.653899
     23          1           0       -5.335526    1.228490   -0.526923
     24          1           0       -5.443519   -1.235504   -0.503039
     25          1           0       -3.038134    3.275545    0.973699
     26          1           0       -2.370622    3.194728   -0.656685
     27          1           0       -4.126051    3.265450   -0.415059
     28          1           0       -0.961739    2.018190    1.289517
     29          1           0       -0.368973   -0.242438   -1.459215
     30          1           0        1.229336    0.493858   -1.705309
     31          1           0        2.447700   -0.113827    1.252753
     32          1           0        2.835687   -1.824982    1.408928
     33          1           0        4.281995   -1.739845   -0.597785
     34          1           0        4.998837    0.371600   -1.562858
     35          1           0        3.251350    0.241002   -1.808001
     36          1           0        3.002187    1.715582   -0.069053
     37          1           0        5.018903    0.370844    1.059131
 ---------------------------------------------------------------------

 SCF Done:  E(UB3LYP) =  -1185.78778431     A.U. after   33 cycles
 SCF Done:  E(UB3LYP) =  -1185.78778431     a.u. after    1 cycles

 The electronic state is 2-A.
 Alpha  occ. eigenvalues --  -88.74116 -19.02708 -19.01786 -18.98001 -14.23578
 Alpha  occ. eigenvalues --  -10.15451 -10.12808 -10.12126 -10.10138 -10.09560
 Alpha  occ. eigenvalues --  -10.09550 -10.07150 -10.07093 -10.06952 -10.06873
 Alpha  occ. eigenvalues --  -10.06277 -10.05680 -10.05248  -7.82708  -5.79112
 Alpha  occ. eigenvalues --   -5.78740  -5.78068  -0.94335  -0.93286  -0.91030
 Alpha  occ. eigenvalues --   -0.82686  -0.74417  -0.70965  -0.68285  -0.65610
 Alpha  occ. eigenvalues --   -0.63313  -0.62062  -0.60895  -0.55783  -0.54474
 Alpha  occ. eigenvalues --   -0.51934  -0.49286  -0.48001  -0.46025  -0.42366
 Alpha  occ. eigenvalues --   -0.40914  -0.40503  -0.38778  -0.37586  -0.37159
 Alpha  occ. eigenvalues --   -0.36864  -0.36099  -0.33721  -0.32444  -0.32409
 Alpha  occ. eigenvalues --   -0.31852  -0.31609  -0.31124  -0.30324  -0.30186
 Alpha  occ. eigenvalues --   -0.29632  -0.29224  -0.27588  -0.26289  -0.25067
 Alpha  occ. eigenvalues --   -0.24683  -0.24299  -0.23831  -0.23541  -0.22230
 Alpha  occ. eigenvalues --   -0.19610  -0.18582  -0.17782  -0.16162  -0.14020
 Alpha  occ. eigenvalues --   -0.13059  -0.12075   0.04473
 Alpha virt. eigenvalues --    0.06481   0.07132   0.07549   0.08190   0.08495
 Alpha virt. eigenvalues --    0.08734   0.09286   0.09810   0.09974   0.10053
 Alpha virt. eigenvalues --    0.10744   0.11001   0.11728   0.12105   0.12317

  Beta  occ. eigenvalues --  -88.74083 -19.02708 -19.01787 -18.97793 -14.23627
  Beta  occ. eigenvalues --  -10.15130 -10.12804 -10.12118 -10.10136 -10.09556
  Beta  occ. eigenvalues --  -10.09389 -10.07143 -10.07037 -10.06933 -10.06866
  Beta  occ. eigenvalues --  -10.06281 -10.05642 -10.05078  -7.82672  -5.79041
  Beta  occ. eigenvalues --   -5.78708  -5.78045  -0.94319  -0.92893  -0.91019
  Beta  occ. eigenvalues --   -0.82512  -0.74254  -0.70857  -0.68157  -0.65499
  Beta  occ. eigenvalues --   -0.63064  -0.61995  -0.60813  -0.55646  -0.54281
  Beta  occ. eigenvalues --   -0.51684  -0.49176  -0.47889  -0.45844  -0.42350
  Beta  occ. eigenvalues --   -0.40825  -0.40458  -0.38537  -0.37433  -0.37054
  Beta  occ. eigenvalues --   -0.36749  -0.36034  -0.33429  -0.32301  -0.32239
  Beta  occ. eigenvalues --   -0.31736  -0.31500  -0.30984  -0.30249  -0.30111
  Beta  occ. eigenvalues --   -0.29557  -0.28864  -0.27514  -0.26061  -0.25036
  Beta  occ. eigenvalues --   -0.24421  -0.23976  -0.23731  -0.23465  -0.22064
  Beta  occ. eigenvalues --   -0.19573  -0.18217  -0.17491  -0.15990  -0.13636
  Beta  occ. eigenvalues --   -0.12796  -0.11518
  Beta virt. eigenvalues --    0.06707   0.07262   0.07417   0.08272   0.08589
  Beta virt. eigenvalues --    0.08676   0.09174   0.09332   0.09795   0.10184
  Beta virt. eigenvalues --    0.10648   0.10886   0.11109   0.11714   0.12161

 Mulliken charges and spin densities:
               1          2
     1  C    0.174428  -0.700301
     2  C    0.808047  -0.099414
     3  C   -0.041470  -0.174788
     4  C   -0.556719   0.422375
     5  C   -0.468009   1.278631
     6  C    0.238081  -0.841345
     7  C   -0.906133   0.262946
     8  C    0.717153  -1.325872
     9  N   -0.098645  -0.005536
    10  C   -0.715320   0.407724
    11  O   -0.401112   0.080945
    12  C    0.035776  -0.056516
    13  S    0.176666  -0.177475
    14  C   -0.062785  -0.225026
    15  C   -0.499844   0.168106
    16  C   -0.219771  -0.179737
    17  O   -0.355863   0.004654
    18  O   -0.180927   0.000220
    19  H    0.028460   0.105573
    20  H    0.162815  -0.012303
    21  H   -0.038020   0.175183
    22  H    0.075109   0.025308
    23  H   -0.230846   0.356743
    24  H   -0.157923   0.277075
    25  H    0.091210   0.045464
    26  H   -0.000152   0.180505
    27  H   -0.292700   0.446954
    28  H    0.202982   0.107994
    29  H    0.271520  -0.030156
    30  H    0.053853   0.186692
    31  H    0.244556  -0.036093
    32  H    0.141407   0.097793
    33  H   -0.008544   0.151971
    34  H    0.157160   0.037792
    35  H    0.077502   0.010996
    36  H    0.314762   0.039102
    37  H    0.263295  -0.006186
 Sum of Mulliken charges =  -1.00000   1.00000

 Dipole moment (field-independent basis, Debye):
    X=              1.7316    Y=             -1.4193    Z=              0.3991  Tot=              2.2743
 Quadrupole moment (field-independent basis, Debye-Ang):
   XX=           -208.8727   YY=           -156.9579   ZZ=           -132.5110
   XY=              3.0836   XZ=             -9.0169   YZ=             -0.2222

 Summary of Natural Population Analysis:

                                       Natural Population
                Natural  -----------------------------------------------
    Atom  No    Charge         Core      Valence    Rydberg      Total
 -----------------------------------------------------------------------
      C    1   -0.29059      0.99964     2.28603    0.00492     3.29059
      C    2   -0.01777      0.99952     2.01043    0.00782     3.01777
      C    3   -0.10659      0.99948     2.09946    0.00765     3.10659
      C    4    0.09393      0.99942     1.89586    0.01079     2.90607
      C    5   -0.01851      0.99948     2.01049    0.00854     3.01851
      C    6   -0.09955      0.99953     2.08994    0.01008     3.09955
      C    7   -0.07695      0.99952     2.06767    0.00976     3.07695
      C    8   -0.29535      0.99964     2.29002    0.00569     3.29535
      N    9   -0.31375      0.99964     2.80470    0.00941     3.81375
      C   10    0.38205      0.99965     1.59744    0.02086     2.61795
      O   11   -0.33800      0.99985     3.33154    0.00660     4.33800
      C   12   -0.28767      0.99955     2.27986    0.00826     3.28767
      S   13    0.09740      4.99964     2.88470    0.01827     7.90260
      C   14   -0.27235      0.99955     2.25867    0.01412     3.27235
      C   15    0.04108      0.99956     1.94191    0.01745     2.95892
      C   16   -0.02440      0.99958     2.01247    0.01235     3.02440
      O   17   -0.39526      0.99989     3.38773    0.00764     4.39526
      O   18   -0.37666      0.99990     3.36966    0.00710     4.37666
      H   19    0.10236      0.00000     0.39664    0.00100     0.39764
      H   20    0.09901      0.00000     0.39977    0.00122     0.40099
      H   21    0.10091      0.00000     0.39780    0.00129     0.39909
      H   22    0.10751      0.00000     0.39038    0.00211     0.39249
      H   23    0.09618      0.00000     0.40282    0.00099     0.40382
      H   24    0.09400      0.00000     0.40508    0.00092     0.40600
      H   25    0.09877      0.00000     0.40026    0.00097     0.40123
      H   26    0.10643      0.00000     0.39248    0.00109     0.39357
      H   27    0.10318      0.00000     0.39573    0.00109     0.39682
      H   28    0.19658      0.00000     0.30082    0.00261     0.30342
      H   29    0.11876      0.00000     0.38002    0.00122     0.38124
      H   30    0.10664      0.00000     0.39167    0.00168     0.39336
      H   31    0.11516      0.00000     0.38311    0.00173     0.38484
      H   32    0.10986      0.00000     0.38903    0.00111     0.39014
      H   33    0.08771      0.00000     0.41040    0.00189     0.41229
      H   34    0.08513      0.00000     0.41363    0.00124     0.41487
      H   35    0.08332      0.00000     0.41533    0.00135     0.41668
      H   36    0.25247      0.00000     0.24420    0.00333     0.24753
      H   37    0.23495      0.00000     0.26210    0.00295     0.26505
 =======================================================================
   * Total *   -0.00000     21.99302    49.78987    0.21711    72.00000

 Normal termination of Gaussian 16 at Fri Dec 11 20:26:07 2020.
