 Gaussian 16, Revision A.03,

 -----------------------------------------------------------
 # opt freq B3LYP/6-31G(d) empiricaldispersion=gd3bj scf=xqc
 -----------------------------------------------------------

 -------------------------------
 CID_123798282_JID_3729_neutraal
 -------------------------------
 Symbolic Z-matrix:
 Charge =  0 Multiplicity = 1

 SCF Done:  E(RB3LYP) =  -864.769531064     A.U. after   30 cycles
 SCF Done:  E(RB3LYP) =  -864.823780599     A.U. after   19 cycles
 SCF Done:  E(RB3LYP) =  -864.876925658     A.U. after   18 cycles
 SCF Done:  E(RB3LYP) =  -864.906649735     A.U. after   15 cycles
 SCF Done:  E(RB3LYP) =  -864.946819014     A.U. after   16 cycles
 SCF Done:  E(RB3LYP) =  -864.958571921     A.U. after   13 cycles
 SCF Done:  E(RB3LYP) =  -864.963257490     A.U. after   12 cycles
 SCF Done:  E(RB3LYP) =  -864.974441858     A.U. after   13 cycles
 SCF Done:  E(RB3LYP) =  -864.977812702     A.U. after   13 cycles
 SCF Done:  E(RB3LYP) =  -864.980071208     A.U. after   14 cycles
 SCF Done:  E(RB3LYP) =  -864.986838585     A.U. after    8 cycles
 SCF Done:  E(RB3LYP) =  -864.986838661     A.U. after    8 cycles
 SCF Done:  E(RB3LYP) =  -864.986838788     A.U. after    8 cycles
 SCF Done:  E(RB3LYP) =  -864.986838906     A.U. after    9 cycles
 SCF Done:  E(RB3LYP) =  -864.986838961     A.U. after    8 cycles
 SCF Done:  E(RB3LYP) =  -864.986838997     A.U. after    8 cycles
 Optimization completed.
    -- Stationary point found.
 Normal termination of Gaussian 16 at Sun Dec 13 12:37:51 2020.

 --------------------------------------------------------------------
 #N Geom=AllCheck Guess=TCheck SCRF=Check GenChk RB3LYP/6-31G(d) Freq
 --------------------------------------------------------------------

 Structure from the checkpoint file:  "JID_3729.chk"
 -------------------------------
 CID_123798282_JID_3729_neutraal
 -------------------------------
 Charge =  0 Multiplicity = 1

 SCF Done:  E(RB3LYP) =  -864.986838997     A.U. after    1 cycles

  Exact polarizability: 279.917   5.802 142.853  -1.553  -4.887  80.912
 Approx polarizability: 378.523   9.903 225.120  -0.536 -10.480 127.529

                      1                      2                      3
                      A                      A                      A
 Frequencies --      6.9599                20.4498                26.3720
 Red. masses --      3.5009                 4.0751                 4.0553
 Frc consts  --      0.0001                 0.0010                 0.0017
 IR Inten    --      0.1885                 2.2413                 3.9059

                      4                      5                      6
                      A                      A                      A
 Frequencies --     75.7396                97.5562               109.1370
 Red. masses --      1.9605                 2.6878                 4.1153
 Frc consts  --      0.0066                 0.0151                 0.0289
 IR Inten    --     50.8403                 2.6284                31.5205

                      7                      8                      9
                      A                      A                      A
 Frequencies --    126.8938               143.5523               179.7231
 Red. masses --      3.6796                 1.8259                 3.2831
 Frc consts  --      0.0349                 0.0222                 0.0625
 IR Inten    --      0.3806                26.8657                12.1655

                     10                     11                     12
                      A                      A                      A
 Frequencies --    251.7005               257.1343               272.0191
 Red. masses --      1.0962                 1.1129                 3.0924
 Frc consts  --      0.0409                 0.0434                 0.1348
 IR Inten    --      2.8960                 0.8212                10.0198

                     13                     14                     15
                      A                      A                      A
 Frequencies --    306.2168               335.3376               349.3017
 Red. masses --      3.6407                 2.8343                 2.7319
 Frc consts  --      0.2011                 0.1878                 0.1964
 IR Inten    --      6.3295                32.2179                 7.9063

                     16                     17                     18
                      A                      A                      A
 Frequencies --    378.0327               392.6589               415.6205
 Red. masses --      3.1108                 5.0386                 3.0626
 Frc consts  --      0.2619                 0.4577                 0.3117
 IR Inten    --     11.6541                29.0913                 0.0033

                     19                     20                     21
                      A                      A                      A
 Frequencies --    497.5116               530.2202               537.3071
 Red. masses --      7.2301                 7.6894                 5.0446
 Frc consts  --      1.0544                 1.2737                 0.8581
 IR Inten    --    100.8962                 1.0095               120.6635

                     22                     23                     24
                      A                      A                      A
 Frequencies --    559.5159               638.4006               653.5048
 Red. masses --      3.5400                 6.5360                 3.7133
 Frc consts  --      0.6530                 1.5695                 0.9344
 IR Inten    --      8.4006                 0.0040                 1.4554

                     25                     26                     27
                      A                      A                      A
 Frequencies --    707.4250               722.8400               774.6263
 Red. masses --      1.9153                 4.9820                 1.8499
 Frc consts  --      0.5647                 1.5337                 0.6540
 IR Inten    --     19.1494                 1.8801                33.0291

                     28                     29                     30
                      A                      A                      A
 Frequencies --    785.2927               789.8601               852.6755
 Red. masses --      2.5203                 1.5267                 1.2480
 Frc consts  --      0.9157                 0.5612                 0.5346
 IR Inten    --      9.5905                67.3768                 0.0064

                     31                     32                     33
                      A                      A                      A
 Frequencies --    906.3042               914.6166               925.4273
 Red. masses --      1.2544                 1.4526                 1.2729
 Frc consts  --      0.6071                 0.7159                 0.6423
 IR Inten    --     16.5257                 4.0303                20.6382

                     34                     35                     36
                      A                      A                      A
 Frequencies --    958.8281               985.1372               995.4130
 Red. masses --      1.3350                 1.2292                 1.6144
 Frc consts  --      0.7231                 0.7029                 0.9425
 IR Inten    --      0.0052                 0.1816                 8.1309

                     37                     38                     39
                      A                      A                      A
 Frequencies --   1010.5519              1017.3215              1032.3807
 Red. masses --      1.4941                 6.1576                 1.2739
 Frc consts  --      0.8990                 3.7547                 0.8000
 IR Inten    --      2.0771                 0.5420                73.2733

                     40                     41                     42
                      A                      A                      A
 Frequencies --   1057.4355              1087.8325              1104.0949
 Red. masses --      2.2027                 1.2899                 1.8499
 Frc consts  --      1.4512                 0.8994                 1.3287
 IR Inten    --      6.2546                26.4598                 6.7356

                     43                     44                     45
                      A                      A                      A
 Frequencies --   1105.8426              1190.1885              1207.5258
 Red. masses --      1.5762                 1.0918                 1.1519
 Frc consts  --      1.1357                 0.9112                 0.9896
 IR Inten    --      4.0678                 0.0961                 6.5196

                     46                     47                     48
                      A                      A                      A
 Frequencies --   1236.8489              1290.8982              1315.5294
 Red. masses --      3.8227                 1.2035                 1.2451
 Frc consts  --      3.4455                 1.1816                 1.2696
 IR Inten    --     77.7341                10.0704                 9.6104

                     49                     50                     51
                      A                      A                      A
 Frequencies --   1324.8838              1336.3306              1362.2391
 Red. masses --      2.8374                 1.1855                 1.9058
 Frc consts  --      2.9344                 1.2474                 2.0837
 IR Inten    --      0.1419                 1.5319                 0.0368

                     52                     53                     54
                      A                      A                      A
 Frequencies --   1371.8301              1433.5965              1472.8473
 Red. masses --      1.1682                 1.2154                 1.0613
 Frc consts  --      1.2953                 1.4718                 1.3564
 IR Inten    --      6.0815                11.6697                 8.0379

                     55                     56                     57
                      A                      A                      A
 Frequencies --   1485.0212              1488.5675              1497.3685
 Red. masses --      1.0888                 2.2532                 1.0580
 Frc consts  --      1.4147                 2.9416                 1.3976
 IR Inten    --     10.2243                 1.5568                 3.2667

                     58                     59                     60
                      A                      A                      A
 Frequencies --   1501.3532              1513.2539              1518.8043
 Red. masses --      1.0553                 1.0513                 1.0388
 Frc consts  --      1.4015                 1.4184                 1.4119
 IR Inten    --      5.1724                11.5705                 0.8919

                     61                     62                     63
                      A                      A                      A
 Frequencies --   1537.8888              1538.6084              1624.1279
 Red. masses --      1.8090                 1.1697                 5.1736
 Frc consts  --      2.5208                 1.6314                 8.0405
 IR Inten    --     52.2513                 6.4981                 2.5999

                     64                     65                     66
                      A                      A                      A
 Frequencies --   1659.1781              2176.0585              3056.1459
 Red. masses --      5.5571                11.9926                 1.0303
 Frc consts  --      9.0133                33.4584                 5.6700
 IR Inten    --     55.5679                18.3973                15.5128

                     67                     68                     69
                      A                      A                      A
 Frequencies --   3057.7976              3080.6128              3093.1064
 Red. masses --      1.0354                 1.0308                 1.0642
 Frc consts  --      5.7037                 5.7634                 5.9990
 IR Inten    --     26.7009                17.7554                26.3199

                     70                     71                     72
                      A                      A                      A
 Frequencies --   3122.4469              3151.3814              3151.8712
 Red. masses --      1.1025                 1.1063                 1.1019
 Frc consts  --      6.3332                 6.4733                 6.4494
 IR Inten    --     15.8700                13.9360                 2.6350

                     73                     74                     75
                      A                      A                      A
 Frequencies --   3158.2471              3169.7013              3174.0561
 Red. masses --      1.1051                 1.1066                 1.0844
 Frc consts  --      6.4944                 6.5503                 6.4365
 IR Inten    --      8.7692                 5.4672                 5.7857

                     76                     77                     78
                      A                      A                      A
 Frequencies --   3181.8719              3190.0609              3197.3642
 Red. masses --      1.0882                 1.1030                 1.0919
 Frc consts  --      6.4915                 6.6133                 6.5766
 IR Inten    --     12.3726                 3.7644                38.9510

                     79                     80                     81
                      A                      A                      A
 Frequencies --   3204.6176              3210.0438              3219.3712
 Red. masses --      1.0938                 1.0966                 1.1055
 Frc consts  --      6.6181                 6.6576                 6.7510
 IR Inten    --     40.2499                13.1705                 0.2753

 - Thermochemistry -
 -------------------
 Temperature   298.150 Kelvin.  Pressure   1.00000 Atm.
 Atom     1 has atomic number  6 and mass  12.00000

 Molecular mass:   192.09727 amu.
 Principal axes and moments of inertia in atomic units:
                           1         2         3
     Eigenvalues --  1044.531337185.800947937.05996
           X            1.00000  -0.00111   0.00197
           Y            0.00110   0.99998   0.00686
           Z           -0.00198  -0.00686   0.99997
 This molecule is an asymmetric top.
 Rotational symmetry number  1.
 Warning -- assumption of classical behavior for rotation
           may cause significant error
 Rotational temperatures (Kelvin)      0.08292     0.01205     0.01091
 Rotational constants (GHZ):           1.72780     0.25115     0.22738
 Zero-point vibrational energy     642373.2 (Joules/Mol)
                                  153.53088 (Kcal/Mol)
 Warning -- explicit consideration of  22 degrees of freedom as
           vibrations may cause significant error
 Vibrational temperatures:     10.01    29.42    37.94   108.97   140.36
          (Kelvin)            157.02   182.57   206.54   258.58   362.14
                              369.96   391.37   440.58   482.48   502.57
                              543.90   564.95   597.99   715.81   762.87
                              773.07   805.02   918.52   940.25  1017.83
                             1040.01  1114.51  1129.86  1136.43  1226.81
                             1303.97  1315.93  1331.48  1379.54  1417.39
                             1432.18  1453.96  1463.70  1485.37  1521.41
                             1565.15  1588.55  1591.06  1712.42  1737.36
                             1779.55  1857.31  1892.75  1906.21  1922.68
                             1959.96  1973.76  2062.63  2119.10  2136.61
                             2141.72  2154.38  2160.11  2177.23  2185.22
                             2212.68  2213.71  2336.76  2387.19  3130.86
                             4397.11  4399.49  4432.31  4450.29  4492.50
                             4534.13  4534.84  4544.01  4560.49  4566.76
                             4578.00  4589.79  4600.29  4610.73  4618.54
                             4631.96

 Zero-point correction=                           0.244667 (Hartree/Particle)
 Thermal correction to Energy=                    0.260148
 Thermal correction to Enthalpy=                  0.261092
 Thermal correction to Gibbs Free Energy=         0.198265
 Sum of electronic and zero-point Energies=           -864.742172
 Sum of electronic and thermal Energies=              -864.726691
 Sum of electronic and thermal Enthalpies=            -864.725747
 Sum of electronic and thermal Free Energies=         -864.788574

                     E (Thermal)             CV                S
                      KCal/Mol        Cal/Mol-Kelvin    Cal/Mol-Kelvin
 Total                  163.245             55.913            132.230
 Electronic               0.000              0.000              0.000
 Translational            0.889              2.981             41.664
 Rotational               0.889              2.981             32.455
 Vibrational            161.468             49.952             58.111
 Vibration     1          0.593              1.987              8.731
 Vibration     2          0.593              1.986              6.590
 Vibration     3          0.593              1.985              6.085
 Vibration     4          0.599              1.965              3.998
 Vibration     5          0.603              1.951              3.503
 Vibration     6          0.606              1.942              3.284
 Vibration     7          0.611              1.926              2.993
 Vibration     8          0.616              1.910              2.756
 Vibration     9          0.629              1.867              2.331
 Vibration    10          0.664              1.760              1.719
 Vibration    11          0.667              1.751              1.681
 Vibration    12          0.675              1.725              1.583
 Vibration    13          0.697              1.662              1.383
 Vibration    14          0.716              1.605              1.234
 Vibration    15          0.727              1.577              1.169
 Vibration    16          0.748              1.517              1.047
 Vibration    17          0.760              1.486              0.990
 Vibration    18          0.779              1.436              0.907
 Vibration    19          0.853              1.256              0.664
 Vibration    20          0.885              1.183              0.587
 Vibration    21          0.892              1.168              0.571
 Vibration    22          0.915              1.119              0.525

                           ! Non-Optimized Parameters !
 Normal termination of Gaussian 16 at Sun Dec 13 12:43:40 2020.

 ----------------------------------------------------------------------
 # B3LYP/6-311++G(d,p) empiricaldispersion=gd3bj scf=xqc pop=npa geom=c
 heck
 ----------------------------------------------------------------------

 ---------------------------------------
 CID_123798282_JID_3729_Energie_neutraal
 ---------------------------------------
 Structure from the checkpoint file:  "JID_3729.chk"
 Charge =  0 Multiplicity = 1

 SCF Done:  E(RB3LYP) =  -865.145426621     A.U. after   15 cycles
 Normal termination of Gaussian 16 at Sun Dec 13 12:46:21 2020.

 ----------------------------------------------------------------------
 # B3LYP/6-311++G(d,p) empiricaldispersion=gd3bj scf=xqc pop=npa geom=c
 heck
 ----------------------------------------------------------------------

 -------------------------------------
 CID_123798282_JID_3729_Energie_kation
 -------------------------------------
 Structure from the checkpoint file:  "JID_3729.chk"
 Charge =  1 Multiplicity = 2

 SCF Done:  E(UB3LYP) =  -864.892424536     A.U. after   24 cycles
 Normal termination of Gaussian 16 at Sun Dec 13 12:51:58 2020.
 Gaussian 16:  ES64L-G16RevA.03 25-Dec-2016

 ----------------------------------------------------------------------
 # B3LYP/6-311++G(d,p) empiricaldispersion=gd3bj scf=xqc pop=npa geom=c
 heck
 ----------------------------------------------------------------------

 ------------------------------------
 CID_123798282_JID_3729_Energie_anion
 ------------------------------------
 Structure from the checkpoint file:  "JID_3729.chk"
 Charge = -1 Multiplicity = 2

                         Standard orientation:
 ---------------------------------------------------------------------
 Center     Atomic      Atomic             Coordinates (Angstroms)
 Number     Number       Type             X           Y           Z
 ---------------------------------------------------------------------
      1          6           0       -2.180844    2.313568    0.170348
      2          6           0       -2.724347    1.160049   -0.660527
      3         16           0       -2.682866   -0.386812    0.349349
      4          6           0       -4.555915   -0.316461    0.753267
      5          6           0       -2.886318   -1.760365   -0.830695
      6          6           0       -0.442410   -0.388296   -0.246159
      7          6           0        0.779493   -0.271904   -0.140231
      8          6           0        2.198198   -0.155346   -0.047646
      9          6           0        2.834881    1.095128   -0.187447
     10          6           0        4.219177    1.206832   -0.093725
     11          6           0        5.005438    0.076543    0.141043
     12          6           0        4.389939   -1.169435    0.281610
     13          6           0        3.006005   -1.286668    0.189419
     14          1           0       -2.794157    2.503762    1.057935
     15          1           0       -2.173496    3.225013   -0.436929
     16          1           0       -1.155861    2.087130    0.475914
     17          1           0       -3.759018    1.318770   -0.977398
     18          1           0       -2.083039    0.953398   -1.515325
     19          1           0       -5.197728   -0.347182   -0.132686
     20          1           0       -4.783449   -1.164268    1.405409
     21          1           0       -4.735749    0.610097    1.305622
     22          1           0       -1.893251   -2.174904   -0.989751
     23          1           0       -3.580552   -2.480965   -0.392640
     24          1           0       -3.294856   -1.374306   -1.767618
     25          1           0        2.223449    1.973558   -0.370901
     26          1           0        4.688243    2.181316   -0.204648
     27          1           0        6.085850    0.165726    0.213709
     28          1           0        4.992830   -2.055370    0.464744
     29          1           0        2.526853   -2.254651    0.299436
 ---------------------------------------------------------------------

 SCF Done:  E(UB3LYP) =  -865.138899461     A.U. after   30 cycles

 The electronic state is 2-A.
 Alpha  occ. eigenvalues --  -88.82914 -10.11018 -10.10290 -10.09165 -10.08326
 Alpha  occ. eigenvalues --  -10.08320 -10.07962 -10.07601 -10.07578 -10.07573
 Alpha  occ. eigenvalues --  -10.07407 -10.01145 -10.00150  -7.90743  -5.86919
 Alpha  occ. eigenvalues --   -5.86862  -5.86382  -0.76232  -0.75834  -0.66976
 Alpha  occ. eigenvalues --   -0.66855  -0.65269  -0.60444  -0.58373  -0.55975
 Alpha  occ. eigenvalues --   -0.51253  -0.51062  -0.50454  -0.43752  -0.38915
 Alpha  occ. eigenvalues --   -0.37872  -0.37103  -0.35894  -0.35399  -0.35043
 Alpha  occ. eigenvalues --   -0.33930  -0.32910  -0.31848  -0.30555  -0.29266
 Alpha  occ. eigenvalues --   -0.28069  -0.27976  -0.27036  -0.26599  -0.25276
 Alpha  occ. eigenvalues --   -0.25104  -0.23341  -0.19089  -0.16337  -0.12678
 Alpha  occ. eigenvalues --   -0.12581  -0.10232   0.04083
 Alpha virt. eigenvalues --    0.06358   0.06724   0.06945   0.07938   0.07977
 Alpha virt. eigenvalues --    0.08076   0.08514   0.09747   0.10013   0.10611
 Alpha virt. eigenvalues --    0.10824   0.10977   0.11655   0.11961   0.12815

  Beta  occ. eigenvalues --  -88.82903 -10.10987 -10.10242 -10.09136 -10.08329
  Beta  occ. eigenvalues --  -10.08322 -10.07924 -10.07588 -10.07567 -10.07555
  Beta  occ. eigenvalues --  -10.07300 -10.01140 -10.00136  -7.90732  -5.86890
  Beta  occ. eigenvalues --   -5.86853  -5.86371  -0.76190  -0.75780  -0.66911
  Beta  occ. eigenvalues --   -0.66801  -0.65239  -0.60315  -0.58333  -0.55870
  Beta  occ. eigenvalues --   -0.51177  -0.51050  -0.50346  -0.43731  -0.38862
  Beta  occ. eigenvalues --   -0.37830  -0.37035  -0.35871  -0.35350  -0.34972
  Beta  occ. eigenvalues --   -0.33909  -0.32904  -0.31770  -0.30481  -0.29202
  Beta  occ. eigenvalues --   -0.28008  -0.27862  -0.26974  -0.26576  -0.25261
  Beta  occ. eigenvalues --   -0.25029  -0.23263  -0.18917  -0.16257  -0.12630
  Beta  occ. eigenvalues --   -0.12504  -0.10134
  Beta virt. eigenvalues --    0.06262   0.06775   0.07208   0.07602   0.07964
  Beta virt. eigenvalues --    0.08096   0.08721   0.09010   0.10026   0.10563
  Beta virt. eigenvalues --    0.10869   0.11088   0.11295   0.12144   0.12481

 Mulliken charges and spin densities:
               1          2
     1  C    0.457874  -1.108052
     2  C   -0.206691  -0.191719
     3  S   -0.462093   1.702988
     4  C    1.663938  -2.418215
     5  C    0.634177  -1.342828
     6  C   -0.494989  -0.170081
     7  C    1.278891  -0.135408
     8  C    0.796866   0.031229
     9  C   -1.380581   0.122574
    10  C    0.199644  -0.040520
    11  C   -0.683374   0.022610
    12  C    0.235457  -0.054188
    13  C   -1.126707   0.012000
    14  H    0.021288   0.127602
    15  H   -0.057031   0.190310
    16  H    0.136593   0.045336
    17  H   -0.490652   0.701859
    18  H    0.117525   0.111635
    19  H   -0.674609   0.879586
    20  H   -0.466352   0.637964
    21  H   -0.561056   0.717850
    22  H    0.076979   0.129785
    23  H   -0.360100   0.533539
    24  H   -0.202470   0.415022
    25  H    0.062663   0.026791
    26  H    0.138718   0.013913
    27  H    0.119536   0.000411
    28  H    0.141658   0.004270
    29  H    0.084896   0.033735
 Sum of Mulliken charges =  -1.00000   1.00000

 Dipole moment (field-independent basis, Debye):
    X=             11.4347    Y=              1.2491    Z=              0.2311  Tot=             11.5050
 Quadrupole moment (field-independent basis, Debye-Ang):
   XX=           -203.6957   YY=           -114.1302   ZZ=           -117.6518
   XY=             -3.9373   XZ=              1.8700   YZ=             -0.3740

 Summary of Natural Population Analysis:

                                       Natural Population
                Natural  -----------------------------------------------
    Atom  No    Charge         Core      Valence    Rydberg      Total
 -----------------------------------------------------------------------
      C    1   -0.29735      0.99964     2.29099    0.00671     3.29735
      C    2   -0.24058      0.99961     2.23017    0.01080     3.24058
      S    3    0.42572      4.99946     2.54508    0.02975     7.57428
      C    4   -0.38395      0.99962     2.37602    0.00830     3.38395
      C    5   -0.34284      0.99962     2.33622    0.00700     3.34284
      C    6   -0.19552      0.99926     2.17474    0.02152     3.19552
      C    7   -0.11688      0.99928     2.10829    0.00931     3.11688
      C    8   -0.03516      0.99936     2.02611    0.00969     3.03516
      C    9   -0.09615      0.99955     2.08438    0.01221     3.09615
      C   10   -0.10618      0.99957     2.09830    0.00830     3.10618
      C   11   -0.11314      0.99957     2.10415    0.00942     3.11314
      C   12   -0.10624      0.99957     2.09835    0.00832     3.10624
      C   13   -0.09567      0.99955     2.08388    0.01223     3.09567
      H   14    0.09975      0.00000     0.39921    0.00104     0.40025
      H   15    0.10340      0.00000     0.39573    0.00087     0.39660
      H   16    0.11474      0.00000     0.38417    0.00109     0.38526
      H   17    0.10755      0.00000     0.39019    0.00226     0.39245
      H   18    0.11940      0.00000     0.37868    0.00192     0.38060
      H   19    0.10858      0.00000     0.38314    0.00829     0.39142
      H   20    0.10702      0.00000     0.39032    0.00265     0.39298
      H   21    0.10655      0.00000     0.39089    0.00256     0.39345
      H   22    0.12432      0.00000     0.37414    0.00153     0.37568
      H   23    0.11112      0.00000     0.38736    0.00152     0.38888
      H   24    0.11045      0.00000     0.38758    0.00197     0.38955
      H   25    0.10203      0.00000     0.39707    0.00089     0.39797
      H   26    0.09599      0.00000     0.40316    0.00085     0.40401
      H   27    0.09435      0.00000     0.40468    0.00097     0.40565
      H   28    0.09593      0.00000     0.40322    0.00085     0.40407
      H   29    0.10274      0.00000     0.39643    0.00083     0.39726
 =======================================================================
   * Total *    0.00000     16.99368    34.82267    0.18365    52.00000

 Normal termination of Gaussian 16 at Sun Dec 13 12:58:56 2020.
