 Gaussian 16, Revision A.03,

 -----------------------------------------------------------
 # opt freq B3LYP/6-31G(d) empiricaldispersion=gd3bj scf=xqc
 -----------------------------------------------------------

 ------------------------------
 CID_22311640_JID_3286_neutraal
 ------------------------------
 Symbolic Z-matrix:
 Charge =  0 Multiplicity = 1

 SCF Done:  E(RB3LYP) =  -581.722992971     A.U. after   13 cycles
 SCF Done:  E(RB3LYP) =  -581.724918462     A.U. after   13 cycles
 SCF Done:  E(RB3LYP) =  -581.721163761     A.U. after   13 cycles
 SCF Done:  E(RB3LYP) =  -581.725440227     A.U. after   11 cycles
 SCF Done:  E(RB3LYP) =  -581.724394426     A.U. after   12 cycles
 SCF Done:  E(RB3LYP) =  -581.725532688     A.U. after   13 cycles
 SCF Done:  E(RB3LYP) =  -581.725687269     A.U. after   11 cycles
 SCF Done:  E(RB3LYP) =  -581.725690096     A.U. after   10 cycles
 SCF Done:  E(RB3LYP) =  -581.725693858     A.U. after   10 cycles
 SCF Done:  E(RB3LYP) =  -581.725694108     A.U. after    7 cycles
 SCF Done:  E(RB3LYP) =  -581.725694164     A.U. after    7 cycles
 SCF Done:  E(RB3LYP) =  -581.725694186     A.U. after    6 cycles
 Optimization completed.
    -- Stationary point found.
 Normal termination of Gaussian 16 at Wed Dec  9 22:49:02 2020.

 --------------------------------------------------------------------
 #N Geom=AllCheck Guess=TCheck SCRF=Check GenChk RB3LYP/6-31G(d) Freq
 --------------------------------------------------------------------

 Structure from the checkpoint file:  "JID_3286.chk"
 ------------------------------
 CID_22311640_JID_3286_neutraal
 ------------------------------
 Charge =  0 Multiplicity = 1

 SCF Done:  E(RB3LYP) =  -581.725694186     A.U. after    1 cycles

  Exact polarizability: 131.213   1.971 114.969  -0.111  -2.577 104.138
 Approx polarizability: 163.580   2.064 177.920  -0.516 -12.906 159.869

                      1                      2                      3
                      A                      A                      A
 Frequencies --     31.5664                50.4283                54.3790
 Red. masses --      2.8017                 4.2577                 4.1625
 Frc consts  --      0.0016                 0.0064                 0.0073
 IR Inten    --      0.3489                 2.2469                 0.7715

                      4                      5                      6
                      A                      A                      A
 Frequencies --    109.5935               154.9385               174.1742
 Red. masses --      2.1588                 2.9137                 4.1686
 Frc consts  --      0.0153                 0.0412                 0.0745
 IR Inten    --      0.6315                 2.2036                 3.5702

                      7                      8                      9
                      A                      A                      A
 Frequencies --    195.2539               202.5373               215.2517
 Red. masses --      2.0559                 1.5234                 1.3340
 Frc consts  --      0.0462                 0.0368                 0.0364
 IR Inten    --      0.3236                 2.4978                 0.2279

                     10                     11                     12
                      A                      A                      A
 Frequencies --    216.5332               251.2584               258.1661
 Red. masses --      1.7352                 1.2720                 1.3179
 Frc consts  --      0.0479                 0.0473                 0.0518
 IR Inten    --      0.4842                 0.2575                 0.3287

                     13                     14                     15
                      A                      A                      A
 Frequencies --    262.3241               278.8713               284.7350
 Red. masses --      1.1322                 1.2537                 1.2971
 Frc consts  --      0.0459                 0.0574                 0.0620
 IR Inten    --      0.9862                 0.4851                 0.0956

                     16                     17                     18
                      A                      A                      A
 Frequencies --    302.1254               323.6899               346.5218
 Red. masses --      2.5311                 2.6190                 5.2369
 Frc consts  --      0.1361                 0.1617                 0.3705
 IR Inten    --      5.2663                 6.2551                 2.2465

                     19                     20                     21
                      A                      A                      A
 Frequencies --    362.3102               366.3517               382.9961
 Red. masses --      2.7084                 2.3543                 2.7221
 Frc consts  --      0.2095                 0.1862                 0.2353
 IR Inten    --      9.0363                 0.4303                 0.1264

                     22                     23                     24
                      A                      A                      A
 Frequencies --    404.9060               442.8014               465.3018
 Red. masses --      2.5647                 2.8046                 2.9689
 Frc consts  --      0.2477                 0.3240                 0.3787
 IR Inten    --      0.7843                 0.0666                 0.6203

                     25                     26                     27
                      A                      A                      A
 Frequencies --    590.7930               611.0421               743.4453
 Red. masses --      3.7844                 3.4504                 5.2549
 Frc consts  --      0.7782                 0.7590                 1.7112
 IR Inten    --     11.2890                 1.2660                 1.8194

                     28                     29                     30
                      A                      A                      A
 Frequencies --    754.1196               784.2795               824.5776
 Red. masses --      3.8450                 1.6869                 3.1332
 Frc consts  --      1.2883                 0.6113                 1.2552
 IR Inten    --     18.4726                17.2189                 1.9625

                     31                     32                     33
                      A                      A                      A
 Frequencies --    836.3593               911.4767               941.5416
 Red. masses --      2.1167                 2.7500                 2.0617
 Frc consts  --      0.8724                 1.3461                 1.0768
 IR Inten    --      1.9687               128.8379                 9.3060

                     34                     35                     36
                      A                      A                      A
 Frequencies --    952.3777               960.0617               966.6683
 Red. masses --      1.7658                 1.5801                 1.5319
 Frc consts  --      0.9436                 0.8581                 0.8434
 IR Inten    --      5.6721                 5.3198                 0.6801

                     37                     38                     39
                      A                      A                      A
 Frequencies --    982.8547              1026.9858              1032.0334
 Red. masses --      1.2067                 1.5263                 1.3491
 Frc consts  --      0.6868                 0.9484                 0.8466
 IR Inten    --      0.6053                 1.0529                 6.7176

                     40                     41                     42
                      A                      A                      A
 Frequencies --   1051.3962              1062.7210              1076.2251
 Red. masses --      1.5153                 1.4854                 1.8321
 Frc consts  --      0.9869                 0.9884                 1.2503
 IR Inten    --      0.4566                 4.9547                 2.2344

                     43                     44                     45
                      A                      A                      A
 Frequencies --   1097.6228              1170.9451              1199.4723
 Red. masses --      1.6562                 3.0948                 2.5928
 Frc consts  --      1.1756                 2.5001                 2.1978
 IR Inten    --      3.0314                 2.6792                 5.6272

                     46                     47                     48
                      A                      A                      A
 Frequencies --   1234.7663              1252.6609              1265.2801
 Red. masses --      2.5296                 2.3159                 2.7680
 Frc consts  --      2.2724                 2.1411                 2.6109
 IR Inten    --      3.1352                 1.7267                 1.9272

                     49                     50                     51
                      A                      A                      A
 Frequencies --   1286.3076              1308.7890              1351.9648
 Red. masses --      2.7813                 3.2762                 1.3479
 Frc consts  --      2.7114                 3.3064                 1.4515
 IR Inten    --      1.9221                 0.9878                 0.5155

                     52                     53                     54
                      A                      A                      A
 Frequencies --   1388.6393              1419.4750              1420.1541
 Red. masses --      1.4018                 1.2026                 1.2003
 Frc consts  --      1.5926                 1.4277                 1.4263
 IR Inten    --      0.9882                 2.7725                 8.0023

                     55                     56                     57
                      A                      A                      A
 Frequencies --   1426.8229              1441.3562              1445.9742
 Red. masses --      1.2263                 1.2445                 1.2253
 Frc consts  --      1.4709                 1.5233                 1.5094
 IR Inten    --      5.8227                 6.2788                 7.5822

                     58                     59                     60
                      A                      A                      A
 Frequencies --   1454.9298              1506.1510              1507.3653
 Red. masses --      1.2183                 1.0630                 1.0539
 Frc consts  --      1.5195                 1.4207                 1.4108
 IR Inten    --      6.0397                 2.4145                 0.7511

                     61                     62                     63
                      A                      A                      A
 Frequencies --   1515.5886              1517.7020              1522.6775
 Red. masses --      1.0483                 1.0468                 1.0465
 Frc consts  --      1.4187                 1.4207                 1.4296
 IR Inten    --      0.7062                 2.7031                 1.6639

                     64                     65                     66
                      A                      A                      A
 Frequencies --   1526.1393              1528.8812              1532.1541
 Red. masses --      1.0524                 1.0533                 1.0543
 Frc consts  --      1.4442                 1.4506                 1.4582
 IR Inten    --      3.7420                10.3381                 7.5535

                     67                     68                     69
                      A                      A                      A
 Frequencies --   1536.3432              1537.2613              1539.1307
 Red. masses --      1.0491                 1.0514                 1.0437
 Frc consts  --      1.4589                 1.4638                 1.4567
 IR Inten    --      4.3239                 4.9404                14.4659

                     70                     71                     72
                      A                      A                      A
 Frequencies --   1552.8631              1554.6075              1776.8185
 Red. masses --      1.0594                 1.0601                12.1836
 Frc consts  --      1.5051                 1.5095                22.6626
 IR Inten    --      5.5491                30.5626                63.0524

                     73                     74                     75
                      A                      A                      A
 Frequencies --   1779.6850              3045.6149              3051.2900
 Red. masses --     12.4699                 1.0627                 1.0368
 Frc consts  --     23.2701                 5.8080                 5.6875
 IR Inten    --    135.1184                11.8748                25.5665

                     76                     77                     78
                      A                      A                      A
 Frequencies --   3052.4921              3053.1416              3056.5602
 Red. masses --      1.0373                 1.0395                 1.0370
 Frc consts  --      5.6948                 5.7091                 5.7082
 IR Inten    --     13.0304                34.9999                20.6886

                     79                     80                     81
                      A                      A                      A
 Frequencies --   3059.4627              3061.1672              3098.2282
 Red. masses --      1.0372                 1.0373                 1.0971
 Frc consts  --      5.7203                 5.7273                 6.2050
 IR Inten    --     20.0689                29.2584                 2.3855

                     82                     83                     84
                      A                      A                      A
 Frequencies --   3113.8654              3117.9130              3118.2518
 Red. masses --      1.1019                 1.1020                 1.1019
 Frc consts  --      6.2949                 6.3117                 6.3125
 IR Inten    --     19.2816                 6.4101                19.4957

                     85                     86                     87
                      A                      A                      A
 Frequencies --   3120.6592              3122.0782              3123.4217
 Red. masses --      1.1012                 1.1018                 1.1009
 Frc consts  --      6.3181                 6.3276                 6.3279
 IR Inten    --     35.5152                66.5495                19.5378

                     88                     89                     90
                      A                      A                      A
 Frequencies --   3132.3583              3141.4647              3146.4169
 Red. masses --      1.1024                 1.1007                 1.1010
 Frc consts  --      6.3730                 6.4002                 6.4222
 IR Inten    --     36.5758                17.1249                11.9125

                     91                     92                     93
                      A                      A                      A
 Frequencies --   3149.2974              3159.4827              3162.4617
 Red. masses --      1.1008                 1.1006                 1.1002
 Frc consts  --      6.4325                 6.4732                 6.4831
 IR Inten    --     17.1208                10.1054                 8.9606

 - Thermochemistry -
 -------------------
 Temperature   298.150 Kelvin.  Pressure   1.00000 Atm.
 Atom     1 has atomic number  6 and mass  12.00000

 Molecular mass:   184.14633 amu.
 Principal axes and moments of inertia in atomic units:
                           1         2         3
     Eigenvalues --  1475.316273248.721173596.68127
           X            0.99992   0.01201  -0.00316
           Y           -0.01191   0.99954   0.02779
           Z            0.00350  -0.02775   0.99961
 This molecule is an asymmetric top.
 Rotational symmetry number  1.
 Warning -- assumption of classical behavior for rotation
           may cause significant error
 Rotational temperatures (Kelvin)      0.05871     0.02666     0.02408
 Rotational constants (GHZ):           1.22329     0.55552     0.50178
 Zero-point vibrational energy     771173.4 (Joules/Mol)
                                  184.31487 (Kcal/Mol)
 Warning -- explicit consideration of  26 degrees of freedom as
           vibrations may cause significant error
 Vibrational temperatures:     45.42    72.56    78.24   157.68   222.92
          (Kelvin)            250.60   280.93   291.41   309.70   311.54
                              361.50   371.44   377.43   401.23   409.67
                              434.69   465.72   498.57   521.28   527.10
                              551.05   582.57   637.09   669.47   850.02
                              879.15  1069.65  1085.01  1128.40  1186.38
                             1203.33  1311.41  1354.67  1370.26  1381.31
                             1390.82  1414.11  1477.60  1484.87  1512.72
                             1529.02  1548.45  1579.23  1684.73  1725.77
                             1776.55  1802.30  1820.46  1850.71  1883.06
                             1945.18  1997.94  2042.31  2043.28  2052.88
                             2073.79  2080.43  2093.32  2167.02  2168.76
                             2180.59  2183.63  2190.79  2195.77  2199.72
                             2204.43  2210.46  2211.78  2214.47  2234.22
                             2236.73  2556.45  2560.57  4381.96  4390.13
                             4391.86  4392.79  4397.71  4401.88  4404.34
                             4457.66  4480.16  4485.98  4486.47  4489.93
                             4491.97  4493.91  4506.77  4519.87  4526.99
                             4531.14  4545.79  4550.08

 Zero-point correction=                           0.293724 (Hartree/Particle)
 Thermal correction to Energy=                    0.309965
 Thermal correction to Enthalpy=                  0.310909
 Thermal correction to Gibbs Free Energy=         0.251115
 Sum of electronic and zero-point Energies=           -581.431970
 Sum of electronic and thermal Energies=              -581.415729
 Sum of electronic and thermal Enthalpies=            -581.414785
 Sum of electronic and thermal Free Energies=         -581.474579

                     E (Thermal)             CV                S
                      KCal/Mol        Cal/Mol-Kelvin    Cal/Mol-Kelvin
 Total                  194.506             60.151            125.847
 Electronic               0.000              0.000              0.000
 Translational            0.889              2.981             41.538
 Rotational               0.889              2.981             31.223
 Vibrational            192.728             54.189             53.086
 Vibration     1          0.594              1.983              5.728
 Vibration     2          0.595              1.977              4.801
 Vibration     3          0.596              1.976              4.651
 Vibration     4          0.606              1.942              3.276
 Vibration     5          0.620              1.897              2.611
 Vibration     6          0.627              1.874              2.390
 Vibration     7          0.636              1.846              2.177
 Vibration     8          0.639              1.836              2.110
 Vibration     9          0.645              1.818              1.999
 Vibration    10          0.645              1.816              1.988
 Vibration    11          0.663              1.761              1.722
 Vibration    12          0.667              1.749              1.674
 Vibration    13          0.670              1.742              1.646
 Vibration    14          0.679              1.713              1.541
 Vibration    15          0.683              1.702              1.505
 Vibration    16          0.694              1.670              1.405
 Vibration    17          0.708              1.628              1.291
 Vibration    18          0.725              1.582              1.182
 Vibration    19          0.736              1.550              1.112
 Vibration    20          0.739              1.541              1.095
 Vibration    21          0.752              1.506              1.027
 Vibration    22          0.770              1.460              0.945
 Vibration    23          0.802              1.377              0.818
 Vibration    24          0.823              1.327              0.751
 Vibration    25          0.948              1.051              0.466
 Vibration    26          0.970              1.008              0.431

 Optimization completed.
    -- Stationary point found.
 Normal termination of Gaussian 16 at Wed Dec  9 22:58:43 2020.

 ----------------------------------------------------------------------
 # B3LYP/6-311++G(d,p) empiricaldispersion=gd3bj scf=xqc pop=npa geom=c
 heck
 ----------------------------------------------------------------------

 --------------------------------------
 CID_22311640_JID_3286_Energie_neutraal
 --------------------------------------
 Structure from the checkpoint file:  "JID_3286.chk"
 Charge =  0 Multiplicity = 1

 SCF Done:  E(RB3LYP) =  -581.892309247     A.U. after   15 cycles
 Normal termination of Gaussian 16 at Wed Dec  9 23:02:51 2020.

 ----------------------------------------------------------------------
 # B3LYP/6-311++G(d,p) empiricaldispersion=gd3bj scf=xqc pop=npa geom=c
 heck
 ----------------------------------------------------------------------

 ------------------------------------
 CID_22311640_JID_3286_Energie_kation
 ------------------------------------
 Structure from the checkpoint file:  "JID_3286.chk"
 Charge =  1 Multiplicity = 2

 SCF Done:  E(UB3LYP) =  -581.580303211     A.U. after   20 cycles
 Normal termination of Gaussian 16 at Wed Dec  9 23:10:09 2020.
 Gaussian 16:  ES64L-G16RevA.03 25-Dec-2016

 ----------------------------------------------------------------------
 # B3LYP/6-311++G(d,p) empiricaldispersion=gd3bj scf=xqc pop=npa geom=c
 heck
 ----------------------------------------------------------------------

 -----------------------------------
 CID_22311640_JID_3286_Energie_anion
 -----------------------------------
 Structure from the checkpoint file:  "JID_3286.chk"
 Charge = -1 Multiplicity = 2

                         Standard orientation:
 ---------------------------------------------------------------------
 Center     Atomic      Atomic             Coordinates (Angstroms)
 Number     Number       Type             X           Y           Z
 ---------------------------------------------------------------------
      1          6           0       -2.560062    1.953543    0.419664
      2          6           0       -2.800799    0.573331   -0.198080
      3          6           0       -1.704898   -0.481376    0.072939
      4          6           0       -1.471615   -0.682636    1.582020
      5          6           0       -2.135270   -1.825911   -0.564886
      6          6           0       -0.410681   -0.058855   -0.629195
      7          8           0       -0.391932    0.668027   -1.607656
      8          6           0        0.927111   -0.664620   -0.151975
      9          8           0        1.007180   -1.878142   -0.073250
     10          6           0        2.111224    0.269200    0.114506
     11          6           0        2.737816    0.634368   -1.252705
     12          6           0        1.633406    1.546754    0.830028
     13          6           0        3.139821   -0.473657    0.978739
     14          1           0       -2.512318    1.912287    1.513059
     15          1           0       -3.374303    2.635799    0.152884
     16          1           0       -1.628440    2.395891    0.052919
     17          1           0       -3.747575    0.164079    0.178045
     18          1           0       -2.909077    0.680044   -1.282155
     19          1           0       -2.426275   -0.902906    2.072462
     20          1           0       -0.793840   -1.518505    1.772142
     21          1           0       -1.054371    0.211309    2.057458
     22          1           0       -2.318387   -1.702108   -1.637471
     23          1           0       -1.367856   -2.590527   -0.427421
     24          1           0       -3.065067   -2.167376   -0.094967
     25          1           0        2.019886    1.152752   -1.891230
     26          1           0        3.605318    1.284653   -1.089585
     27          1           0        3.079528   -0.266822   -1.772831
     28          1           0        1.154666    1.313920    1.788520
     29          1           0        2.493145    2.192923    1.037798
     30          1           0        0.927581    2.115312    0.218411
     31          1           0        2.720705   -0.735421    1.956495
     32          1           0        3.462602   -1.398982    0.495770
     33          1           0        4.015777    0.163751    1.140618
 ---------------------------------------------------------------------

 SCF Done:  E(UB3LYP) =  -581.899868218     A.U. after   30 cycles

 The electronic state is 2-A.
 Alpha  occ. eigenvalues --  -18.91514 -18.91453 -10.04682 -10.04594 -10.04094
 Alpha  occ. eigenvalues --  -10.03896 -10.03617 -10.03433 -10.02703 -10.02661
 Alpha  occ. eigenvalues --  -10.02471 -10.02080 -10.02010  -0.86581  -0.84752
 Alpha  occ. eigenvalues --   -0.68104  -0.67419  -0.60843  -0.55623  -0.55170
 Alpha  occ. eigenvalues --   -0.55051  -0.50111  -0.49313  -0.45273  -0.39175
 Alpha  occ. eigenvalues --   -0.34911  -0.33710  -0.31863  -0.30823  -0.30670
 Alpha  occ. eigenvalues --   -0.29638  -0.29187  -0.28144  -0.26886  -0.26606
 Alpha  occ. eigenvalues --   -0.26040  -0.25293  -0.24572  -0.23493  -0.23248
 Alpha  occ. eigenvalues --   -0.22699  -0.22295  -0.21737  -0.20213  -0.19780
 Alpha  occ. eigenvalues --   -0.19699  -0.18717  -0.18179  -0.17787  -0.11363
 Alpha  occ. eigenvalues --   -0.04341   0.05846
 Alpha virt. eigenvalues --    0.08458   0.08997   0.09833   0.10574   0.11225
 Alpha virt. eigenvalues --    0.11428   0.11932   0.12750   0.13151   0.13458
 Alpha virt. eigenvalues --    0.14179   0.14488   0.14721   0.15194   0.16101

  Beta  occ. eigenvalues --  -18.90956 -18.90899 -10.04303 -10.04196 -10.04120
  Beta  occ. eigenvalues --  -10.03922 -10.03616 -10.03431 -10.02679 -10.02662
  Beta  occ. eigenvalues --  -10.02448 -10.02041 -10.01972  -0.85519  -0.83730
  Beta  occ. eigenvalues --   -0.68002  -0.67286  -0.60783  -0.55558  -0.55109
  Beta  occ. eigenvalues --   -0.54979  -0.50009  -0.48260  -0.44945  -0.38711
  Beta  occ. eigenvalues --   -0.34766  -0.33560  -0.31753  -0.30673  -0.30442
  Beta  occ. eigenvalues --   -0.29425  -0.29000  -0.27585  -0.26534  -0.26326
  Beta  occ. eigenvalues --   -0.25938  -0.25206  -0.24295  -0.23418  -0.23102
  Beta  occ. eigenvalues --   -0.22410  -0.21547  -0.21327  -0.19844  -0.19690
  Beta  occ. eigenvalues --   -0.19418  -0.18608  -0.16783  -0.15407  -0.10595
  Beta  occ. eigenvalues --   -0.03766
  Beta virt. eigenvalues --    0.08362   0.08942   0.09788   0.10437   0.11144
  Beta virt. eigenvalues --    0.11392   0.11789   0.12649   0.12989   0.13388
  Beta virt. eigenvalues --    0.13917   0.14154   0.14648   0.14859   0.15262

 Mulliken charges and spin densities:
               1          2
     1  C   -0.608480  -0.035298
     2  C   -0.417778   0.029924
     3  C    1.158167   0.051168
     4  C   -0.669407   0.005627
     5  C   -0.443235  -0.122146
     6  C   -0.679537   0.276187
     7  O   -0.279053   0.190389
     8  C   -0.522421   0.218060
     9  O   -0.295694   0.186664
    10  C    1.064607   0.040441
    11  C   -0.571963  -0.088821
    12  C   -0.665342  -0.003440
    13  C   -0.561909   0.000932
    14  H    0.124153   0.000237
    15  H    0.084823   0.023952
    16  H    0.165346   0.017324
    17  H    0.083594   0.024331
    18  H    0.171687  -0.006039
    19  H    0.128117   0.001225
    20  H    0.177746   0.005381
    21  H    0.091013  -0.001824
    22  H    0.128784   0.005965
    23  H    0.191773  -0.006667
    24  H    0.021169   0.085989
    25  H    0.183041   0.005253
    26  H    0.039350   0.067263
    27  H    0.130966   0.004075
    28  H    0.101705   0.006500
    29  H    0.120235   0.010147
    30  H    0.159715   0.002616
    31  H    0.123281   0.000278
    32  H    0.162908  -0.002241
    33  H    0.102638   0.006547
 Sum of Mulliken charges =  -1.00000   1.00000

 Dipole moment (field-independent basis, Debye):
    X=             -0.9015    Y=              1.9545    Z=              2.8414  Tot=              3.5646
 Quadrupole moment (field-independent basis, Debye-Ang):
   XX=           -108.6098   YY=           -105.2211   ZZ=            -98.2747
   XY=              1.6717   XZ=             -0.4361   YZ=              2.7490

 Summary of Natural Population Analysis:

                                       Natural Population
                Natural  -----------------------------------------------
    Atom  No    Charge         Core      Valence    Rydberg      Total
 -----------------------------------------------------------------------
      C    1   -0.28590      0.99967     2.28229    0.00395     3.28590
      C    2   -0.18490      0.99961     2.17552    0.00977     3.18490
      C    3   -0.08586      0.99954     2.07443    0.01188     3.08586
      C    4   -0.28351      0.99964     2.27865    0.00522     3.28351
      C    5   -0.27561      0.99963     2.27039    0.00559     3.27561
      C    6    0.31225      0.99956     1.66292    0.02527     2.68775
      O    7   -0.26167      0.99988     3.25476    0.00703     4.26167
      C    8    0.30835      0.99957     1.66665    0.02543     2.69165
      O    9   -0.25861      0.99988     3.25184    0.00689     4.25861
      C   10   -0.08915      0.99956     2.07935    0.01024     3.08915
      C   11   -0.27682      0.99963     2.27169    0.00550     3.27682
      C   12   -0.27910      0.99964     2.27445    0.00501     3.27910
      C   13   -0.28074      0.99964     2.27453    0.00657     3.28074
      H   14    0.09005      0.00000     0.40907    0.00088     0.40995
      H   15    0.08834      0.00000     0.41013    0.00153     0.41166
      H   16    0.10619      0.00000     0.39246    0.00135     0.39381
      H   17    0.08475      0.00000     0.41351    0.00174     0.41525
      H   18    0.10464      0.00000     0.39347    0.00188     0.39536
      H   19    0.08866      0.00000     0.41047    0.00087     0.41134
      H   20    0.11022      0.00000     0.38887    0.00091     0.38978
      H   21    0.09639      0.00000     0.40283    0.00077     0.40361
      H   22    0.09728      0.00000     0.40175    0.00096     0.40272
      H   23    0.11357      0.00000     0.38492    0.00151     0.38643
      H   24    0.08508      0.00000     0.41311    0.00181     0.41492
      H   25    0.11399      0.00000     0.38446    0.00155     0.38601
      H   26    0.08422      0.00000     0.41405    0.00173     0.41578
      H   27    0.09686      0.00000     0.40219    0.00095     0.40314
      H   28    0.09518      0.00000     0.40402    0.00079     0.40482
      H   29    0.08889      0.00000     0.41021    0.00090     0.41111
      H   30    0.10762      0.00000     0.39150    0.00088     0.39238
      H   31    0.09706      0.00000     0.40217    0.00077     0.40294
      H   32    0.10603      0.00000     0.39299    0.00098     0.39397
      H   33    0.08625      0.00000     0.41280    0.00095     0.41375
 =======================================================================
   * Total *   -0.00000     12.99545    37.85246    0.15209    51.00000

 Normal termination of Gaussian 16 at Wed Dec  9 23:20:50 2020.
