 Gaussian 16, Revision A.03,

 -----------------------------------------------------------
 # opt freq B3LYP/6-31G(d) empiricaldispersion=gd3bj scf=xqc
 -----------------------------------------------------------

 -------------------------------
 CID_107000218_JID_9696_neutraal
 -------------------------------
 Symbolic Z-matrix:
 Charge =  0 Multiplicity = 1

 SCF Done:  E(RB3LYP) =  -808.955360918     A.U. after   15 cycles
 SCF Done:  E(RB3LYP) =  -808.961443412     A.U. after   12 cycles
 SCF Done:  E(RB3LYP) =  -808.962960012     A.U. after   12 cycles
 SCF Done:  E(RB3LYP) =  -808.964063295     A.U. after   12 cycles
 SCF Done:  E(RB3LYP) =  -808.964577765     A.U. after   12 cycles
 SCF Done:  E(RB3LYP) =  -808.964540524     A.U. after   12 cycles
 SCF Done:  E(RB3LYP) =  -808.965034256     A.U. after   11 cycles
 SCF Done:  E(RB3LYP) =  -808.965158951     A.U. after   12 cycles
 SCF Done:  E(RB3LYP) =  -808.965208126     A.U. after   11 cycles
 SCF Done:  E(RB3LYP) =  -808.965257263     A.U. after   11 cycles
 SCF Done:  E(RB3LYP) =  -808.965585261     A.U. after    9 cycles
 SCF Done:  E(RB3LYP) =  -808.965590509     A.U. after   10 cycles
 SCF Done:  E(RB3LYP) =  -808.965591703     A.U. after   10 cycles
 SCF Done:  E(RB3LYP) =  -808.965591941     A.U. after    8 cycles
 SCF Done:  E(RB3LYP) =  -808.965591897     A.U. after    7 cycles
 Optimization completed.
    -- Stationary point found.
 Normal termination of Gaussian 16 at Sun Dec 13 16:40:03 2020.

 --------------------------------------------------------------------
 #N Geom=AllCheck Guess=TCheck SCRF=Check GenChk RB3LYP/6-31G(d) Freq
 --------------------------------------------------------------------

 Structure from the checkpoint file:  "JID_9696.chk"
 -------------------------------
 CID_107000218_JID_9696_neutraal
 -------------------------------
 Charge =  0 Multiplicity = 1

 SCF Done:  E(RB3LYP) =  -808.965591897     A.U. after    1 cycles

  Exact polarizability: 227.566  -7.373 155.076   0.774   7.364 163.496
 Approx polarizability: 308.266 -12.928 205.159  10.083  13.946 281.216

                      1                      2                      3
                      A                      A                      A
 Frequencies --     15.2882                30.4501                37.8720
 Red. masses --      3.8951                 3.3877                 3.7909
 Frc consts  --      0.0005                 0.0019                 0.0032
 IR Inten    --      0.3197                 0.0268                 0.2271

                      4                      5                      6
                      A                      A                      A
 Frequencies --     50.6952                52.5902                76.1375
 Red. masses --      2.8750                 3.7929                 5.5192
 Frc consts  --      0.0044                 0.0062                 0.0189
 IR Inten    --      0.4774                 1.0049                 0.7331

                      7                      8                      9
                      A                      A                      A
 Frequencies --    109.9979               117.8037               150.6648
 Red. masses --      2.5779                 3.6707                 3.1366
 Frc consts  --      0.0184                 0.0300                 0.0419
 IR Inten    --      0.4399                 2.3500                 3.9277

                     10                     11                     12
                      A                      A                      A
 Frequencies --    181.5398               191.5135               217.7137
 Red. masses --      3.3731                 2.0380                 1.4363
 Frc consts  --      0.0655                 0.0440                 0.0401
 IR Inten    --      2.8643                 0.6483                 0.5495

                     13                     14                     15
                      A                      A                      A
 Frequencies --    231.7733               252.8715               259.5114
 Red. masses --      1.7513                 1.2208                 1.4160
 Frc consts  --      0.0554                 0.0460                 0.0562
 IR Inten    --      2.0355                 0.3642                 1.7283

                     16                     17                     18
                      A                      A                      A
 Frequencies --    292.1283               301.3728               313.0547
 Red. masses --      1.0437                 4.3178                 2.8136
 Frc consts  --      0.0525                 0.2311                 0.1625
 IR Inten    --     21.4032                 4.7973                 0.8775

                     19                     20                     21
                      A                      A                      A
 Frequencies --    348.8314               364.7619               367.2683
 Red. masses --      4.5240                 2.5516                 2.3085
 Frc consts  --      0.3243                 0.2000                 0.1835
 IR Inten    --      1.3752                 2.7596                 0.3500

                     22                     23                     24
                      A                      A                      A
 Frequencies --    381.1980               398.1455               404.3138
 Red. masses --      3.3627                 2.3360                 2.7125
 Frc consts  --      0.2879                 0.2182                 0.2613
 IR Inten    --      6.0251                 2.2808                 0.0509

                     25                     26                     27
                      A                      A                      A
 Frequencies --    418.9809               437.9278               446.2991
 Red. masses --      3.1658                 2.5508                 2.1952
 Frc consts  --      0.3274                 0.2882                 0.2576
 IR Inten    --      0.3566                 2.2436                 8.3859

                     28                     29                     30
                      A                      A                      A
 Frequencies --    512.7932               522.4266               567.9112
 Red. masses --      2.2492                 4.4631                 2.8561
 Frc consts  --      0.3485                 0.7177                 0.5427
 IR Inten    --     45.3321                18.2479                25.2141

                     31                     32                     33
                      A                      A                      A
 Frequencies --    626.2261               642.5689               658.8625
 Red. masses --      1.4881                 3.7867                 5.6328
 Frc consts  --      0.3438                 0.9212                 1.4407
 IR Inten    --    347.8661                13.8307                 1.3771

                     34                     35                     36
                      A                      A                      A
 Frequencies --    694.6520               712.3145               761.4568
 Red. masses --      3.7756                 3.2056                 3.9023
 Frc consts  --      1.0734                 0.9583                 1.3331
 IR Inten    --      3.3571                 5.0240                 4.1268

                     37                     38                     39
                      A                      A                      A
 Frequencies --    773.3104               780.2418               812.7650
 Red. masses --      3.1168                 1.7566                 2.3399
 Frc consts  --      1.0982                 0.6301                 0.9107
 IR Inten    --      7.6259                 6.3859                 1.5949

                     40                     41                     42
                      A                      A                      A
 Frequencies --    824.2223               830.0563               856.0394
 Red. masses --      1.6028                 1.3484                 3.0591
 Frc consts  --      0.6415                 0.5474                 1.3208
 IR Inten    --     32.9091                11.8610                19.9388

                     43                     44                     45
                      A                      A                      A
 Frequencies --    863.2197               875.1822               904.9081
 Red. masses --      4.9999                 2.7414                 1.5263
 Frc consts  --      2.1951                 1.2372                 0.7364
 IR Inten    --      2.8225                 7.2227                 3.3048

                     46                     47                     48
                      A                      A                      A
 Frequencies --    935.9397               941.1410               950.8034
 Red. masses --      1.3201                 1.3412                 1.4007
 Frc consts  --      0.6813                 0.6999                 0.7460
 IR Inten    --      4.5338                 0.9809                 2.2604

                     49                     50                     51
                      A                      A                      A
 Frequencies --    953.4292               984.6379               988.6108
 Red. masses --      1.6772                 1.5220                 1.7025
 Frc consts  --      0.8983                 0.8694                 0.9804
 IR Inten    --      4.1081                 3.2283                 4.2152

                     52                     53                     54
                      A                      A                      A
 Frequencies --    996.4606              1033.6460              1036.2001
 Red. masses --      1.6446                 2.3314                 2.0586
 Frc consts  --      0.9621                 1.4676                 1.3023
 IR Inten    --      0.9891                 8.2647                33.2917

                     55                     56                     57
                      A                      A                      A
 Frequencies --   1065.2899              1079.4751              1082.1147
 Red. masses --      2.0187                 1.3181                 1.4652
 Frc consts  --      1.3498                 0.9050                 1.0109
 IR Inten    --      0.7311                 2.9206                 2.4795

                     58                     59                     60
                      A                      A                      A
 Frequencies --   1103.2282              1116.9486              1125.9009
 Red. masses --      1.4661                 1.7928                 1.5614
 Frc consts  --      1.0513                 1.3178                 1.1662
 IR Inten    --      2.1440                10.0860                 6.6580

                     61                     62                     63
                      A                      A                      A
 Frequencies --   1132.8021              1158.1993              1166.2326
 Red. masses --      1.6913                 2.0397                 1.7749
 Frc consts  --      1.2787                 1.6121                 1.4223
 IR Inten    --     10.2622                68.4313                16.3544

                     64                     65                     66
                      A                      A                      A
 Frequencies --   1166.7945              1211.2418              1227.7079
 Red. masses --      1.2030                 1.3266                 2.1822
 Frc consts  --      0.9650                 1.1467                 1.9379
 IR Inten    --      6.4554                28.4185                11.2295

                     67                     68                     69
                      A                      A                      A
 Frequencies --   1238.0841              1258.6600              1308.8902
 Red. masses --      1.7357                 1.7895                 1.7825
 Frc consts  --      1.5676                 1.6703                 1.7992
 IR Inten    --    110.8946                42.9751                 3.3052

                     70                     71                     72
                      A                      A                      A
 Frequencies --   1313.4755              1324.5191              1331.1955
 Red. masses --      1.3928                 3.2294                 1.6877
 Frc consts  --      1.4158                 3.3381                 1.7621
 IR Inten    --      5.8760                84.9378                16.9308

                     73                     74                     75
                      A                      A                      A
 Frequencies --   1337.0339              1353.5036              1376.3842
 Red. masses --      1.9080                 2.0800                 2.1373
 Frc consts  --      2.0096                 2.2451                 2.3856
 IR Inten    --     22.3130                 6.1301                 4.2432

                     76                     77                     78
                      A                      A                      A
 Frequencies --   1395.6461              1404.4494              1416.0508
 Red. masses --      1.4532                 1.5799                 1.4728
 Frc consts  --      1.6677                 1.8361                 1.7400
 IR Inten    --     12.5815                50.4824                16.5013

                     79                     80                     81
                      A                      A                      A
 Frequencies --   1430.1025              1438.8578              1447.4991
 Red. masses --      1.4509                 1.3486                 1.2682
 Frc consts  --      1.7483                 1.6450                 1.5655
 IR Inten    --      6.5821                11.8352                 2.9370

                     82                     83                     84
                      A                      A                      A
 Frequencies --   1452.1357              1481.6745              1492.0521
 Red. masses --      1.2893                 2.1939                 2.1913
 Frc consts  --      1.6019                 2.8378                 2.8742
 IR Inten    --      2.2576               140.5186                34.6464

                     85                     86                     87
                      A                      A                      A
 Frequencies --   1506.1706              1509.2753              1514.4206
 Red. masses --      1.1324                 1.3426                 1.0710
 Frc consts  --      1.5135                 1.8019                 1.4472
 IR Inten    --      5.3891                35.9895                 7.5600

                     88                     89                     90
                      A                      A                      A
 Frequencies --   1516.3763              1521.7558              1525.2860
 Red. masses --      1.0928                 1.0583                 1.0630
 Frc consts  --      1.4804                 1.4439                 1.4570
 IR Inten    --     10.2297                 7.3301                12.2071

                     91                     92                     93
                      A                      A                      A
 Frequencies --   1531.9968              1535.4252              1540.0295
 Red. masses --      1.1142                 1.0621                 1.0884
 Frc consts  --      1.5408                 1.4753                 1.5209
 IR Inten    --     19.3497                19.2597                 3.8215

                     94                     95                     96
                      A                      A                      A
 Frequencies --   1542.1051              1571.5829              1641.2511
 Red. masses --      1.0985                 2.5791                 5.9933
 Frc consts  --      1.5391                 3.7531                 9.5119
 IR Inten    --     10.7773                90.4058                 6.4889

                     97                     98                     99
                      A                      A                      A
 Frequencies --   1679.1413              1697.8696              1733.7785
 Red. masses --      2.5361                 1.5240                 9.5670
 Frc consts  --      4.2131                 2.5884                16.9439
 IR Inten    --     10.3809               130.3186               236.9046

                    100                    101                    102
                      A                      A                      A
 Frequencies --   3028.8356              3033.1390              3039.0422
 Red. masses --      1.0628                 1.0365                 1.0395
 Frc consts  --      5.7446                 5.6184                 5.6563
 IR Inten    --     25.0891                24.0073                48.3635

                    103                    104                    105
                      A                      A                      A
 Frequencies --   3050.5183              3057.4224              3058.6779
 Red. masses --      1.0683                 1.0415                 1.0646
 Frc consts  --      5.8570                 5.7362                 5.8682
 IR Inten    --     34.0379                29.8402                22.5810

                    106                    107                    108
                      A                      A                      A
 Frequencies --   3064.5376              3089.6805              3092.1176
 Red. masses --      1.0947                 1.1012                 1.0985
 Frc consts  --      6.0575                 6.1936                 6.1884
 IR Inten    --     43.8053                 6.3738                26.3920

                    109                    110                    111
                      A                      A                      A
 Frequencies --   3093.7276              3110.9174              3121.7597
 Red. masses --      1.1010                 1.1017                 1.1014
 Frc consts  --      6.2089                 6.2819                 6.3242
 IR Inten    --     58.5109                28.5345                50.2380

                    112                    113                    114
                      A                      A                      A
 Frequencies --   3136.2967              3147.0579              3149.3293
 Red. masses --      1.1023                 1.0959                 1.0594
 Frc consts  --      6.3882                 6.3949                 6.1910
 IR Inten    --     19.4362                12.1868                15.5349

                    115                    116                    117
                      A                      A                      A
 Frequencies --   3151.9543              3164.9452              3176.8246
 Red. masses --      1.0934                 1.0865                 1.0886
 Frc consts  --      6.4004                 6.4125                 6.4729
 IR Inten    --      5.7346                16.3825                20.0970

                    118                    119                    120
                      A                      A                      A
 Frequencies --   3182.7306              3184.4252              3207.8728
 Red. masses --      1.0887                 1.0939                 1.0916
 Frc consts  --      6.4979                 6.5357                 6.6184
 IR Inten    --      8.2785                27.5945                 6.8564

                    121                    122                    123
                      A                      A                      A
 Frequencies --   3240.4523              3549.5207              3648.0687
 Red. masses --      1.1165                 1.0479                 1.0980
 Frc consts  --      6.9074                 7.7787                 8.6096
 IR Inten    --      3.7783                13.3177                 8.0133

 - Thermochemistry -
 -------------------
 Temperature   298.150 Kelvin.  Pressure   1.00000 Atm.
 Atom     1 has atomic number  6 and mass  12.00000

 Molecular mass:   260.18886 amu.
 Principal axes and moments of inertia in atomic units:
                           1         2         3
     Eigenvalues --  3479.204958032.361699809.54312
           X            0.99995  -0.00431  -0.00890
           Y            0.00432   0.99999   0.00055
           Z            0.00890  -0.00059   0.99996
 This molecule is an asymmetric top.
 Rotational symmetry number  1.
 Warning -- assumption of classical behavior for rotation
           may cause significant error
 Rotational temperatures (Kelvin)      0.02489     0.01078     0.00883
 Rotational constants (GHZ):           0.51872     0.22468     0.18398
 Zero-point vibrational energy     994534.6 (Joules/Mol)
                                  237.69947 (Kcal/Mol)
 Warning -- explicit consideration of  30 degrees of freedom as
           vibrations may cause significant error
 Vibrational temperatures:     22.00    43.81    54.49    72.94    75.67
          (Kelvin)            109.54   158.26   169.49   216.77   261.20
                              275.55   313.24   333.47   363.83   373.38
                              420.31   433.61   450.42   501.89   524.81
                              528.42   548.46   572.84   581.72   602.82
                              630.08   642.12   737.80   751.66   817.10
                              901.00   924.51   947.96   999.45  1024.86
                             1095.57  1112.62  1122.59  1169.39  1185.87
                             1194.27  1231.65  1241.98  1259.19  1301.96
                             1346.61  1354.09  1367.99  1371.77  1416.67
                             1422.39  1433.68  1487.19  1490.86  1532.71
                             1553.12  1556.92  1587.30  1607.04  1619.92
                             1629.85  1666.39  1677.95  1678.76  1742.71
                             1766.40  1781.33  1810.93  1883.20  1889.80
                             1905.69  1915.29  1923.69  1947.39  1980.31
                             2008.02  2020.69  2037.38  2057.60  2070.20
                             2082.63  2089.30  2131.80  2146.73  2167.04
                             2171.51  2178.91  2181.73  2189.47  2194.55
                             2204.20  2209.13  2215.76  2218.75  2261.16
                             2361.39  2415.91  2442.86  2494.52  4357.82
                             4364.01  4372.50  4389.02  4398.95  4400.76
                             4409.19  4445.36  4448.87  4451.18  4475.92
                             4491.52  4512.43  4527.91  4531.18  4534.96
                             4553.65  4570.74  4579.24  4581.68  4615.41
                             4662.29  5106.97  5248.76

 Zero-point correction=                           0.378798 (Hartree/Particle)
 Thermal correction to Energy=                    0.398816
 Thermal correction to Enthalpy=                  0.399760
 Thermal correction to Gibbs Free Energy=         0.328627
 Sum of electronic and zero-point Energies=           -808.586794
 Sum of electronic and thermal Energies=              -808.566776
 Sum of electronic and thermal Enthalpies=            -808.565831
 Sum of electronic and thermal Free Energies=         -808.636965

                     E (Thermal)             CV                S
                      KCal/Mol        Cal/Mol-Kelvin    Cal/Mol-Kelvin
 Total                  250.261             76.478            149.713
 Electronic               0.000              0.000              0.000
 Translational            0.889              2.981             42.568
 Rotational               0.889              2.981             33.971
 Vibrational            248.484             70.516             73.173
 Vibration     1          0.593              1.986              7.168
 Vibration     2          0.594              1.984              5.800
 Vibration     3          0.594              1.982              5.367
 Vibration     4          0.595              1.977              4.790
 Vibration     5          0.596              1.977              4.718
 Vibration     6          0.599              1.965              3.988
 Vibration     7          0.606              1.941              3.269
 Vibration     8          0.608              1.935              3.136
 Vibration     9          0.618              1.902              2.664
 Vibration    10          0.630              1.865              2.313
 Vibration    11          0.634              1.852              2.213
 Vibration    12          0.646              1.814              1.978
 Vibration    13          0.653              1.792              1.865
 Vibration    14          0.664              1.758              1.710
 Vibration    15          0.668              1.747              1.665
 Vibration    16          0.688              1.688              1.462
 Vibration    17          0.693              1.671              1.409
 Vibration    18          0.701              1.649              1.346
 Vibration    19          0.726              1.578              1.171
 Vibration    20          0.738              1.545              1.102
 Vibration    21          0.740              1.540              1.091
 Vibration    22          0.751              1.510              1.034
 Vibration    23          0.764              1.474              0.969
 Vibration    24          0.770              1.461              0.947
 Vibration    25          0.782              1.429              0.895
 Vibration    26          0.798              1.387              0.833
 Vibration    27          0.806              1.369              0.807
 Vibration    28          0.868              1.222              0.627
 Vibration    29          0.877              1.200              0.604
 Vibration    30          0.924              1.101              0.508

 Optimization completed.
    -- Stationary point found.
 Normal termination of Gaussian 16 at Sun Dec 13 17:05:27 2020.

 ----------------------------------------------------------------------
 # B3LYP/6-311++G(d,p) empiricaldispersion=gd3bj scf=xqc pop=npa geom=c
 heck
 ----------------------------------------------------------------------

 ---------------------------------------
 CID_107000218_JID_9696_Energie_neutraal
 ---------------------------------------
 Structure from the checkpoint file:  "JID_9696.chk"
 Charge =  0 Multiplicity = 1

 SCF Done:  E(RB3LYP) =  -809.191152126     A.U. after   15 cycles
 Normal termination of Gaussian 16 at Sun Dec 13 17:17:50 2020.

 ----------------------------------------------------------------------
 # B3LYP/6-311++G(d,p) empiricaldispersion=gd3bj scf=xqc pop=npa geom=c
 heck
 ----------------------------------------------------------------------

 -------------------------------------
 CID_107000218_JID_9696_Energie_kation
 -------------------------------------
 Structure from the checkpoint file:  "JID_9696.chk"
 Charge =  1 Multiplicity = 2

 SCF Done:  E(UB3LYP) =  -808.911692534     A.U. after   31 cycles
 Normal termination of Gaussian 16 at Sun Dec 13 17:51:41 2020.
 Gaussian 16:  ES64L-G16RevA.03 25-Dec-2016

 ----------------------------------------------------------------------
 # B3LYP/6-311++G(d,p) empiricaldispersion=gd3bj scf=xqc pop=npa geom=c
 heck
 ----------------------------------------------------------------------

 ------------------------------------
 CID_107000218_JID_9696_Energie_anion
 ------------------------------------
 Structure from the checkpoint file:  "JID_9696.chk"
 Charge = -1 Multiplicity = 2

                         Standard orientation:
 ---------------------------------------------------------------------
 Center     Atomic      Atomic             Coordinates (Angstroms)
 Number     Number       Type             X           Y           Z
 ---------------------------------------------------------------------
      1          6           0        2.956185   -2.900195   -0.479470
      2          6           0        1.481051   -3.293413   -0.379782
      3          6           0        0.667888   -2.384130    0.550596
      4          7           0        0.680566   -0.976805    0.150528
      5          6           0       -0.198778   -0.590697   -0.941469
      6          6           0       -1.629511   -0.287029   -0.527516
      7          6           0       -1.980474   -0.017957    0.797406
      8          6           0       -3.292361    0.291426    1.148102
      9          6           0       -4.300434    0.342332    0.174345
     10          6           0       -3.951690    0.069718   -1.159613
     11          6           0       -2.639648   -0.241764   -1.495439
     12          7           0       -5.629625    0.592638    0.527903
     13          6           0        1.492053   -0.096065    0.823860
     14          8           0        2.299482   -0.480855    1.671539
     15          6           0        1.354825    1.352862    0.458591
     16          6           0        2.213227    2.350955    1.199351
     17          6           0        2.517466    2.068899   -0.242722
     18          6           0        3.766704    1.279983   -0.585564
     19          6           0        2.133339    3.112000   -1.274888
     20          1           0        3.065626   -1.900288   -0.911898
     21          1           0        3.507274   -3.604172   -1.112970
     22          1           0        3.425453   -2.877448    0.508743
     23          1           0        1.029667   -3.298866   -1.381957
     24          1           0        1.387620   -4.320229   -0.001575
     25          1           0       -0.378178   -2.713057    0.582850
     26          1           0        1.074751   -2.428638    1.562252
     27          1           0        0.242246    0.267124   -1.458510
     28          1           0       -0.199338   -1.406066   -1.674746
     29          1           0       -1.219239   -0.057252    1.570407
     30          1           0       -3.541751    0.488868    2.188087
     31          1           0       -4.719987    0.091550   -1.929071
     32          1           0       -2.396228   -0.452845   -2.535049
     33          1           0       -6.199424    0.978653   -0.214744
     34          1           0       -5.746366    1.113949    1.388070
     35          1           0        0.360884    1.681062    0.171201
     36          1           0        2.871248    1.926112    1.950715
     37          1           0        1.758565    3.303041    1.459798
     38          1           0        3.983023    0.524606    0.172928
     39          1           0        3.655958    0.774369   -1.553943
     40          1           0        4.630015    1.952786   -0.659869
     41          1           0        1.955997    2.650935   -2.255036
     42          1           0        1.224174    3.650398   -0.985349
     43          1           0        2.936511    3.849863   -1.396389
 ---------------------------------------------------------------------

 SCF Done:  E(UB3LYP) =  -809.181561533     A.U. after   33 cycles
 SCF Done:  E(UB3LYP) =  -809.181561533     a.u. after    1 cycles

 The electronic state is 2-A.
 Alpha  occ. eigenvalues --  -18.99681 -14.25473 -14.21878 -10.18378 -10.12496
 Alpha  occ. eigenvalues --  -10.11955 -10.11616 -10.11264 -10.09712 -10.09027
 Alpha  occ. eigenvalues --  -10.08652 -10.08321 -10.08192 -10.08176 -10.08154
 Alpha  occ. eigenvalues --  -10.07750 -10.07572 -10.07564 -10.07521  -0.95003
 Alpha  occ. eigenvalues --   -0.85340  -0.82337  -0.79205  -0.75191  -0.70382
 Alpha  occ. eigenvalues --   -0.66479  -0.65469  -0.65151  -0.61836  -0.61076
 Alpha  occ. eigenvalues --   -0.59803  -0.55331  -0.52556  -0.50670  -0.49957
 Alpha  occ. eigenvalues --   -0.47163  -0.44987  -0.43076  -0.42869  -0.41919
 Alpha  occ. eigenvalues --   -0.39621  -0.38943  -0.38216  -0.36816  -0.35859
 Alpha  occ. eigenvalues --   -0.35485  -0.35066  -0.34276  -0.33682  -0.32944
 Alpha  occ. eigenvalues --   -0.32378  -0.32120  -0.31473  -0.31078  -0.29982
 Alpha  occ. eigenvalues --   -0.29761  -0.28700  -0.28402  -0.27433  -0.26997
 Alpha  occ. eigenvalues --   -0.26874  -0.26423  -0.25711  -0.24950  -0.21599
 Alpha  occ. eigenvalues --   -0.21138  -0.19669  -0.16954  -0.16340  -0.15858
 Alpha  occ. eigenvalues --   -0.11395   0.03805
 Alpha virt. eigenvalues --    0.05260   0.05984   0.06625   0.07281   0.07409
 Alpha virt. eigenvalues --    0.07845   0.08243   0.08403   0.08780   0.09171
 Alpha virt. eigenvalues --    0.09550   0.09741   0.10172   0.10398   0.11015

  Beta  occ. eigenvalues --  -18.99679 -14.25473 -14.21812 -10.18378 -10.12484
  Beta  occ. eigenvalues --  -10.11947 -10.11613 -10.11264 -10.09708 -10.09018
  Beta  occ. eigenvalues --  -10.08646 -10.08319 -10.08182 -10.08151 -10.08151
  Beta  occ. eigenvalues --  -10.07737 -10.07558 -10.07545 -10.07512  -0.95001
  Beta  occ. eigenvalues --   -0.85335  -0.82262  -0.79200  -0.75159  -0.70368
  Beta  occ. eigenvalues --   -0.66444  -0.65444  -0.65128  -0.61821  -0.61042
  Beta  occ. eigenvalues --   -0.59760  -0.55312  -0.52518  -0.50641  -0.49915
  Beta  occ. eigenvalues --   -0.47140  -0.44967  -0.43030  -0.42835  -0.41879
  Beta  occ. eigenvalues --   -0.39585  -0.38901  -0.38189  -0.36786  -0.35843
  Beta  occ. eigenvalues --   -0.35468  -0.35050  -0.34242  -0.33655  -0.32916
  Beta  occ. eigenvalues --   -0.32356  -0.32092  -0.31459  -0.31060  -0.29961
  Beta  occ. eigenvalues --   -0.29746  -0.28667  -0.28389  -0.27408  -0.26978
  Beta  occ. eigenvalues --   -0.26855  -0.26405  -0.25695  -0.24927  -0.21559
  Beta  occ. eigenvalues --   -0.21122  -0.19659  -0.16950  -0.16327  -0.15853
  Beta  occ. eigenvalues --   -0.11345
  Beta virt. eigenvalues --    0.05527   0.06201   0.06687   0.07125   0.07370
  Beta virt. eigenvalues --    0.07660   0.08218   0.08454   0.08682   0.08888
  Beta virt. eigenvalues --    0.09205   0.09718   0.10024   0.10291   0.10649

 Mulliken charges and spin densities:
               1          2
     1  C   -0.287888  -0.173878
     2  C   -0.158969  -0.124809
     3  C   -0.085117  -0.146369
     4  N    0.373306   0.012916
     5  C    0.743153  -1.279979
     6  C    1.319933  -1.140315
     7  C    0.182646  -0.113974
     8  C   -1.118626   0.825696
     9  C    0.809430  -1.215774
    10  C   -0.082259   0.043821
    11  C   -0.986110   0.736884
    12  N   -0.234704  -0.071464
    13  C   -0.855935  -0.120490
    14  O   -0.255498   0.004409
    15  C    0.480061   0.176499
    16  C   -0.130854  -0.522826
    17  C   -0.357826   0.704148
    18  C   -0.161520  -0.348849
    19  C    0.228730  -0.817147
    20  H    0.093514   0.054034
    21  H   -0.057763   0.201585
    22  H    0.172081  -0.021988
    23  H   -0.031201   0.151973
    24  H    0.059855   0.082967
    25  H    0.189383  -0.044840
    26  H    0.151098   0.050961
    27  H    0.314151  -0.106423
    28  H    0.082381   0.081639
    29  H    0.154389   0.050748
    30  H   -0.300037   0.464821
    31  H   -0.515065   0.690649
    32  H   -0.572001   0.740635
    33  H   -0.314521   0.567586
    34  H   -0.265011   0.509919
    35  H    0.329187  -0.068964
    36  H    0.208379  -0.014355
    37  H   -0.003168   0.168379
    38  H    0.097831   0.066859
    39  H    0.016265   0.121013
    40  H    0.055189   0.101479
    41  H   -0.155249   0.307107
    42  H   -0.103750   0.243419
    43  H   -0.027892   0.172298
 Sum of Mulliken charges =  -1.00000   1.00000

 Dipole moment (field-independent basis, Debye):
    X=              8.7628    Y=             -2.8427    Z=              1.3655  Tot=              9.3130
 Quadrupole moment (field-independent basis, Debye-Ang):
   XX=           -241.6780   YY=           -158.7322   ZZ=           -159.8464
   XY=             11.5536   XZ=             -1.0521   YZ=              1.1998

 Summary of Natural Population Analysis:

                                       Natural Population
                Natural  -----------------------------------------------
    Atom  No    Charge         Core      Valence    Rydberg      Total
 -----------------------------------------------------------------------
      C    1   -0.28778      0.99966     2.28346    0.00466     3.28778
      C    2   -0.19489      0.99964     2.18775    0.00750     3.19489
      C    3   -0.08644      0.99960     2.07743    0.00941     3.08644
      N    4   -0.25519      0.99964     2.74397    0.01158     3.75519
      C    5   -0.08922      0.99957     2.07849    0.01116     3.08922
      C    6   -0.04985      0.99949     2.04058    0.00978     3.04985
      C    7   -0.09608      0.99951     2.08812    0.00845     3.09608
      C    8   -0.12035      0.99952     2.11075    0.01008     3.12035
      C    9    0.08636      0.99949     1.90249    0.01166     2.91364
      C   10   -0.11740      0.99952     2.10769    0.01019     3.11740
      C   11   -0.08976      0.99952     2.08034    0.00990     3.08976
      N   12   -0.39430      0.99972     2.88406    0.01052     3.89430
      C   13    0.34745      0.99960     1.62878    0.02417     2.65255
      O   14   -0.33653      0.99988     3.33177    0.00488     4.33653
      C   15   -0.16190      0.99950     2.15219    0.01022     3.16190
      C   16   -0.18499      0.99957     2.17702    0.00840     3.18499
      C   17   -0.03126      0.99957     2.02152    0.01017     3.03126
      C   18   -0.28887      0.99962     2.28290    0.00635     3.28887
      C   19   -0.28118      0.99962     2.27546    0.00609     3.28118
      H   20    0.10032      0.00000     0.39858    0.00110     0.39968
      H   21    0.09546      0.00000     0.40372    0.00082     0.40454
      H   22    0.10213      0.00000     0.39691    0.00096     0.39787
      H   23    0.09353      0.00000     0.40525    0.00122     0.40647
      H   24    0.09537      0.00000     0.40375    0.00088     0.40463
      H   25    0.09859      0.00000     0.40039    0.00102     0.40141
      H   26    0.11008      0.00000     0.38870    0.00121     0.38992
      H   27    0.10803      0.00000     0.39045    0.00152     0.39197
      H   28    0.10207      0.00000     0.39656    0.00136     0.39793
      H   29    0.10218      0.00000     0.39624    0.00157     0.39782
      H   30    0.09947      0.00000     0.39925    0.00128     0.40053
      H   31    0.10245      0.00000     0.39612    0.00143     0.39755
      H   32    0.09968      0.00000     0.39910    0.00122     0.40032
      H   33    0.18942      0.00000     0.30394    0.00664     0.31058
      H   34    0.18751      0.00000     0.30763    0.00486     0.31249
      H   35    0.11612      0.00000     0.38178    0.00210     0.38388
      H   36    0.11400      0.00000     0.38500    0.00100     0.38600
      H   37    0.10291      0.00000     0.39627    0.00081     0.39709
      H   38    0.11252      0.00000     0.38644    0.00105     0.38748
      H   39    0.09886      0.00000     0.40014    0.00100     0.40114
      H   40    0.09877      0.00000     0.40050    0.00073     0.40123
      H   41    0.10165      0.00000     0.39723    0.00112     0.39835
      H   42    0.10178      0.00000     0.39720    0.00102     0.39822
      H   43    0.09927      0.00000     0.39988    0.00084     0.40073
 =======================================================================
   * Total *    0.00000     18.99222    51.78584    0.22194    71.00000

 Normal termination of Gaussian 16 at Sun Dec 13 18:27:42 2020.
