 Gaussian 16, Revision A.03,

 -----------------------------------------------------------
 # opt freq B3LYP/6-31G(d) empiricaldispersion=gd3bj scf=xqc
 -----------------------------------------------------------

 ------------------------------
 CID_15208834_JID_2953_neutraal
 ------------------------------
 Symbolic Z-matrix:
 Charge =  0 Multiplicity = 1

 SCF Done:  E(RB3LYP) =  -504.030243161     A.U. after   15 cycles
 SCF Done:  E(RB3LYP) =  -504.032497007     A.U. after   12 cycles
 SCF Done:  E(RB3LYP) =  -504.032704212     A.U. after   11 cycles
 SCF Done:  E(RB3LYP) =  -504.032718691     A.U. after    9 cycles
 SCF Done:  E(RB3LYP) =  -504.032718847     A.U. after    9 cycles
 SCF Done:  E(RB3LYP) =  -504.032719842     A.U. after    9 cycles
 SCF Done:  E(RB3LYP) =  -504.032720290     A.U. after    8 cycles
 Optimization completed.
    -- Stationary point found.
 Normal termination of Gaussian 16 at Wed Dec  9 18:14:19 2020.

 --------------------------------------------------------------------
 #N Geom=AllCheck Guess=TCheck SCRF=Check GenChk RB3LYP/6-31G(d) Freq
 --------------------------------------------------------------------

 Structure from the checkpoint file:  "JID_2953.chk"
 ------------------------------
 CID_15208834_JID_2953_neutraal
 ------------------------------
 Charge =  0 Multiplicity = 1

 SCF Done:  E(RB3LYP) =  -504.032720290     A.U. after    1 cycles

  Exact polarizability: 309.170 -18.890 106.315   0.000   0.000  69.792
 Approx polarizability: 466.357 -62.212 165.242   0.000  -0.000  98.641

                      1                      2                      3
                      A                      A                      A
 Frequencies --     34.1188                52.5935                65.5628
 Red. masses --      4.5512                 4.9985                 2.4004
 Frc consts  --      0.0031                 0.0081                 0.0061
 IR Inten    --      1.0776                 2.3641                 0.0002

                      4                      5                      6
                      A                      A                      A
 Frequencies --     99.9599               146.6732               157.4103
 Red. masses --      2.9103                 4.0659                 3.4761
 Frc consts  --      0.0171                 0.0515                 0.0507
 IR Inten    --      4.3552                 2.3736                 0.4937

                      7                      8                      9
                      A                      A                      A
 Frequencies --    225.8350               230.4256               235.3748
 Red. masses --      4.7363                 1.9904                 1.1797
 Frc consts  --      0.1423                 0.0623                 0.0385
 IR Inten    --      0.3360                 2.1008                 0.5670

                     10                     11                     12
                      A                      A                      A
 Frequencies --    262.7221               265.7096               288.2376
 Red. masses --      2.1216                 1.9113                 1.3745
 Frc consts  --      0.0863                 0.0795                 0.0673
 IR Inten    --      0.0050                 1.7338                 1.0134

                     13                     14                     15
                      A                      A                      A
 Frequencies --    304.6473               348.4185               351.7850
 Red. masses --      1.0487                 2.5576                 2.1608
 Frc consts  --      0.0573                 0.1829                 0.1575
 IR Inten    --      0.0387                 1.2716                 0.0272

                     16                     17                     18
                      A                      A                      A
 Frequencies --    393.1112               412.7774               427.0749
 Red. masses --      2.2251                 3.4689                 2.8942
 Frc consts  --      0.2026                 0.3482                 0.3110
 IR Inten    --      0.7587                 4.2469                 1.3977

                     19                     20                     21
                      A                      A                      A
 Frequencies --    491.7295               541.1178               548.8541
 Red. masses --      2.8950                 3.3664                 3.2424
 Frc consts  --      0.4124                 0.5808                 0.5755
 IR Inten    --      0.9065                 8.6868                 4.4995

                     22                     23                     24
                      A                      A                      A
 Frequencies --    634.0095               775.5985               830.3483
 Red. masses --      3.7067                 3.3387                 1.4223
 Frc consts  --      0.8779                 1.1833                 0.5778
 IR Inten    --      8.2056                 2.3826                 0.3220

                     25                     26                     27
                      A                      A                      A
 Frequencies --    877.6943               921.4566               937.7523
 Red. masses --      1.8138                 2.1693                 2.2093
 Frc consts  --      0.8233                 1.0852                 1.1447
 IR Inten    --      2.9260                 1.9108                14.9984

                     28                     29                     30
                      A                      A                      A
 Frequencies --    941.0789               963.3991               967.1231
 Red. masses --      1.7655                 1.5843                 1.1486
 Frc consts  --      0.9212                 0.8663                 0.6330
 IR Inten    --      0.3845                13.7025                 1.5107

                     31                     32                     33
                      A                      A                      A
 Frequencies --    975.5275              1005.3838              1028.5899
 Red. masses --      1.1999                 1.3481                 1.3140
 Frc consts  --      0.6728                 0.8029                 0.8191
 IR Inten    --      0.0008                 4.7585                 8.6643

                     34                     35                     36
                      A                      A                      A
 Frequencies --   1056.0459              1059.8343              1060.4515
 Red. masses --      1.3821                 1.4590                 1.1371
 Frc consts  --      0.9082                 0.9655                 0.7534
 IR Inten    --      1.8781                 0.1632                57.7662

                     37                     38                     39
                      A                      A                      A
 Frequencies --   1143.1895              1184.1155              1197.8113
 Red. masses --      3.4111                 2.2583                 2.5354
 Frc consts  --      2.6265                 1.8656                 2.1433
 IR Inten    --    194.9184                70.3817                63.3668

                     40                     41                     42
                      A                      A                      A
 Frequencies --   1217.3312              1236.9935              1255.7553
 Red. masses --      1.3677                 2.6310                 1.7655
 Frc consts  --      1.1942                 2.3719                 1.6403
 IR Inten    --     47.3911                 3.5327                21.3089

                     43                     44                     45
                      A                      A                      A
 Frequencies --   1295.9001              1316.1930              1332.2504
 Red. masses --      1.5513                 2.3038                 1.8165
 Frc consts  --      1.5349                 2.3515                 1.8996
 IR Inten    --      0.1666                35.8390                 0.8475

                     46                     47                     48
                      A                      A                      A
 Frequencies --   1342.9910              1356.6003              1378.9237
 Red. masses --      1.4351                 1.3131                 1.4082
 Frc consts  --      1.5250                 1.4238                 1.5776
 IR Inten    --      1.2442                 1.8130                 3.9680

                     49                     50                     51
                      A                      A                      A
 Frequencies --   1422.9461              1427.0404              1443.4695
 Red. masses --      1.2105                 1.2464                 1.2529
 Frc consts  --      1.4441                 1.4954                 1.5381
 IR Inten    --      3.2705                 6.5892                 1.4083

                     52                     53                     54
                      A                      A                      A
 Frequencies --   1456.4715              1510.4233              1516.5252
 Red. masses --      1.2283                 1.0484                 1.0459
 Frc consts  --      1.5352                 1.4092                 1.4173
 IR Inten    --      0.6542                 0.0427                 0.3356

                     55                     56                     57
                      A                      A                      A
 Frequencies --   1519.9146              1533.5455              1534.7013
 Red. masses --      1.0444                 1.0576                 1.0495
 Frc consts  --      1.4215                 1.4655                 1.4564
 IR Inten    --      0.8365                 5.4381                 6.3467

                     58                     59                     60
                      A                      A                      A
 Frequencies --   1550.0513              1652.2677              1687.4351
 Red. masses --      1.0648                 5.6253                 4.5199
 Frc consts  --      1.5073                 9.0481                 7.5828
 IR Inten    --      7.4315                26.1450               475.3552

                     61                     62                     63
                      A                      A                      A
 Frequencies --   1714.1170              1782.0775              2883.1147
 Red. masses --      5.4640                 9.1113                 1.0826
 Frc consts  --      9.4589                17.0484                 5.3021
 IR Inten    --     13.9102               441.8317               146.3610

                     64                     65                     66
                      A                      A                      A
 Frequencies --   3041.9235              3044.2783              3051.6273
 Red. masses --      1.0341                 1.0343                 1.0357
 Frc consts  --      5.6380                 5.6474                 5.6824
 IR Inten    --     25.1649                42.6424                23.5380

                     67                     68                     69
                      A                      A                      A
 Frequencies --   3108.9243              3112.7614              3117.1963
 Red. masses --      1.1028                 1.1023                 1.1034
 Frc consts  --      6.2802                 6.2929                 6.3170
 IR Inten    --      0.0884                30.6811                 2.2465

                     70                     71                     72
                      A                      A                      A
 Frequencies --   3118.5730              3121.5390              3122.9473
 Red. masses --      1.1019                 1.1024                 1.1012
 Frc consts  --      6.3141                 6.3286                 6.3275
 IR Inten    --     25.5492                47.5059                72.2099

                     73                     74                     75
                      A                      A                      A
 Frequencies --   3127.3753              3138.2779              3149.4505
 Red. masses --      1.0890                 1.0879                 1.0895
 Frc consts  --      6.2751                 6.3130                 6.3674
 IR Inten    --     31.8755                 7.0851                10.5811

                     76                     77                     78
                      A                      A                      A
 Frequencies --   3164.7083              3180.4172              3192.1158
 Red. masses --      1.0882                 1.0878                 1.0906
 Frc consts  --      6.4213                 6.4829                 6.5473
 IR Inten    --     13.7848                22.4480                 9.1038

 - Thermochemistry -
 -------------------
 Temperature   298.150 Kelvin.  Pressure   1.00000 Atm.
 Atom     1 has atomic number  6 and mass  12.00000

 Molecular mass:   164.12012 amu.
 Principal axes and moments of inertia in atomic units:
                           1         2         3
     Eigenvalues --   478.266388446.285088527.32665
           X            1.00000   0.00221   0.00000
           Y           -0.00221   1.00000   0.00000
           Z           -0.00000  -0.00000   1.00000
 This molecule is an asymmetric top.
 Rotational symmetry number  1.
 Warning -- assumption of classical behavior for rotation
           may cause significant error
 Rotational temperatures (Kelvin)      0.18110     0.01025     0.01016
 Rotational constants (GHZ):           3.77351     0.21367     0.21164
 Zero-point vibrational energy     637625.8 (Joules/Mol)
                                  152.39621 (Kcal/Mol)
 Warning -- explicit consideration of  21 degrees of freedom as
           vibrations may cause significant error
 Vibrational temperatures:     49.09    75.67    94.33   143.82   211.03
          (Kelvin)            226.48   324.93   331.53   338.65   378.00
                              382.30   414.71   438.32   501.30   506.14
                              565.60   593.89   614.47   707.49   778.55
                              789.68   912.20  1115.91  1194.69  1262.81
                             1325.77  1349.22  1354.00  1386.12  1391.47
                             1403.57  1446.52  1479.91  1519.41  1524.87
                             1525.75  1644.79  1703.68  1723.38  1751.47
                             1779.76  1806.75  1864.51  1893.71  1916.81
                             1932.26  1951.85  1983.96  2047.30  2053.19
                             2076.83  2095.54  2173.16  2181.94  2186.82
                             2206.43  2208.09  2230.18  2377.24  2427.84
                             2466.23  2564.01  4148.16  4376.65  4380.04
                             4390.61  4473.05  4478.57  4484.95  4486.93
                             4491.20  4493.22  4499.60  4515.28  4531.36
                             4553.31  4575.91  4592.74

 Zero-point correction=                           0.242859 (Hartree/Particle)
 Thermal correction to Energy=                    0.256767
 Thermal correction to Enthalpy=                  0.257711
 Thermal correction to Gibbs Free Energy=         0.201806
 Sum of electronic and zero-point Energies=           -503.789861
 Sum of electronic and thermal Energies=              -503.775953
 Sum of electronic and thermal Enthalpies=            -503.775009
 Sum of electronic and thermal Free Energies=         -503.830914

                     E (Thermal)             CV                S
                      KCal/Mol        Cal/Mol-Kelvin    Cal/Mol-Kelvin
 Total                  161.124             50.911            117.662
 Electronic               0.000              0.000              0.000
 Translational            0.889              2.981             41.195
 Rotational               0.889              2.981             31.910
 Vibrational            159.346             44.950             44.557
 Vibration     1          0.594              1.983              5.574
 Vibration     2          0.596              1.977              4.717
 Vibration     3          0.597              1.971              4.282
 Vibration     4          0.604              1.949              3.455
 Vibration     5          0.617              1.906              2.715
 Vibration     6          0.621              1.894              2.581
 Vibration     7          0.650              1.802              1.912
 Vibration     8          0.652              1.795              1.876
 Vibration     9          0.655              1.787              1.838
 Vibration    10          0.670              1.741              1.644
 Vibration    11          0.672              1.736              1.624
 Vibration    12          0.685              1.696              1.484
 Vibration    13          0.696              1.665              1.391
 Vibration    14          0.726              1.578              1.173
 Vibration    15          0.728              1.572              1.158
 Vibration    16          0.760              1.485              0.988
 Vibration    17          0.777              1.442              0.917
 Vibration    18          0.789              1.411              0.868
 Vibration    19          0.847              1.268              0.679
 Vibration    20          0.896              1.159              0.563
 Vibration    21          0.904              1.142              0.547

 Optimization completed.
    -- Stationary point found.
 Normal termination of Gaussian 16 at Wed Dec  9 18:19:57 2020.

 ----------------------------------------------------------------------
 # B3LYP/6-311++G(d,p) empiricaldispersion=gd3bj scf=xqc pop=npa geom=c
 heck
 ----------------------------------------------------------------------

 --------------------------------------
 CID_15208834_JID_2953_Energie_neutraal
 --------------------------------------
 Structure from the checkpoint file:  "JID_2953.chk"
 Charge =  0 Multiplicity = 1

 SCF Done:  E(RB3LYP) =  -504.177783749     A.U. after   15 cycles
 Normal termination of Gaussian 16 at Wed Dec  9 18:23:27 2020.

 ----------------------------------------------------------------------
 # B3LYP/6-311++G(d,p) empiricaldispersion=gd3bj scf=xqc pop=npa geom=c
 heck
 ----------------------------------------------------------------------

 ------------------------------------
 CID_15208834_JID_2953_Energie_kation
 ------------------------------------
 Structure from the checkpoint file:  "JID_2953.chk"
 Charge =  1 Multiplicity = 2

 SCF Done:  E(UB3LYP) =  -503.883796987     A.U. after   21 cycles
 Normal termination of Gaussian 16 at Wed Dec  9 18:27:45 2020.
 Gaussian 16:  ES64L-G16RevA.03 25-Dec-2016

 ----------------------------------------------------------------------
 # B3LYP/6-311++G(d,p) empiricaldispersion=gd3bj scf=xqc pop=npa geom=c
 heck
 ----------------------------------------------------------------------

 -----------------------------------
 CID_15208834_JID_2953_Energie_anion
 -----------------------------------
 Structure from the checkpoint file:  "JID_2953.chk"
 Charge = -1 Multiplicity = 2

                         Standard orientation:
 ---------------------------------------------------------------------
 Center     Atomic      Atomic             Coordinates (Angstroms)
 Number     Number       Type             X           Y           Z
 ---------------------------------------------------------------------
      1          6           0        3.557382    1.527001   -0.000003
      2          6           0        3.477610   -0.005862   -0.000000
      3          6           0        4.184914   -0.558231   -1.257843
      4          6           0        4.184914   -0.558227    1.257845
      5          6           0        2.056197   -0.513388    0.000000
      6          6           0        0.922627    0.212922   -0.000000
      7          6           0       -0.395042   -0.377359    0.000000
      8          6           0       -1.553939    0.326897    0.000000
      9          6           0       -2.852517   -0.289211    0.000000
     10          6           0       -4.034316    0.372287    0.000001
     11          6           0       -5.303821   -0.348435    0.000001
     12          8           0       -6.403851    0.178856   -0.000001
     13          1           0        4.604328    1.848913   -0.000003
     14          1           0        3.076414    1.952483    0.887693
     15          1           0        3.076415    1.952480   -0.887700
     16          1           0        5.239484   -0.258468   -1.265182
     17          1           0        4.145674   -1.653351   -1.285808
     18          1           0        3.713357   -0.178815   -2.170718
     19          1           0        3.713356   -0.178807    2.170718
     20          1           0        4.145674   -1.653346    1.285814
     21          1           0        5.239483   -0.258464    1.265183
     22          1           0        1.964825   -1.601900    0.000001
     23          1           0        0.969629    1.299967   -0.000001
     24          1           0       -0.445472   -1.466951    0.000001
     25          1           0       -1.516155    1.415757    0.000000
     26          1           0       -2.874764   -1.380837    0.000000
     27          1           0       -4.081486    1.459065    0.000001
     28          1           0       -5.204009   -1.458934   -0.000003
 ---------------------------------------------------------------------

 SCF Done:  E(UB3LYP) =  -504.211925501     A.U. after   19 cycles

 The electronic state is 2-A.
 Alpha  occ. eigenvalues --  -18.93119 -10.08577 -10.07300 -10.06651 -10.06651
 Alpha  occ. eigenvalues --  -10.06637 -10.03663 -10.02799 -10.02066 -10.02009
 Alpha  occ. eigenvalues --  -10.01847 -10.00247  -0.86600  -0.72797  -0.67281
 Alpha  occ. eigenvalues --   -0.63753  -0.59541  -0.59318  -0.58520  -0.51051
 Alpha  occ. eigenvalues --   -0.46045  -0.42076  -0.40956  -0.40354  -0.36371
 Alpha  occ. eigenvalues --   -0.35164  -0.34612  -0.32716  -0.30783  -0.30075
 Alpha  occ. eigenvalues --   -0.29263  -0.27598  -0.27578  -0.26875  -0.24775
 Alpha  occ. eigenvalues --   -0.24264  -0.23679  -0.23507  -0.22620  -0.21657
 Alpha  occ. eigenvalues --   -0.20700  -0.19959  -0.14994  -0.08958  -0.07960
 Alpha  occ. eigenvalues --    0.02476
 Alpha virt. eigenvalues --    0.06281   0.08521   0.08669   0.09444   0.10521
 Alpha virt. eigenvalues --    0.11084   0.11306   0.11357   0.12436   0.12492
 Alpha virt. eigenvalues --    0.13117   0.13487   0.14348   0.14997   0.15406

  Beta  occ. eigenvalues --  -18.92684 -10.08605 -10.07167 -10.06637 -10.06620
  Beta  occ. eigenvalues --  -10.06619 -10.03747 -10.02395 -10.01991 -10.01809
  Beta  occ. eigenvalues --  -10.01492 -10.00091  -0.85835  -0.72609  -0.66759
  Beta  occ. eigenvalues --   -0.63257  -0.59513  -0.59248  -0.58006  -0.50378
  Beta  occ. eigenvalues --   -0.45618  -0.41856  -0.40619  -0.40035  -0.36256
  Beta  occ. eigenvalues --   -0.35063  -0.34529  -0.32548  -0.30581  -0.29960
  Beta  occ. eigenvalues --   -0.29084  -0.27581  -0.27332  -0.26713  -0.24467
  Beta  occ. eigenvalues --   -0.24090  -0.23528  -0.22533  -0.21621  -0.21507
  Beta  occ. eigenvalues --   -0.20465  -0.18497  -0.13352  -0.08550  -0.05880
  Beta virt. eigenvalues --    0.06240   0.08104   0.08481   0.09157   0.09410
  Beta virt. eigenvalues --    0.10503   0.11067   0.11338   0.11364   0.12434
  Beta virt. eigenvalues --    0.12483   0.13099   0.14342   0.14916   0.15296

 Mulliken charges and spin densities:
               1          2
     1  C   -0.553279   0.002985
     2  C    0.843332  -0.000223
     3  C   -0.632419  -0.018981
     4  C   -0.632419  -0.018981
     5  C    0.071030   0.319778
     6  C   -0.274147  -0.061226
     7  C   -0.343957   0.232330
     8  C   -0.190106   0.009066
     9  C   -0.174305   0.178451
    10  C    0.031382   0.106659
    11  C   -0.304775   0.136084
    12  O   -0.391406   0.141494
    13  H    0.136617  -0.000396
    14  H    0.130585   0.000004
    15  H    0.130585   0.000004
    16  H    0.102837   0.017778
    17  H    0.122452   0.002545
    18  H    0.139373   0.000311
    19  H    0.139373   0.000311
    20  H    0.122452   0.002545
    21  H    0.102837   0.017778
    22  H    0.147223  -0.018646
    23  H    0.062241   0.001870
    24  H    0.012427  -0.018588
    25  H    0.030311  -0.003366
    26  H    0.036217  -0.011908
    27  H    0.116752  -0.009537
    28  H    0.018786  -0.008140
 Sum of Mulliken charges =  -1.00000   1.00000

 Dipole moment (field-independent basis, Debye):
    X=             13.7046    Y=             -0.2478    Z=             -0.0000  Tot=             13.7068
 Quadrupole moment (field-independent basis, Debye-Ang):
   XX=           -195.7959   YY=            -78.4277   ZZ=            -85.6950
   XY=              5.5452   XZ=             -0.0000   YZ=             -0.0000

 Summary of Natural Population Analysis:

                                       Natural Population
                Natural  -----------------------------------------------
    Atom  No    Charge         Core      Valence    Rydberg      Total
 -----------------------------------------------------------------------
      C    1   -0.28466      0.99964     2.27946    0.00556     3.28466
      C    2   -0.06580      0.99958     2.05922    0.00700     3.06580
      C    3   -0.27431      0.99964     2.26929    0.00538     3.27431
      C    4   -0.27431      0.99964     2.26929    0.00538     3.27431
      C    5   -0.00532      0.99952     1.99500    0.01081     3.00532
      C    6   -0.13507      0.99951     2.12724    0.00832     3.13507
      C    7   -0.02088      0.99954     2.01154    0.00980     3.02088
      C    8   -0.11319      0.99953     2.10454    0.00912     3.11319
      C    9   -0.03467      0.99954     2.02564    0.00949     3.03467
      C   10   -0.12651      0.99952     2.11687    0.01012     3.12651
      C   11    0.20233      0.99970     1.77654    0.02142     2.79767
      O   12   -0.26535      0.99988     3.25674    0.00873     4.26535
      H   13    0.09271      0.00000     0.40651    0.00078     0.40729
      H   14    0.10058      0.00000     0.39857    0.00085     0.39942
      H   15    0.10058      0.00000     0.39857    0.00085     0.39942
      H   16    0.09021      0.00000     0.40889    0.00090     0.40979
      H   17    0.09648      0.00000     0.40273    0.00079     0.40352
      H   18    0.10012      0.00000     0.39911    0.00077     0.39988
      H   19    0.10012      0.00000     0.39911    0.00077     0.39988
      H   20    0.09648      0.00000     0.40273    0.00079     0.40352
      H   21    0.09021      0.00000     0.40889    0.00090     0.40979
      H   22    0.08140      0.00000     0.41736    0.00124     0.41860
      H   23    0.08842      0.00000     0.41008    0.00150     0.41158
      H   24    0.07990      0.00000     0.41820    0.00190     0.42010
      H   25    0.08449      0.00000     0.41391    0.00160     0.41551
      H   26    0.08137      0.00000     0.41667    0.00196     0.41863
      H   27    0.08691      0.00000     0.41122    0.00187     0.41309
      H   28    0.02775      0.00000     0.46930    0.00296     0.47225
 =======================================================================
   * Total *   -0.00000     11.99524    32.87322    0.13155    45.00000

 Normal termination of Gaussian 16 at Wed Dec  9 18:31:22 2020.
