 Gaussian 16, Revision A.03,

 -----------------------------------------------------------
 # opt freq B3LYP/6-31G(d) empiricaldispersion=gd3bj scf=xqc
 -----------------------------------------------------------

 ------------------------------
 CID_61197258_JID_8079_neutraal
 ------------------------------
 Symbolic Z-matrix:
 Charge =  0 Multiplicity = 1

 SCF Done:  E(RB3LYP) =  -843.896089054     A.U. after   14 cycles
 SCF Done:  E(RB3LYP) =  -843.896768895     A.U. after   13 cycles
 SCF Done:  E(RB3LYP) =  -843.906999755     A.U. after   13 cycles
 SCF Done:  E(RB3LYP) =  -843.907582268     A.U. after   12 cycles
 SCF Done:  E(RB3LYP) =  -843.908851298     A.U. after   12 cycles
 SCF Done:  E(RB3LYP) =  -843.908339965     A.U. after   13 cycles
 SCF Done:  E(RB3LYP) =  -843.910777192     A.U. after   12 cycles
 SCF Done:  E(RB3LYP) =  -843.911667231     A.U. after   12 cycles
 SCF Done:  E(RB3LYP) =  -843.911608325     A.U. after   13 cycles
 SCF Done:  E(RB3LYP) =  -843.912467250     A.U. after   11 cycles
 SCF Done:  E(RB3LYP) =  -843.913184176     A.U. after    7 cycles
 SCF Done:  E(RB3LYP) =  -843.913184225     A.U. after    7 cycles
 SCF Done:  E(RB3LYP) =  -843.913184270     A.U. after    6 cycles
 SCF Done:  E(RB3LYP) =  -843.913184300     A.U. after    6 cycles
 Optimization completed.
    -- Stationary point found.
 Normal termination of Gaussian 16 at Fri Dec 11 19:08:19 2020.

 --------------------------------------------------------------------
 #N Geom=AllCheck Guess=TCheck SCRF=Check GenChk RB3LYP/6-31G(d) Freq
 --------------------------------------------------------------------

 Structure from the checkpoint file:  "JID_8079.chk"
 ------------------------------
 CID_61197258_JID_8079_neutraal
 ------------------------------
 Charge =  0 Multiplicity = 1

 SCF Done:  E(RB3LYP) =  -843.913184300     A.U. after    1 cycles

  Exact polarizability: 174.863  -2.688 146.125  -0.931   3.970 128.780
 Approx polarizability: 210.566  -9.638 219.700  -3.511  11.080 208.005

                      1                      2                      3
                      A                      A                      A
 Frequencies --     28.6376                31.9125                45.9897
 Red. masses --      3.8628                 3.3437                 3.2163
 Frc consts  --      0.0019                 0.0020                 0.0040
 IR Inten    --      0.6552                 0.0573                 0.1040

                      4                      5                      6
                      A                      A                      A
 Frequencies --     49.1418                59.1232                66.8494
 Red. masses --      4.0202                 4.8101                 3.1700
 Frc consts  --      0.0057                 0.0099                 0.0083
 IR Inten    --      0.7889                 0.0486                 0.0527

                      7                      8                      9
                      A                      A                      A
 Frequencies --     89.2937               100.3113               147.3220
 Red. masses --      3.7655                 6.6698                 4.4347
 Frc consts  --      0.0177                 0.0395                 0.0567
 IR Inten    --      0.8119                 2.9236                 0.5939

                     10                     11                     12
                      A                      A                      A
 Frequencies --    200.8738               207.8911               227.1127
 Red. masses --      2.7156                 2.1858                 3.8853
 Frc consts  --      0.0646                 0.0557                 0.1181
 IR Inten    --      0.0765                 0.2920                 2.4838

                     13                     14                     15
                      A                      A                      A
 Frequencies --    261.0196               287.0734               309.4469
 Red. masses --      3.6672                 2.4953                 1.8851
 Frc consts  --      0.1472                 0.1212                 0.1064
 IR Inten    --      0.2850                 0.2104                 0.1280

                     16                     17                     18
                      A                      A                      A
 Frequencies --    351.1416               383.0201               396.3302
 Red. masses --      4.2397                 5.2600                 3.3125
 Frc consts  --      0.3080                 0.4547                 0.3066
 IR Inten    --      0.9833                 3.1042                 0.4365

                     19                     20                     21
                      A                      A                      A
 Frequencies --    419.4520               428.3211               432.9256
 Red. masses --      3.6172                 1.8063                 6.6261
 Frc consts  --      0.3750                 0.1952                 0.7317
 IR Inten    --     12.3070                 1.1654                 9.4331

                     22                     23                     24
                      A                      A                      A
 Frequencies --    499.8636               544.4592               569.3168
 Red. masses --      1.3631                 1.7454                 2.1428
 Frc consts  --      0.2007                 0.3048                 0.4092
 IR Inten    --     41.3109                 7.5998                 6.2989

                     25                     26                     27
                      A                      A                      A
 Frequencies --    588.6293               616.2867               630.2978
 Red. masses --      3.0675                 1.3652                 3.0276
 Frc consts  --      0.6262                 0.3055                 0.7087
 IR Inten    --     30.7950                67.2471                 6.3667

                     28                     29                     30
                      A                      A                      A
 Frequencies --    646.0053               667.2636               738.2698
 Red. masses --      3.1697                 2.1796                 2.4298
 Frc consts  --      0.7794                 0.5718                 0.7803
 IR Inten    --     36.6433                27.7691                43.1026

                     31                     32                     33
                      A                      A                      A
 Frequencies --    762.4083               772.2407               787.7297
 Red. masses --      3.5321                 4.2634                 1.5237
 Frc consts  --      1.2096                 1.4980                 0.5571
 IR Inten    --      8.8462                38.7540                 4.2024

                     34                     35                     36
                      A                      A                      A
 Frequencies --    809.7612               823.5817               852.0118
 Red. masses --      2.4654                 2.1996                 1.8741
 Frc consts  --      0.9525                 0.8790                 0.8016
 IR Inten    --     47.7148                 6.9740                31.3645

                     37                     38                     39
                      A                      A                      A
 Frequencies --    853.4842               880.8580               891.8409
 Red. masses --      1.8109                 2.0382                 2.2435
 Frc consts  --      0.7772                 0.9318                 1.0514
 IR Inten    --     10.6330                 5.8280                 3.9699

                     40                     41                     42
                      A                      A                      A
 Frequencies --    906.3040               911.7864               929.0241
 Red. masses --      2.2809                 2.1271                 2.4671
 Frc consts  --      1.1038                 1.0419                 1.2545
 IR Inten    --      4.8521                 4.2218                 4.3765

                     43                     44                     45
                      A                      A                      A
 Frequencies --    938.9553               972.3020               984.7448
 Red. masses --      2.1590                 2.1041                 1.9516
 Frc consts  --      1.1215                 1.1720                 1.1150
 IR Inten    --      2.3685                 4.9906                 4.8957

                     46                     47                     48
                      A                      A                      A
 Frequencies --    995.4979               997.1657              1030.7508
 Red. masses --      1.8386                 1.5461                 1.5502
 Frc consts  --      1.0736                 0.9058                 0.9704
 IR Inten    --      6.9166                 2.3062                 0.1698

                     49                     50                     51
                      A                      A                      A
 Frequencies --   1042.7651              1050.9551              1071.8549
 Red. masses --      1.8015                 1.7972                 2.7221
 Frc consts  --      1.1541                 1.1695                 1.8426
 IR Inten    --      1.3941                 0.1773                 8.3914

                     52                     53                     54
                      A                      A                      A
 Frequencies --   1096.4167              1104.9255              1132.4545
 Red. masses --      2.2866                 1.6911                 3.1393
 Frc consts  --      1.6196                 1.2164                 2.3721
 IR Inten    --      7.3882                 4.3563                 5.8632

                     55                     56                     57
                      A                      A                      A
 Frequencies --   1139.6578              1151.9201              1170.2096
 Red. masses --      2.9398                 2.4335                 2.5573
 Frc consts  --      2.2496                 1.9025                 2.0633
 IR Inten    --     13.1086               139.0091               126.8009

                     58                     59                     60
                      A                      A                      A
 Frequencies --   1209.9726              1213.0420              1214.4794
 Red. masses --      1.5890                 1.4477                 1.6426
 Frc consts  --      1.3706                 1.2551                 1.4275
 IR Inten    --     16.5911                 0.8546                13.6567

                     61                     62                     63
                      A                      A                      A
 Frequencies --   1245.5226              1267.9459              1278.2202
 Red. masses --      1.4178                 1.7711                 1.3002
 Frc consts  --      1.2959                 1.6776                 1.2516
 IR Inten    --      1.7181                 7.9816                24.8999

                     64                     65                     66
                      A                      A                      A
 Frequencies --   1281.4988              1296.5751              1301.9695
 Red. masses --      1.3196                 1.3597                 1.3916
 Frc consts  --      1.2768                 1.3468                 1.3898
 IR Inten    --      4.1107                14.1901                 5.4953

                     67                     68                     69
                      A                      A                      A
 Frequencies --   1314.7530              1336.2441              1338.0381
 Red. masses --      1.2648                 1.2659                 1.3781
 Frc consts  --      1.2881                 1.3317                 1.4536
 IR Inten    --      8.2513                 0.4878                 1.6473

                     70                     71                     72
                      A                      A                      A
 Frequencies --   1350.0851              1358.4772              1363.0157
 Red. masses --      1.2550                 1.8355                 1.3183
 Frc consts  --      1.3478                 1.9958                 1.4430
 IR Inten    --      6.2658                 7.0025                16.2041

                     73                     74                     75
                      A                      A                      A
 Frequencies --   1370.3642              1371.9098              1378.4370
 Red. masses --      1.3417                 1.2616                 1.3954
 Frc consts  --      1.4845                 1.3990                 1.5622
 IR Inten    --     14.8268                 3.3972                12.6972

                     76                     77                     78
                      A                      A                      A
 Frequencies --   1391.2603              1394.8576              1420.0633
 Red. masses --      1.7657                 1.4395                 1.5642
 Frc consts  --      2.0136                 1.6501                 1.8585
 IR Inten    --      1.8880                16.4746                52.8002

                     79                     80                     81
                      A                      A                      A
 Frequencies --   1443.9821              1489.3867              1491.6965
 Red. masses --      2.6955                 1.2692                 1.5493
 Frc consts  --      3.3114                 1.6588                 2.0312
 IR Inten    --    254.4142                13.2680                 8.6542

                     82                     83                     84
                      A                      A                      A
 Frequencies --   1515.7636              1519.1390              1521.5606
 Red. masses --      1.0880                 1.0791                 1.0911
 Frc consts  --      1.4727                 1.4672                 1.4883
 IR Inten    --      2.1370                 1.8119                 4.1486

                     85                     86                     87
                      A                      A                      A
 Frequencies --   1522.7149              1526.9452              1527.7457
 Red. masses --      1.0892                 1.0814                 1.0945
 Frc consts  --      1.4880                 1.4855                 1.5051
 IR Inten    --      1.1912                 2.5449                 1.9464

                     88                     89                     90
                      A                      A                      A
 Frequencies --   1532.4785              1545.1840              1549.3704
 Red. masses --      1.1154                 1.1060                 1.1054
 Frc consts  --      1.5434                 1.5558                 1.5634
 IR Inten    --     23.1840                 1.5771                 2.7908

                     91                     92                     93
                      A                      A                      A
 Frequencies --   1788.5428              1838.0287              3011.4418
 Red. masses --      5.6305                10.1090                 1.0705
 Frc consts  --     10.6120                20.1216                 5.7201
 IR Inten    --    431.8473               293.1728                28.6357

                     94                     95                     96
                      A                      A                      A
 Frequencies --   3038.3651              3049.4789              3054.1291
 Red. masses --      1.0693                 1.0651                 1.0666
 Frc consts  --      5.8162                 5.8356                 5.8620
 IR Inten    --     24.5487                27.4584                27.8910

                     97                     98                     99
                      A                      A                      A
 Frequencies --   3057.0715              3059.4183              3064.0769
 Red. masses --      1.0681                 1.0678                 1.0640
 Frc consts  --      5.8811                 5.8886                 5.8859
 IR Inten    --      5.3970                64.0820                15.8610

                    100                    101                    102
                      A                      A                      A
 Frequencies --   3066.8255              3081.3381              3092.6664
 Red. masses --      1.0602                 1.0822                 1.0945
 Frc consts  --      5.8750                 6.0538                 6.1677
 IR Inten    --     23.9181                10.7400                26.1276

                    103                    104                    105
                      A                      A                      A
 Frequencies --   3102.2176              3102.9140              3105.2728
 Red. masses --      1.0987                 1.0833                 1.0952
 Frc consts  --      6.2298                 6.1453                 6.2221
 IR Inten    --     31.3927                12.3330                26.3668

                    106                    107                    108
                      A                      A                      A
 Frequencies --   3110.1994              3114.6026              3115.4123
 Red. masses --      1.0984                 1.0957                 1.0905
 Frc consts  --      6.2604                 6.2625                 6.2362
 IR Inten    --     15.9889                 8.7380                65.6720

                    109                    110                    111
                      A                      A                      A
 Frequencies --   3120.5652              3122.3561              3167.4486
 Red. masses --      1.0961                 1.1015                 1.1033
 Frc consts  --      6.2888                 6.3268                 6.5215
 IR Inten    --     58.6568                46.4902                 3.8596

                    112                    113                    114
                      A                      A                      A
 Frequencies --   3560.9493              3626.8259              3681.9092
 Red. masses --      1.0743                 1.0761                 1.0641
 Frc consts  --      8.0264                 8.3398                 8.4996
 IR Inten    --     15.4369                29.4678                48.1500

 - Thermochemistry -
 -------------------
 Temperature   298.150 Kelvin.  Pressure   1.00000 Atm.
 Atom     1 has atomic number  6 and mass  12.00000

 Molecular mass:   254.16304 amu.
 Principal axes and moments of inertia in atomic units:
                           1         2         3
     Eigenvalues --  2407.078956705.925317844.48594
           X            0.99998   0.00681  -0.00076
           Y           -0.00681   0.99997  -0.00229
           Z            0.00075   0.00230   1.00000
 This molecule is an asymmetric top.
 Rotational symmetry number  1.
 Warning -- assumption of classical behavior for rotation
           may cause significant error
 Rotational temperatures (Kelvin)      0.03598     0.01292     0.01104
 Rotational constants (GHZ):           0.74976     0.26913     0.23006
 Zero-point vibrational energy     927703.7 (Joules/Mol)
                                  221.72650 (Kcal/Mol)
 Warning -- explicit consideration of  26 degrees of freedom as
           vibrations may cause significant error
 Vibrational temperatures:     41.20    45.91    66.17    70.70    85.07
          (Kelvin)             96.18   128.47   144.33   211.96   289.01
                              299.11   326.76   375.55   413.03   445.23
                              505.21   551.08   570.23   603.50   616.26
                              622.88   719.19   783.36   819.12   846.91
                              886.70   906.86   929.46   960.04  1062.21
                             1096.94  1111.08  1133.37  1165.07  1184.95
                             1225.85  1227.97  1267.36  1283.16  1303.97
                             1311.86  1336.66  1350.95  1398.93  1416.83
                             1432.30  1434.70  1483.02  1500.31  1512.09
                             1542.16  1577.50  1589.74  1629.35  1639.71
                             1657.36  1683.67  1740.88  1745.30  1747.36
                             1792.03  1824.29  1839.07  1843.79  1865.48
                             1873.24  1891.64  1922.56  1925.14  1942.47
                             1954.55  1961.08  1971.65  1973.87  1983.26
                             2001.71  2006.89  2043.15  2077.57  2142.90
                             2146.22  2180.85  2185.70  2189.19  2190.85
                             2196.93  2198.09  2204.89  2223.18  2229.20
                             2573.31  2644.51  4332.79  4371.53  4387.52
                             4394.21  4398.44  4401.82  4408.52  4412.48
                             4433.36  4449.66  4463.40  4464.40  4467.79
                             4474.88  4481.22  4482.38  4489.80  4492.37
                             4557.25  5123.41  5218.19  5297.45

 Zero-point correction=                           0.353344 (Hartree/Particle)
 Thermal correction to Energy=                    0.371116
 Thermal correction to Enthalpy=                  0.372061
 Thermal correction to Gibbs Free Energy=         0.305524
 Sum of electronic and zero-point Energies=           -843.559841
 Sum of electronic and thermal Energies=              -843.542068
 Sum of electronic and thermal Enthalpies=            -843.541124
 Sum of electronic and thermal Free Energies=         -843.607661

                     E (Thermal)             CV                S
                      KCal/Mol        Cal/Mol-Kelvin    Cal/Mol-Kelvin
 Total                  232.879             67.777            140.038
 Electronic               0.000              0.000              0.000
 Translational            0.889              2.981             42.499
 Rotational               0.889              2.981             33.204
 Vibrational            231.102             61.815             64.336
 Vibration     1          0.593              1.984              5.922
 Vibration     2          0.594              1.983              5.707
 Vibration     3          0.595              1.979              4.983
 Vibration     4          0.595              1.978              4.852
 Vibration     5          0.596              1.974              4.486
 Vibration     6          0.598              1.970              4.244
 Vibration     7          0.602              1.957              3.675
 Vibration     8          0.604              1.949              3.448
 Vibration     9          0.617              1.906              2.707
 Vibration    10          0.638              1.839              2.125
 Vibration    11          0.641              1.829              2.062
 Vibration    12          0.651              1.800              1.902
 Vibration    13          0.669              1.744              1.655
 Vibration    14          0.684              1.698              1.491
 Vibration    15          0.699              1.656              1.365
 Vibration    16          0.728              1.573              1.161
 Vibration    17          0.752              1.506              1.027
 Vibration    18          0.763              1.478              0.976
 Vibration    19          0.782              1.428              0.894
 Vibration    20          0.790              1.409              0.864
 Vibration    21          0.794              1.398              0.849
 Vibration    22          0.855              1.250              0.658
 Vibration    23          0.900              1.152              0.556
 Vibration    24          0.925              1.098              0.506
 Vibration    25          0.946              1.056              0.470
 Vibration    26          0.976              0.997              0.422

                           ! Non-Optimized Parameters !
 Normal termination of Gaussian 16 at Fri Dec 11 19:30:48 2020.

 ----------------------------------------------------------------------
 # B3LYP/6-311++G(d,p) empiricaldispersion=gd3bj scf=xqc pop=npa geom=c
 heck
 ----------------------------------------------------------------------

 --------------------------------------
 CID_61197258_JID_8079_Energie_neutraal
 --------------------------------------
 Structure from the checkpoint file:  "JID_8079.chk"
 Charge =  0 Multiplicity = 1

 SCF Done:  E(RB3LYP) =  -844.165480570     A.U. after   14 cycles
 Normal termination of Gaussian 16 at Fri Dec 11 19:40:34 2020.

 ----------------------------------------------------------------------
 # B3LYP/6-311++G(d,p) empiricaldispersion=gd3bj scf=xqc pop=npa geom=c
 heck
 ----------------------------------------------------------------------

 ------------------------------------
 CID_61197258_JID_8079_Energie_kation
 ------------------------------------
 Structure from the checkpoint file:  "JID_8079.chk"
 Charge =  1 Multiplicity = 2

 SCF Done:  E(UB3LYP) =  -843.846077850     A.U. after   33 cycles
 SCF Done:  E(UB3LYP) =  -843.846077851     a.u. after    2 cycles
 Normal termination of Gaussian 16 at Fri Dec 11 20:37:51 2020.
 Gaussian 16:  ES64L-G16RevA.03 25-Dec-2016

 ----------------------------------------------------------------------
 # B3LYP/6-311++G(d,p) empiricaldispersion=gd3bj scf=xqc pop=npa geom=c
 heck
 ----------------------------------------------------------------------

 -----------------------------------
 CID_61197258_JID_8079_Energie_anion
 -----------------------------------
 Structure from the checkpoint file:  "JID_8079.chk"
 Charge = -1 Multiplicity = 2

                         Standard orientation:
 ---------------------------------------------------------------------
 Center     Atomic      Atomic             Coordinates (Angstroms)
 Number     Number       Type             X           Y           Z
 ---------------------------------------------------------------------
      1          6           0       -4.465347    0.071500    0.560812
      2          6           0       -4.343614   -1.305963   -0.123683
      3          6           0       -2.839076   -1.455108   -0.488127
      4          6           0       -2.185622   -0.081911   -0.184355
      5          6           0       -3.363029    0.905977   -0.104765
      6          6           0       -1.104534    0.303907   -1.192107
      7          7           0       -0.471610    1.603383   -0.924870
      8          6           0        0.106100    1.908264    0.310195
      9          8           0       -0.169797    2.948332    0.901540
     10          7           0        1.042677    1.043006    0.838885
     11          6           0        1.807689   -0.061066    0.280920
     12          6           0        2.248651    0.161282   -1.203324
     13          6           0        3.762625    0.428893   -1.158146
     14          6           0        4.242329   -0.432744    0.014073
     15          6           0        3.165860   -0.179042    1.073877
     16          6           0        1.074458   -1.388804    0.524547
     17          8           0        0.181999   -1.569047    1.321690
     18          8           0        1.607715   -2.407547   -0.199055
     19          1           0       -4.251581   -0.019885    1.633467
     20          1           0       -5.463879    0.510527    0.462914
     21          1           0       -4.704214   -2.120913    0.512077
     22          1           0       -4.953794   -1.320486   -1.034530
     23          1           0       -2.723348   -1.714583   -1.548667
     24          1           0       -2.346466   -2.244884    0.086939
     25          1           0       -1.715633   -0.134205    0.803543
     26          1           0       -3.678335    1.200326   -1.118024
     27          1           0       -3.111687    1.818363    0.445804
     28          1           0       -0.338057   -0.473129   -1.252213
     29          1           0       -1.538314    0.372215   -2.197385
     30          1           0       -1.097132    2.373071   -1.140472
     31          1           0        1.285226    1.323789    1.778245
     32          1           0        2.052448   -0.744797   -1.780392
     33          1           0        1.679921    0.974675   -1.653327
     34          1           0        3.953452    1.487902   -0.943258
     35          1           0        4.254787    0.190485   -2.106198
     36          1           0        5.244184   -0.174038    0.371807
     37          1           0        4.248253   -1.490696   -0.272263
     38          1           0        3.347124    0.787672    1.556830
     39          1           0        3.128369   -0.939527    1.859836
     40          1           0        1.132937   -3.211630    0.084265
 ---------------------------------------------------------------------

 SCF Done:  E(UB3LYP) =  -844.156284160     A.U. after   33 cycles
 SCF Done:  E(UB3LYP) =  -844.156284160     a.u. after    1 cycles

 The electronic state is 2-A.
 Alpha  occ. eigenvalues --  -19.07314 -19.02282 -18.99124 -14.24330 -14.23603
 Alpha  occ. eigenvalues --  -10.21245 -10.20483 -10.14947 -10.11344 -10.09264
 Alpha  occ. eigenvalues --  -10.07822 -10.07703 -10.07682 -10.07655 -10.07561
 Alpha  occ. eigenvalues --  -10.07488 -10.07422 -10.06827  -1.01649  -0.95784
 Alpha  occ. eigenvalues --   -0.92756  -0.84387  -0.82244  -0.74748  -0.74437
 Alpha  occ. eigenvalues --   -0.65373  -0.64514  -0.63278  -0.61845  -0.57363
 Alpha  occ. eigenvalues --   -0.54823  -0.52723  -0.49682  -0.48781  -0.47761
 Alpha  occ. eigenvalues --   -0.46441  -0.42977  -0.41766  -0.41003  -0.40316
 Alpha  occ. eigenvalues --   -0.39135  -0.38725  -0.37693  -0.37220  -0.35693
 Alpha  occ. eigenvalues --   -0.34481  -0.33695  -0.32712  -0.32603  -0.32141
 Alpha  occ. eigenvalues --   -0.31614  -0.29187  -0.28400  -0.27764  -0.26568
 Alpha  occ. eigenvalues --   -0.26044  -0.25616  -0.25251  -0.25067  -0.24877
 Alpha  occ. eigenvalues --   -0.24068  -0.23992  -0.23547  -0.22984  -0.22220
 Alpha  occ. eigenvalues --   -0.19029  -0.18658  -0.16590  -0.15874   0.04062
 Alpha virt. eigenvalues --    0.05867   0.06539   0.07150   0.07922   0.08164
 Alpha virt. eigenvalues --    0.08382   0.08776   0.09434   0.09513   0.09973
 Alpha virt. eigenvalues --    0.10189   0.10976   0.11286   0.11452   0.12169

  Beta  occ. eigenvalues --  -19.07246 -19.02267 -18.99121 -14.24329 -14.23600
  Beta  occ. eigenvalues --  -10.21240 -10.20481 -10.14938 -10.11329 -10.09247
  Beta  occ. eigenvalues --  -10.07818 -10.07687 -10.07666 -10.07631 -10.07552
  Beta  occ. eigenvalues --  -10.07487 -10.07414 -10.06811  -1.01569  -0.95777
  Beta  occ. eigenvalues --   -0.92685  -0.84377  -0.82232  -0.74730  -0.74415
  Beta  occ. eigenvalues --   -0.65348  -0.64478  -0.63237  -0.61819  -0.57334
  Beta  occ. eigenvalues --   -0.54727  -0.52697  -0.49623  -0.48739  -0.47725
  Beta  occ. eigenvalues --   -0.46405  -0.42926  -0.41722  -0.40987  -0.40292
  Beta  occ. eigenvalues --   -0.39101  -0.38704  -0.37658  -0.37196  -0.35664
  Beta  occ. eigenvalues --   -0.34464  -0.33668  -0.32690  -0.32581  -0.32101
  Beta  occ. eigenvalues --   -0.31587  -0.29161  -0.28370  -0.27737  -0.26547
  Beta  occ. eigenvalues --   -0.26006  -0.25577  -0.25228  -0.25043  -0.24855
  Beta  occ. eigenvalues --   -0.24044  -0.23962  -0.23529  -0.22949  -0.22197
  Beta  occ. eigenvalues --   -0.18983  -0.18647  -0.16575  -0.15865
  Beta virt. eigenvalues --    0.06069   0.06543   0.07387   0.07718   0.08247
  Beta virt. eigenvalues --    0.08379   0.08590   0.08896   0.09662   0.10031
  Beta virt. eigenvalues --    0.10220   0.10334   0.11168   0.11502   0.11641

 Mulliken charges and spin densities:
               1          2
     1  C   -0.504481   0.098664
     2  C   -0.045684  -0.421311
     3  C    0.273452  -0.867188
     4  C   -0.039671   0.859426
     5  C   -0.294145  -0.169020
     6  C   -0.073041  -0.689102
     7  N   -0.129989   0.000011
     8  C   -0.159442   0.124482
     9  O   -0.307949   0.001772
    10  N   -0.282672   0.092708
    11  C    0.425359   0.290098
    12  C   -0.357582   0.024800
    13  C   -0.086504  -0.337594
    14  C    0.434585  -0.996688
    15  C   -0.367709   0.010156
    16  C    1.028927  -1.706926
    17  O   -0.175444   0.035788
    18  O   -0.204023   0.160208
    19  H    0.127917   0.003418
    20  H    0.023190   0.136789
    21  H    0.020244   0.126410
    22  H    0.006713   0.123717
    23  H   -0.086810   0.231194
    24  H    0.102328   0.081376
    25  H    0.280017  -0.025965
    26  H    0.019802   0.118288
    27  H    0.161775   0.020661
    28  H   -0.080268   0.369804
    29  H   -0.302261   0.491862
    30  H    0.286898   0.044849
    31  H    0.312031   0.016555
    32  H   -0.058858   0.275764
    33  H    0.226888  -0.032758
    34  H    0.143025  -0.006247
    35  H   -0.294207   0.473710
    36  H   -0.368790   0.536161
    37  H    0.073195   0.101129
    38  H    0.032392   0.097995
    39  H   -0.204120   0.432800
    40  H   -0.555088   0.872204
 Sum of Mulliken charges =  -1.00000   1.00000

 Dipole moment (field-independent basis, Debye):
    X=             -3.2206    Y=              4.5983    Z=              0.8609  Tot=              5.6796
 Quadrupole moment (field-independent basis, Debye-Ang):
   XX=           -180.3634   YY=           -172.7342   ZZ=           -144.5124
   XY=              7.9261   XZ=              0.5977   YZ=             -5.5589

 Summary of Natural Population Analysis:

                                       Natural Population
                Natural  -----------------------------------------------
    Atom  No    Charge         Core      Valence    Rydberg      Total
 -----------------------------------------------------------------------
      C    1   -0.18949      0.99964     2.18315    0.00670     3.18949
      C    2   -0.19229      0.99965     2.18502    0.00762     3.19229
      C    3   -0.19136      0.99962     2.18344    0.00829     3.19136
      C    4   -0.12676      0.99959     2.11734    0.00984     3.12676
      C    5   -0.19433      0.99962     2.18638    0.00833     3.19433
      C    6   -0.08339      0.99957     2.07187    0.01195     3.08339
      N    7   -0.33835      0.99969     2.82930    0.00936     3.83835
      C    8    0.41215      0.99969     1.56527    0.02289     2.58785
      O    9   -0.34053      0.99988     3.33564    0.00501     4.34053
      N   10   -0.32727      0.99963     2.81724    0.01039     3.82727
      C   11    0.01975      0.99951     1.96474    0.01599     2.98025
      C   12   -0.19814      0.99960     2.18976    0.00878     3.19814
      C   13   -0.18976      0.99963     2.18151    0.00862     3.18976
      C   14   -0.19331      0.99963     2.18551    0.00817     3.19331
      C   15   -0.18008      0.99960     2.17103    0.00945     3.18008
      C   16    0.40628      0.99963     1.56673    0.02736     2.59372
      O   17   -0.30586      0.99986     3.29940    0.00660     4.30586
      O   18   -0.34689      0.99987     3.33929    0.00772     4.34689
      H   19    0.09416      0.00000     0.40468    0.00116     0.40584
      H   20    0.09632      0.00000     0.40274    0.00094     0.40368
      H   21    0.09802      0.00000     0.40118    0.00080     0.40198
      H   22    0.09384      0.00000     0.40504    0.00112     0.40616
      H   23    0.09653      0.00000     0.40210    0.00137     0.40347
      H   24    0.10786      0.00000     0.39098    0.00116     0.39214
      H   25    0.10970      0.00000     0.38813    0.00217     0.39030
      H   26    0.09031      0.00000     0.40858    0.00111     0.40969
      H   27    0.10535      0.00000     0.39380    0.00086     0.39465
      H   28    0.09731      0.00000     0.40015    0.00254     0.40269
      H   29    0.09698      0.00000     0.40178    0.00124     0.40302
      H   30    0.19048      0.00000     0.30751    0.00202     0.30952
      H   31    0.19678      0.00000     0.30118    0.00204     0.30322
      H   32    0.11119      0.00000     0.38676    0.00206     0.38881
      H   33    0.11465      0.00000     0.38384    0.00150     0.38535
      H   34    0.09303      0.00000     0.40581    0.00116     0.40697
      H   35    0.10334      0.00000     0.39574    0.00093     0.39666
      H   36    0.10165      0.00000     0.39714    0.00120     0.39835
      H   37    0.10470      0.00000     0.39326    0.00204     0.39530
      H   38    0.09884      0.00000     0.39986    0.00130     0.40116
      H   39    0.10849      0.00000     0.39038    0.00113     0.39151
      H   40    0.25010      0.00000     0.22532    0.02458     0.24990
 =======================================================================
   * Total *    0.00000     17.99392    50.75860    0.24748    69.00000

 Normal termination of Gaussian 16 at Fri Dec 11 21:10:57 2020.
