 Gaussian 16, Revision A.03,

 -----------------------------------------------------------
 # opt freq B3LYP/6-31G(d) empiricaldispersion=gd3bj scf=xqc
 -----------------------------------------------------------

 ------------------------------
 CID_22911418_JID_2470_neutraal
 ------------------------------
 Symbolic Z-matrix:
 Charge =  0 Multiplicity = 1

 SCF Done:  E(RB3LYP) =  -591.902312692     A.U. after   15 cycles
 SCF Done:  E(RB3LYP) =  -591.905255292     A.U. after   14 cycles
 SCF Done:  E(RB3LYP) =  -591.905028407     A.U. after   14 cycles
 SCF Done:  E(RB3LYP) =  -591.908806424     A.U. after   13 cycles
 SCF Done:  E(RB3LYP) =  -591.912738110     A.U. after   14 cycles
 SCF Done:  E(RB3LYP) =  -591.913489254     A.U. after   13 cycles
 SCF Done:  E(RB3LYP) =  -591.914011436     A.U. after   13 cycles
 SCF Done:  E(RB3LYP) =  -591.914357702     A.U. after   12 cycles
 SCF Done:  E(RB3LYP) =  -591.914497880     A.U. after   12 cycles
 SCF Done:  E(RB3LYP) =  -591.914520670     A.U. after   11 cycles
 SCF Done:  E(RB3LYP) =  -591.914525046     A.U. after    9 cycles
 SCF Done:  E(RB3LYP) =  -591.914526521     A.U. after    9 cycles
 SCF Done:  E(RB3LYP) =  -591.914526869     A.U. after    9 cycles
 SCF Done:  E(RB3LYP) =  -591.914526957     A.U. after    8 cycles
 SCF Done:  E(RB3LYP) =  -591.914526985     A.U. after    8 cycles
 SCF Done:  E(RB3LYP) =  -591.914526989     A.U. after    7 cycles
 Optimization completed.
    -- Stationary point found.
 Normal termination of Gaussian 16 at Wed Dec  9 17:29:00 2020.

 --------------------------------------------------------------------
 #N Geom=AllCheck Guess=TCheck SCRF=Check GenChk RB3LYP/6-31G(d) Freq
 --------------------------------------------------------------------

 Structure from the checkpoint file:  "JID_2470.chk"
 ------------------------------
 CID_22911418_JID_2470_neutraal
 ------------------------------
 Charge =  0 Multiplicity = 1

 SCF Done:  E(RB3LYP) =  -591.914526989     A.U. after    1 cycles

  Exact polarizability: 108.103  -0.452 118.213  -2.289   8.176  67.053
 Approx polarizability: 150.032  -2.506 190.837  -4.355  28.918 102.274

                      1                      2                      3
                      A                      A                      A
 Frequencies --     47.4481                53.8513                68.8469
 Red. masses --      4.1047                 4.8690                 3.7890
 Frc consts  --      0.0054                 0.0083                 0.0106
 IR Inten    --      0.8145                 0.6290                 0.9545

                      4                      5                      6
                      A                      A                      A
 Frequencies --     81.4709               109.6189               164.3205
 Red. masses --      3.3621                 3.2639                 5.5142
 Frc consts  --      0.0131                 0.0231                 0.0877
 IR Inten    --      2.5072                 0.3191                 4.2438

                      7                      8                      9
                      A                      A                      A
 Frequencies --    171.0891               212.8322               222.1287
 Red. masses --      4.0392                 1.6452                 2.0870
 Frc consts  --      0.0697                 0.0439                 0.0607
 IR Inten    --      2.8802                 1.4515                 1.0308

                     10                     11                     12
                      A                      A                      A
 Frequencies --    232.2401               270.3637               330.0750
 Red. masses --      1.3847                 3.7379                 2.5633
 Frc consts  --      0.0440                 0.1610                 0.1645
 IR Inten    --      0.2256                 0.4427                 3.0954

                     13                     14                     15
                      A                      A                      A
 Frequencies --    365.9676               402.5438               441.6048
 Red. masses --      3.4720                 3.0635                 4.7908
 Frc consts  --      0.2740                 0.2925                 0.5505
 IR Inten    --      8.0604                 4.8268                 2.0760

                     16                     17                     18
                      A                      A                      A
 Frequencies --    515.2756               543.5587               573.3381
 Red. masses --      7.2096                 4.6481                 4.2456
 Frc consts  --      1.1278                 0.8091                 0.8223
 IR Inten    --     11.2687                16.9451                10.3025

                     19                     20                     21
                      A                      A                      A
 Frequencies --    587.3610               621.3448               695.6780
 Red. masses --      6.1499                 1.4293                 4.1629
 Frc consts  --      1.2501                 0.3251                 1.1870
 IR Inten    --     10.2510                68.8478                44.7357

                     22                     23                     24
                      A                      A                      A
 Frequencies --    716.3878               789.8001               799.7151
 Red. masses --      4.3357                 5.3153                 1.4134
 Frc consts  --      1.3110                 1.9535                 0.5326
 IR Inten    --     30.8992                26.0783                 9.5741

                     25                     26                     27
                      A                      A                      A
 Frequencies --    829.1892               880.0993               943.9139
 Red. masses --      1.1034                 2.3309                 2.5446
 Frc consts  --      0.4470                 1.0637                 1.3358
 IR Inten    --      4.3476                 9.4576                16.3151

                     28                     29                     30
                      A                      A                      A
 Frequencies --   1007.4183              1047.2978              1098.8213
 Red. masses --      2.4650                 4.0581                 1.8846
 Frc consts  --      1.4740                 2.6225                 1.3407
 IR Inten    --     25.4087                38.9638                12.5761

                     31                     32                     33
                      A                      A                      A
 Frequencies --   1120.7708              1137.8687              1186.7161
 Red. masses --      2.0277                 1.7770                 3.0555
 Frc consts  --      1.5007                 1.3556                 2.5353
 IR Inten    --     36.6688                38.2081                45.1687

                     34                     35                     36
                      A                      A                      A
 Frequencies --   1194.7680              1222.0154              1287.5401
 Red. masses --      2.1578                 2.6096                 1.4185
 Frc consts  --      1.8148                 2.2961                 1.3855
 IR Inten    --    317.1873                35.2383                45.1715

                     37                     38                     39
                      A                      A                      A
 Frequencies --   1329.2045              1333.1843              1370.1516
 Red. masses --      1.8877                 1.1093                 1.5460
 Frc consts  --      1.9650                 1.1616                 1.7101
 IR Inten    --     66.1470                 3.6437                10.3509

                     40                     41                     42
                      A                      A                      A
 Frequencies --   1400.7296              1428.3807              1438.0387
 Red. masses --      2.0836                 1.3174                 1.3413
 Frc consts  --      2.4086                 1.5836                 1.6342
 IR Inten    --     65.9542                23.0450                23.2104

                     43                     44                     45
                      A                      A                      A
 Frequencies --   1452.5171              1512.6471              1515.2371
 Red. masses --      1.5469                 1.0883                 1.0460
 Frc consts  --      1.9229                 1.4671                 1.4150
 IR Inten    --     22.5016                11.4754                12.7279

                     46                     47                     48
                      A                      A                      A
 Frequencies --   1526.1631              1529.1336              1534.7061
 Red. masses --      1.1189                 1.0500                 1.1002
 Frc consts  --      1.5355                 1.4466                 1.5268
 IR Inten    --     11.0842                16.6140                15.7258

                     49                     50                     51
                      A                      A                      A
 Frequencies --   1537.8984              1612.9226              1802.6521
 Red. masses --      1.0992                 4.4202                 9.2498
 Frc consts  --      1.5317                 6.7751                17.7095
 IR Inten    --     21.9107               354.2926               339.5564

                     52                     53                     54
                      A                      A                      A
 Frequencies --   2338.7282              3062.4469              3066.0644
 Red. masses --     12.6748                 1.0343                 1.0365
 Frc consts  --     40.8461                 5.7154                 5.7407
 IR Inten    --     40.6943                17.8349                12.9323

                     55                     56                     57
                      A                      A                      A
 Frequencies --   3082.9486              3114.5078              3129.1642
 Red. masses --      1.0634                 1.0685                 1.1025
 Frc consts  --      5.9548                 6.1068                 6.3603
 IR Inten    --      9.4250                29.7331                12.0209

                     58                     59                     60
                      A                      A                      A
 Frequencies --   3132.1810              3139.8315              3149.6150
 Red. masses --      1.1025                 1.1018                 1.0982
 Frc consts  --      6.3729                 6.3995                 6.4184
 IR Inten    --     15.6351                18.0223                24.0161

                     61                     62                     63
                      A                      A                      A
 Frequencies --   3151.4496              3196.9363              3699.1509
 Red. masses --      1.1040                 1.1022                 1.0641
 Frc consts  --      6.4599                 6.6369                 8.5792
 IR Inten    --     22.2890                 0.8886                82.0289

 - Thermochemistry -
 -------------------
 Temperature   298.150 Kelvin.  Pressure   1.00000 Atm.
 Atom     1 has atomic number  6 and mass  12.00000

 Molecular mass:   169.07389 amu.
 Principal axes and moments of inertia in atomic units:
                           1         2         3
     Eigenvalues --  1824.310701899.436073155.49725
           X            0.97894   0.20417  -0.00153
           Y           -0.20413   0.97857  -0.02692
           Z           -0.00400   0.02667   0.99964
 This molecule is an asymmetric top.
 Rotational symmetry number  1.
 Warning -- assumption of classical behavior for rotation
           may cause significant error
 Rotational temperatures (Kelvin)      0.04748     0.04560     0.02745
 Rotational constants (GHZ):           0.98927     0.95015     0.57194
 Zero-point vibrational energy     487836.4 (Joules/Mol)
                                  116.59569 (Kcal/Mol)
 Warning -- explicit consideration of  19 degrees of freedom as
           vibrations may cause significant error
 Vibrational temperatures:     68.27    77.48    99.06   117.22   157.72
          (Kelvin)            236.42   246.16   306.22   319.59   334.14
                              388.99   474.90   526.55   579.17   635.37
                              741.37   782.06   824.91   845.08   893.98
                             1000.93  1030.72  1136.35  1150.61  1193.02
                             1266.27  1358.08  1449.45  1506.83  1580.96
                             1612.54  1637.14  1707.42  1719.00  1758.21
                             1852.48  1912.43  1918.15  1971.34  2015.34
                             2055.12  2069.02  2089.85  2176.36  2180.09
                             2195.81  2200.08  2208.10  2212.69  2320.64
                             2593.61  3364.91  4406.18  4411.38  4435.68
                             4481.08  4502.17  4506.51  4517.52  4531.59
                             4534.23  4599.68  5322.25

 Zero-point correction=                           0.185807 (Hartree/Particle)
 Thermal correction to Energy=                    0.198896
 Thermal correction to Enthalpy=                  0.199840
 Thermal correction to Gibbs Free Energy=         0.145594
 Sum of electronic and zero-point Energies=           -591.728720
 Sum of electronic and thermal Energies=              -591.715631
 Sum of electronic and thermal Enthalpies=            -591.714687
 Sum of electronic and thermal Free Energies=         -591.768933

                     E (Thermal)             CV                S
                      KCal/Mol        Cal/Mol-Kelvin    Cal/Mol-Kelvin
 Total                  124.809             46.251            114.170
 Electronic               0.000              0.000              0.000
 Translational            0.889              2.981             41.283
 Rotational               0.889              2.981             30.770
 Vibrational            123.032             40.289             42.117
 Vibration     1          0.595              1.979              4.921
 Vibration     2          0.596              1.976              4.671
 Vibration     3          0.598              1.969              4.186
 Vibration     4          0.600              1.962              3.855
 Vibration     5          0.606              1.942              3.276
 Vibration     6          0.623              1.886              2.499
 Vibration     7          0.626              1.878              2.423
 Vibration     8          0.644              1.821              2.019
 Vibration     9          0.648              1.807              1.942
 Vibration    10          0.653              1.792              1.862
 Vibration    11          0.674              1.728              1.594
 Vibration    12          0.713              1.615              1.260
 Vibration    13          0.739              1.542              1.097
 Vibration    14          0.768              1.465              0.953
 Vibration    15          0.801              1.379              0.822
 Vibration    16          0.870              1.216              0.621
 Vibration    17          0.899              1.154              0.558
 Vibration    18          0.930              1.089              0.498
 Vibration    19          0.944              1.059              0.472

 Optimization completed.
    -- Stationary point found.
 Normal termination of Gaussian 16 at Wed Dec  9 17:34:39 2020.

 ----------------------------------------------------------------------
 # B3LYP/6-311++G(d,p) empiricaldispersion=gd3bj scf=xqc pop=npa geom=c
 heck
 ----------------------------------------------------------------------

 --------------------------------------
 CID_22911418_JID_2470_Energie_neutraal
 --------------------------------------
 Structure from the checkpoint file:  "JID_2470.chk"
 Charge =  0 Multiplicity = 1

 SCF Done:  E(RB3LYP) =  -592.093319083     A.U. after   15 cycles
 Normal termination of Gaussian 16 at Wed Dec  9 17:37:12 2020.

 ----------------------------------------------------------------------
 # B3LYP/6-311++G(d,p) empiricaldispersion=gd3bj scf=xqc pop=npa geom=c
 heck
 ----------------------------------------------------------------------

 ------------------------------------
 CID_22911418_JID_2470_Energie_kation
 ------------------------------------
 Structure from the checkpoint file:  "JID_2470.chk"
 Charge =  1 Multiplicity = 2

 SCF Done:  E(UB3LYP) =  -591.757221637     A.U. after   23 cycles
 Normal termination of Gaussian 16 at Wed Dec  9 17:42:38 2020.
 Gaussian 16:  ES64L-G16RevA.03 25-Dec-2016

 ----------------------------------------------------------------------
 # B3LYP/6-311++G(d,p) empiricaldispersion=gd3bj scf=xqc pop=npa geom=c
 heck
 ----------------------------------------------------------------------

 -----------------------------------
 CID_22911418_JID_2470_Energie_anion
 -----------------------------------
 Structure from the checkpoint file:  "JID_2470.chk"
 Charge = -1 Multiplicity = 2

                         Standard orientation:
 ---------------------------------------------------------------------
 Center     Atomic      Atomic             Coordinates (Angstroms)
 Number     Number       Type             X           Y           Z
 ---------------------------------------------------------------------
      1          6           0        2.954751    0.238423    0.551604
      2          6           0        2.143742    0.351359   -0.751886
      3          6           0        0.736588   -0.158074   -0.563819
      4          6           0       -0.290399    0.692673   -0.206019
      5          6           0        0.079104    2.032348    0.132117
      6          7           0        0.412371    3.111580    0.414282
      7          6           0       -1.734309    0.394336   -0.218519
      8          8           0       -2.284916   -0.521328   -0.804925
      9          8           0       -2.439282    1.318650    0.476650
     10          8           0        0.710677   -1.474028   -0.739631
     11          6           0       -0.239037   -2.399835   -0.140842
     12          6           0       -0.268877   -2.284370    1.373708
     13          1           0        2.537363    0.889664    1.325249
     14          1           0        3.991929    0.539740    0.375980
     15          1           0        2.954669   -0.792449    0.920398
     16          1           0        2.131165    1.387395   -1.096185
     17          1           0        2.604638   -0.266520   -1.529400
     18          1           0       -3.378084    1.091487    0.343243
     19          1           0       -1.219765   -2.243268   -0.584156
     20          1           0        0.158577   -3.368891   -0.448751
     21          1           0       -0.664170   -1.321497    1.707145
     22          1           0       -0.917025   -3.070489    1.775470
     23          1           0        0.732895   -2.413751    1.796206
 ---------------------------------------------------------------------

 SCF Done:  E(UB3LYP) =  -592.104770604     A.U. after   27 cycles

 The electronic state is 2-A.
 Alpha  occ. eigenvalues --  -19.01854 -19.00661 -18.94815 -14.14208 -10.13732
 Alpha  occ. eigenvalues --  -10.09321 -10.06613 -10.05012 -10.04956 -10.03322
 Alpha  occ. eigenvalues --  -10.03215 -10.03203  -0.95825  -0.92684  -0.86279
 Alpha  occ. eigenvalues --   -0.74561  -0.67552  -0.63577  -0.61834  -0.54636
 Alpha  occ. eigenvalues --   -0.50512  -0.47790  -0.42376  -0.38475  -0.37539
 Alpha  occ. eigenvalues --   -0.35613  -0.33327  -0.32742  -0.30828  -0.30241
 Alpha  occ. eigenvalues --   -0.29869  -0.27541  -0.26580  -0.25780  -0.25151
 Alpha  occ. eigenvalues --   -0.22529  -0.22188  -0.21097  -0.21031  -0.19886
 Alpha  occ. eigenvalues --   -0.18886  -0.18233  -0.16223  -0.12959  -0.09355
 Alpha  occ. eigenvalues --    0.04855
 Alpha virt. eigenvalues --    0.08337   0.09256   0.09907   0.10561   0.11650
 Alpha virt. eigenvalues --    0.12085   0.13480   0.14105   0.14745   0.15365
 Alpha virt. eigenvalues --    0.15864   0.16215   0.17084   0.17205   0.18094

  Beta  occ. eigenvalues --  -19.01772 -19.00398 -18.94595 -14.14165 -10.13473
  Beta  occ. eigenvalues --  -10.09297 -10.05726 -10.04980 -10.04939 -10.03386
  Beta  occ. eigenvalues --  -10.03280 -10.03106  -0.95540  -0.92024  -0.85932
  Beta  occ. eigenvalues --   -0.74467  -0.66953  -0.63420  -0.61581  -0.54143
  Beta  occ. eigenvalues --   -0.50246  -0.47576  -0.41914  -0.38232  -0.37065
  Beta  occ. eigenvalues --   -0.35382  -0.32810  -0.32341  -0.30522  -0.30027
  Beta  occ. eigenvalues --   -0.28999  -0.27247  -0.26306  -0.25581  -0.24734
  Beta  occ. eigenvalues --   -0.22287  -0.22057  -0.20947  -0.20330  -0.19591
  Beta  occ. eigenvalues --   -0.18429  -0.17453  -0.15623  -0.12758  -0.07872
  Beta virt. eigenvalues --    0.08241   0.09169   0.09894   0.10484   0.11626
  Beta virt. eigenvalues --    0.12046   0.13234   0.13439   0.14075   0.14672
  Beta virt. eigenvalues --    0.15586   0.16072   0.16445   0.17295   0.17722

 Mulliken charges and spin densities:
               1          2
     1  C   -0.101038  -0.448943
     2  C   -0.443203   0.302131
     3  C   -0.134217   0.397533
     4  C    1.486176  -0.086749
     5  C   -1.458969  -0.050876
     6  N   -0.310215   0.026392
     7  C    0.068899   0.190496
     8  O   -0.388780   0.071003
     9  O   -0.156924   0.014730
    10  O   -0.117118   0.056179
    11  C   -0.238212  -0.025929
    12  C   -0.434161   0.008431
    13  H    0.115673   0.046955
    14  H   -0.152797   0.279068
    15  H    0.099549   0.020060
    16  H    0.168455  -0.000171
    17  H   -0.006717   0.172566
    18  H    0.244509   0.002768
    19  H    0.216158  -0.001570
    20  H    0.096880   0.028989
    21  H    0.206919  -0.003210
    22  H    0.101006   0.000824
    23  H    0.138125  -0.000679
 Sum of Mulliken charges =  -1.00000   1.00000

 Dipole moment (field-independent basis, Debye):
    X=             -1.6135    Y=             -5.1421    Z=              1.1074  Tot=              5.5020
 Quadrupole moment (field-independent basis, Debye-Ang):
   XX=            -96.0289   YY=           -102.9743   ZZ=            -83.4406
   XY=             -3.9807   XZ=             -3.0897   YZ=             -6.8425

 Summary of Natural Population Analysis:

                                       Natural Population
                Natural  -----------------------------------------------
    Atom  No    Charge         Core      Valence    Rydberg      Total
 -----------------------------------------------------------------------
      C    1   -0.27279      0.99966     2.26787    0.00526     3.27279
      C    2   -0.22434      0.99961     2.21508    0.00965     3.22434
      C    3    0.39881      0.99943     1.58592    0.01584     2.60119
      C    4   -0.23900      0.99931     2.22790    0.01179     3.23900
      C    5    0.16887      0.99965     1.81250    0.01898     2.83113
      N    6   -0.22819      0.99978     2.71697    0.01144     3.72819
      C    7    0.42740      0.99967     1.54883    0.02410     2.57260
      O    8   -0.32823      0.99987     3.32083    0.00754     4.32823
      O    9   -0.34477      0.99988     3.33883    0.00607     4.34477
      O   10   -0.25247      0.99984     3.24270    0.00993     4.25247
      C   11   -0.01187      0.99957     2.00332    0.00898     3.01187
      C   12   -0.29822      0.99966     2.29504    0.00352     3.29822
      H   13    0.10035      0.00000     0.39876    0.00089     0.39965
      H   14    0.09270      0.00000     0.40591    0.00139     0.40730
      H   15    0.09189      0.00000     0.40707    0.00104     0.40811
      H   16    0.10518      0.00000     0.39374    0.00108     0.39482
      H   17    0.10343      0.00000     0.39501    0.00156     0.39657
      H   18    0.22985      0.00000     0.26739    0.00275     0.27015
      H   19    0.10812      0.00000     0.39062    0.00126     0.39188
      H   20    0.07664      0.00000     0.42185    0.00151     0.42336
      H   21    0.10818      0.00000     0.39091    0.00091     0.39182
      H   22    0.09349      0.00000     0.40563    0.00088     0.40651
      H   23    0.09497      0.00000     0.40404    0.00099     0.40503
 =======================================================================
   * Total *    0.00000     11.99594    32.85671    0.14735    45.00000

 Normal termination of Gaussian 16 at Wed Dec  9 17:50:49 2020.
