 Gaussian 16, Revision A.03,

 -----------------------------------------------------------
 # opt freq B3LYP/6-31G(d) empiricaldispersion=gd3bj scf=xqc
 -----------------------------------------------------------

 -------------------------------
 CID_130511316_JID_5325_neutraal
 -------------------------------
 Symbolic Z-matrix:
 Charge =  0 Multiplicity = 1

 SCF Done:  E(RB3LYP) =  -1081.13491319     A.U. after   15 cycles
 SCF Done:  E(RB3LYP) =  -1081.13952781     A.U. after   12 cycles
 SCF Done:  E(RB3LYP) =  -1081.13988080     A.U. after   11 cycles
 SCF Done:  E(RB3LYP) =  -1081.13996978     A.U. after   12 cycles
 SCF Done:  E(RB3LYP) =  -1081.13999789     A.U. after   11 cycles
 SCF Done:  E(RB3LYP) =  -1081.14005681     A.U. after   10 cycles
 SCF Done:  E(RB3LYP) =  -1081.14007411     A.U. after   10 cycles
 SCF Done:  E(RB3LYP) =  -1081.14007718     A.U. after    8 cycles
 SCF Done:  E(RB3LYP) =  -1081.14007787     A.U. after    8 cycles
 SCF Done:  E(RB3LYP) =  -1081.14007811     A.U. after    8 cycles
 SCF Done:  E(RB3LYP) =  -1081.14007826     A.U. after    7 cycles
 SCF Done:  E(RB3LYP) =  -1081.14007846     A.U. after    8 cycles
 SCF Done:  E(RB3LYP) =  -1081.14007872     A.U. after    9 cycles
 SCF Done:  E(RB3LYP) =  -1081.14007897     A.U. after    9 cycles
 SCF Done:  E(RB3LYP) =  -1081.14007912     A.U. after    8 cycles
 SCF Done:  E(RB3LYP) =  -1081.14007919     A.U. after    7 cycles
 Optimization completed.
    -- Stationary point found.
 Normal termination of Gaussian 16 at Thu Dec 10 15:30:50 2020.

 --------------------------------------------------------------------
 #N Geom=AllCheck Guess=TCheck SCRF=Check GenChk RB3LYP/6-31G(d) Freq
 --------------------------------------------------------------------

 Structure from the checkpoint file:  "JID_5325.chk"
 -------------------------------
 CID_130511316_JID_5325_neutraal
 -------------------------------
 Charge =  0 Multiplicity = 1

 SCF Done:  E(RB3LYP) =  -1081.14007919     A.U. after    1 cycles

  Exact polarizability: 213.639  -7.923 136.942  -0.003   0.001  56.812
 Approx polarizability: 301.513 -29.285 256.239  -0.010   0.003  89.059

                      1                      2                      3
                      A                      A                      A
 Frequencies --     11.0287                60.5290                81.8560
 Red. masses --      4.9211                 8.4331                 6.5266
 Frc consts  --      0.0004                 0.0182                 0.0258
 IR Inten    --      2.0017                 1.7446                 2.6195

                      4                      5                      6
                      A                      A                      A
 Frequencies --     87.6533               100.8333               150.1319
 Red. masses --      6.2165                 3.8237                 5.3298
 Frc consts  --      0.0281                 0.0229                 0.0708
 IR Inten    --      0.2371                 1.0557                 0.1240

                      7                      8                      9
                      A                      A                      A
 Frequencies --    160.6595               219.5614               235.1796
 Red. masses --      4.8201                 1.2620                 5.2452
 Frc consts  --      0.0733                 0.0358                 0.1709
 IR Inten    --      0.3843                 0.0531                 2.7359

                     10                     11                     12
                      A                      A                      A
 Frequencies --    277.3402               317.9742               371.4039
 Red. masses --      4.0814                 6.9331                 7.0965
 Frc consts  --      0.1850                 0.4130                 0.5768
 IR Inten    --      0.0754                 2.1969                 3.7294

                     13                     14                     15
                      A                      A                      A
 Frequencies --    377.1645               423.9441               454.0769
 Red. masses --     10.7913                 7.6987                 4.2575
 Frc consts  --      0.9045                 0.8152                 0.5172
 IR Inten    --      4.6025                 4.4687                12.5806

                     16                     17                     18
                      A                      A                      A
 Frequencies --    487.4839               530.6190               586.1104
 Red. masses --      5.5470                 5.3086                 1.3469
 Frc consts  --      0.7766                 0.8806                 0.2726
 IR Inten    --      2.1439                 3.3877                88.1705

                     19                     20                     21
                      A                      A                      A
 Frequencies --    616.4807               628.9252               653.4660
 Red. masses --      2.8184                 2.0464                 5.1488
 Frc consts  --      0.6311                 0.4769                 1.2954
 IR Inten    --      0.0180                 4.0557                71.6208

                     22                     23                     24
                      A                      A                      A
 Frequencies --    658.8029               693.2292               714.6338
 Red. masses --      3.8722                 5.0632                 2.0405
 Frc consts  --      0.9902                 1.4336                 0.6140
 IR Inten    --     13.7502                31.1363                 7.8194

                     25                     26                     27
                      A                      A                      A
 Frequencies --    730.1602               747.6161               768.6708
 Red. masses --      1.5939                 5.1021                 3.9776
 Frc consts  --      0.5007                 1.6802                 1.3847
 IR Inten    --      5.3123                 9.2436                81.1269

                     28                     29                     30
                      A                      A                      A
 Frequencies --    843.9923               847.5723               897.6822
 Red. masses --      1.3460                 6.9575                 1.4424
 Frc consts  --      0.5649                 2.9448                 0.6848
 IR Inten    --     19.9661                18.1733                12.5947

                     31                     32                     33
                      A                      A                      A
 Frequencies --    902.1383               993.0749              1031.7953
 Red. masses --      4.9950                 4.4650                 4.3313
 Frc consts  --      2.3951                 2.5944                 2.7168
 IR Inten    --     28.9306                50.7020                 2.8166

                     34                     35                     36
                      A                      A                      A
 Frequencies --   1060.2566              1079.4144              1107.5593
 Red. masses --      3.3683                 2.7168                 3.4371
 Frc consts  --      2.2309                 1.8650                 2.4842
 IR Inten    --     48.5379               130.4002                 8.0124

                     37                     38                     39
                      A                      A                      A
 Frequencies --   1190.1362              1190.3323              1207.5624
 Red. masses --      1.7462                 1.2692                 1.4598
 Frc consts  --      1.4573                 1.0595                 1.2542
 IR Inten    --    290.0614                 1.0175                30.3185

                     40                     41                     42
                      A                      A                      A
 Frequencies --   1224.9989              1241.8239              1257.0186
 Red. masses --      1.4593                 1.6322                 1.8748
 Frc consts  --      1.2902                 1.4830                 1.7454
 IR Inten    --     27.2068                69.7444                 0.1948

                     43                     44                     45
                      A                      A                      A
 Frequencies --   1312.5110              1367.9565              1402.1757
 Red. masses --      4.0020                 3.3074                 3.3194
 Frc consts  --      4.0619                 3.6465                 3.8452
 IR Inten    --     56.1300               119.9380                67.8384

                     46                     47                     48
                      A                      A                      A
 Frequencies --   1436.1404              1449.6379              1487.3336
 Red. masses --      5.4767                 5.2395                 4.2748
 Frc consts  --      6.6553                 6.4872                 5.5716
 IR Inten    --    106.5810                28.2039               103.3197

                     49                     50                     51
                      A                      A                      A
 Frequencies --   1498.9955              1516.4424              1535.7687
 Red. masses --      1.6516                 1.0474                 1.0541
 Frc consts  --      2.1866                 1.4191                 1.4648
 IR Inten    --     25.2457                 6.8554                15.9664

                     52                     53                     54
                      A                      A                      A
 Frequencies --   1537.5039              1622.5328              1656.0376
 Red. masses --      6.0321                 6.6023                 5.6975
 Frc consts  --      8.4014                10.2408                 9.2061
 IR Inten    --    265.5814               176.6050                72.5336

                     55                     56                     57
                      A                      A                      A
 Frequencies --   1814.1935              3020.3118              3076.6547
 Red. masses --      9.8934                 1.0352                 1.1066
 Frc consts  --     19.1850                 5.5637                 6.1717
 IR Inten    --    365.9365                44.5370                46.3074

                     58                     59                     60
                      A                      A                      A
 Frequencies --   3166.4904              3276.3940              3277.2400
 Red. masses --      1.0993                 1.0968                 1.0936
 Frc consts  --      6.4943                 6.9369                 6.9204
 IR Inten    --     26.1884                 1.9145                 2.3691

                     61                     62                     63
                      A                      A                      A
 Frequencies --   3282.9279              3309.6827              3700.5424
 Red. masses --      1.0939                 1.0967                 1.0642
 Frc consts  --      6.9464                 7.0780                 8.5861
 IR Inten    --      5.9089                 2.6873                90.5481

 - Thermochemistry -
 -------------------
 Temperature   298.150 Kelvin.  Pressure   1.00000 Atm.
 Atom     1 has atomic number  6 and mass  12.00000

 Molecular mass:   224.02556 amu.
 Principal axes and moments of inertia in atomic units:
                           1         2         3
     Eigenvalues --  1120.910607761.687068871.05793
           X            0.99988   0.01548   0.00000
           Y           -0.01548   0.99988   0.00001
           Z           -0.00000  -0.00001   1.00000
 This molecule is an asymmetric top.
 Rotational symmetry number  1.
 Warning -- assumption of classical behavior for rotation
           may cause significant error
 Rotational temperatures (Kelvin)      0.07727     0.01116     0.00976
 Rotational constants (GHZ):           1.61007     0.23252     0.20344
 Zero-point vibrational energy     436447.8 (Joules/Mol)
                                  104.31352 (Kcal/Mol)
 Warning -- explicit consideration of  19 degrees of freedom as
           vibrations may cause significant error
 Vibrational temperatures:     15.87    87.09   117.77   126.11   145.08
          (Kelvin)            216.01   231.15   315.90   338.37   399.03
                              457.49   534.37   542.66   609.96   653.32
                              701.38   763.44   843.28   886.98   904.88
                              940.19   947.87   997.40  1028.20  1050.54
                             1075.65  1105.95  1214.32  1219.47  1291.56
                             1297.98  1428.81  1484.52  1525.47  1553.04
                             1593.53  1712.34  1712.62  1737.41  1762.50
                             1786.71  1808.57  1888.41  1968.18  2017.42
                             2066.29  2085.71  2139.94  2156.72  2181.82
                             2209.63  2212.13  2334.46  2382.67  2610.22
                             4345.56  4426.62  4555.87  4714.00  4715.22
                             4723.40  4761.90  5324.26

 Zero-point correction=                           0.166234 (Hartree/Particle)
 Thermal correction to Energy=                    0.179655
 Thermal correction to Enthalpy=                  0.180599
 Thermal correction to Gibbs Free Energy=         0.123666
 Sum of electronic and zero-point Energies=          -1080.973845
 Sum of electronic and thermal Energies=             -1080.960424
 Sum of electronic and thermal Enthalpies=           -1080.959480
 Sum of electronic and thermal Free Energies=        -1081.016413

                     E (Thermal)             CV                S
                      KCal/Mol        Cal/Mol-Kelvin    Cal/Mol-Kelvin
 Total                  112.735             49.491            119.825
 Electronic               0.000              0.000              0.000
 Translational            0.889              2.981             42.122
 Rotational               0.889              2.981             32.712
 Vibrational            110.958             43.529             44.990
 Vibration     1          0.593              1.987              7.817
 Vibration     2          0.597              1.973              4.440
 Vibration     3          0.600              1.962              3.846
 Vibration     4          0.601              1.958              3.712
 Vibration     5          0.604              1.948              3.438
 Vibration     6          0.618              1.903              2.671
 Vibration     7          0.622              1.891              2.542
 Vibration     8          0.647              1.811              1.963
 Vibration     9          0.655              1.787              1.839
 Vibration    10          0.678              1.715              1.550
 Vibration    11          0.704              1.639              1.321
 Vibration    12          0.743              1.531              1.074
 Vibration    13          0.748              1.519              1.051
 Vibration    14          0.786              1.418              0.879
 Vibration    15          0.813              1.352              0.784
 Vibration    16          0.843              1.278              0.690
 Vibration    17          0.886              1.182              0.586
 Vibration    18          0.943              1.061              0.474
 Vibration    19          0.976              0.997              0.422

 Optimization completed.
    -- Stationary point found.
 Normal termination of Gaussian 16 at Thu Dec 10 15:36:33 2020.

 ----------------------------------------------------------------------
 # B3LYP/6-311++G(d,p) empiricaldispersion=gd3bj scf=xqc pop=npa geom=c
 heck
 ----------------------------------------------------------------------

 ---------------------------------------
 CID_130511316_JID_5325_Energie_neutraal
 ---------------------------------------
 Structure from the checkpoint file:  "JID_5325.chk"
 Charge =  0 Multiplicity = 1

 SCF Done:  E(RB3LYP) =  -1081.36310915     A.U. after   16 cycles
 Normal termination of Gaussian 16 at Thu Dec 10 15:38:59 2020.

 ----------------------------------------------------------------------
 # B3LYP/6-311++G(d,p) empiricaldispersion=gd3bj scf=xqc pop=npa geom=c
 heck
 ----------------------------------------------------------------------

 -------------------------------------
 CID_130511316_JID_5325_Energie_kation
 -------------------------------------
 Structure from the checkpoint file:  "JID_5325.chk"
 Charge =  1 Multiplicity = 2

 SCF Done:  E(UB3LYP) =  -1081.07547666     A.U. after   24 cycles
 Normal termination of Gaussian 16 at Thu Dec 10 15:44:10 2020.
 Gaussian 16:  ES64L-G16RevA.03 25-Dec-2016

 ----------------------------------------------------------------------
 # B3LYP/6-311++G(d,p) empiricaldispersion=gd3bj scf=xqc pop=npa geom=c
 heck
 ----------------------------------------------------------------------

 ------------------------------------
 CID_130511316_JID_5325_Energie_anion
 ------------------------------------
 Structure from the checkpoint file:  "JID_5325.chk"
 Charge = -1 Multiplicity = 2

                         Standard orientation:
 ---------------------------------------------------------------------
 Center     Atomic      Atomic             Coordinates (Angstroms)
 Number     Number       Type             X           Y           Z
 ---------------------------------------------------------------------
      1          6           0       -5.153775   -1.051846   -0.000485
      2          8           0       -4.719805    0.299962    0.000024
      3          6           0       -3.377165    0.470654    0.000039
      4          6           0       -2.352743   -0.457524   -0.000248
      5          7           0       -1.187255    0.272502   -0.000140
      6          7           0       -1.416192    1.608838    0.000329
      7          6           0       -2.737284    1.736780    0.000397
      8          6           0        0.131119   -0.205483    0.000053
      9          6           0        0.488491   -1.535058    0.000365
     10         16           0        2.203176   -1.746022    0.000408
     11          6           0        2.441631   -0.020662    0.000087
     12          6           0        1.254953    0.669174   -0.000119
     13          6           0        3.811423    0.498517   -0.000238
     14          8           0        4.812944   -0.190787   -0.000726
     15          8           0        3.847110    1.854056    0.000069
     16          1           0       -6.244319   -1.027635   -0.000062
     17          1           0       -4.797128   -1.580099    0.894465
     18          1           0       -4.797684   -1.579247   -0.896152
     19          1           0       -2.355542   -1.534709   -0.000978
     20          1           0       -3.198980    2.714041    0.000692
     21          1           0       -0.160646   -2.398625    0.000748
     22          1           0        1.173482    1.746660   -0.000332
     23          1           0        4.792228    2.093416   -0.000276
 ---------------------------------------------------------------------

 SCF Done:  E(UB3LYP) =  -1081.37718928     A.U. after   30 cycles

 The electronic state is 2-A.
 Alpha  occ. eigenvalues --  -88.71110 -19.06589 -19.01687 -18.94080 -14.27974
 Alpha  occ. eigenvalues --  -14.21517 -10.14757 -10.12781 -10.11956 -10.09290
 Alpha  occ. eigenvalues --  -10.07791 -10.06927 -10.03379 -10.03272 -10.01727
 Alpha  occ. eigenvalues --   -7.79760  -5.76069  -5.75704  -5.75371  -0.98362
 Alpha  occ. eigenvalues --   -0.95217  -0.93656  -0.85769  -0.74951  -0.70572
 Alpha  occ. eigenvalues --   -0.68037  -0.63175  -0.59262  -0.57619  -0.51272
 Alpha  occ. eigenvalues --   -0.49373  -0.48046  -0.45292  -0.41503  -0.40398
 Alpha  occ. eigenvalues --   -0.39057  -0.38308  -0.37119  -0.34364  -0.33970
 Alpha  occ. eigenvalues --   -0.33011  -0.31475  -0.30989  -0.30006  -0.26025
 Alpha  occ. eigenvalues --   -0.25864  -0.25562  -0.25365  -0.23907  -0.22610
 Alpha  occ. eigenvalues --   -0.19898  -0.17939  -0.17773  -0.16033  -0.13075
 Alpha  occ. eigenvalues --   -0.12671  -0.10401  -0.08047   0.04732
 Alpha virt. eigenvalues --    0.06008   0.08680   0.09429   0.09554   0.09935
 Alpha virt. eigenvalues --    0.10478   0.11306   0.11627   0.13774   0.14162
 Alpha virt. eigenvalues --    0.14749   0.15500   0.15681   0.16264   0.17019

  Beta  occ. eigenvalues --  -88.71022 -19.06580 -19.01618 -18.93802 -14.27970
  Beta  occ. eigenvalues --  -14.21442 -10.14757 -10.12509 -10.11929 -10.09285
  Beta  occ. eigenvalues --  -10.07809 -10.07010 -10.03195 -10.02785 -10.01527
  Beta  occ. eigenvalues --   -7.79681  -5.76031  -5.75667  -5.75078  -0.98341
  Beta  occ. eigenvalues --   -0.94922  -0.93611  -0.85342  -0.74730  -0.70325
  Beta  occ. eigenvalues --   -0.67972  -0.63129  -0.58531  -0.57335  -0.50899
  Beta  occ. eigenvalues --   -0.49223  -0.47719  -0.45187  -0.41348  -0.40064
  Beta  occ. eigenvalues --   -0.39030  -0.38020  -0.37075  -0.34268  -0.33843
  Beta  occ. eigenvalues --   -0.32661  -0.31340  -0.30917  -0.28715  -0.25861
  Beta  occ. eigenvalues --   -0.25811  -0.25353  -0.25152  -0.23582  -0.21637
  Beta  occ. eigenvalues --   -0.19538  -0.17805  -0.16754  -0.15509  -0.12767
  Beta  occ. eigenvalues --   -0.12386  -0.08537  -0.06580
  Beta virt. eigenvalues --    0.05972   0.08649   0.09410   0.09668   0.09928
  Beta virt. eigenvalues --    0.10567   0.11280   0.11405   0.11592   0.13745
  Beta virt. eigenvalues --    0.14125   0.14784   0.15508   0.15798   0.16255

 Mulliken charges and spin densities:
               1          2
     1  C   -0.346768  -0.000863
     2  O   -0.176995   0.001112
     3  C   -0.496979   0.012430
     4  C    0.285709   0.019228
     5  N    0.157460   0.013381
     6  N   -0.024855   0.023111
     7  C   -0.074404  -0.012171
     8  C   -1.002140  -0.105170
     9  C    0.959421   0.394287
    10  S   -0.512447   0.160775
    11  C    0.024287   0.055046
    12  C   -0.792287   0.135010
    13  C    0.289342   0.230299
    14  O   -0.411808   0.098452
    15  O   -0.243536   0.015243
    16  H    0.159590  -0.000046
    17  H    0.135524   0.001162
    18  H    0.135537   0.001163
    19  H    0.165541  -0.002890
    20  H    0.130032   0.000781
    21  H    0.175221  -0.028310
    22  H    0.202964  -0.011638
    23  H    0.261592  -0.000392
 Sum of Mulliken charges =  -1.00000   1.00000

 Dipole moment (field-independent basis, Debye):
    X=             -9.2543    Y=             -0.6317    Z=             -0.0006  Tot=              9.2759
 Quadrupole moment (field-independent basis, Debye-Ang):
   XX=           -146.3695   YY=           -103.4624   ZZ=           -103.0512
   XY=             18.9759   XZ=              0.0070   YZ=             -0.0016

 Summary of Natural Population Analysis:

                                       Natural Population
                Natural  -----------------------------------------------
    Atom  No    Charge         Core      Valence    Rydberg      Total
 -----------------------------------------------------------------------
      C    1   -0.10025      0.99962     2.09225    0.00838     3.10025
      O    2   -0.27247      0.99985     3.26323    0.00939     4.27247
      C    3    0.10511      0.99938     1.88358    0.01194     2.89489
      C    4   -0.06098      0.99953     2.05195    0.00950     3.06098
      N    5   -0.08842      0.99962     2.57636    0.01244     3.58842
      N    6   -0.12880      0.99973     2.61745    0.01162     3.62880
      C    7   -0.04688      0.99962     2.03259    0.01467     3.04688
      C    8    0.01895      0.99944     1.97030    0.01131     2.98105
      C    9   -0.11402      0.99953     2.10411    0.01038     3.11402
      S   10    0.24193      4.99945     2.73369    0.02494     7.75807
      C   11   -0.12560      0.99945     2.11390    0.01225     3.12560
      C   12   -0.07172      0.99947     2.06285    0.00939     3.07172
      C   13    0.41410      0.99960     1.56167    0.02463     2.58590
      O   14   -0.30932      0.99987     3.30160    0.00785     4.30932
      O   15   -0.35034      0.99988     3.34455    0.00592     4.35034
      H   16    0.08776      0.00000     0.41145    0.00080     0.41224
      H   17    0.08167      0.00000     0.41668    0.00165     0.41833
      H   18    0.08167      0.00000     0.41668    0.00165     0.41833
      H   19    0.10620      0.00000     0.39284    0.00095     0.39380
      H   20    0.09518      0.00000     0.40389    0.00093     0.40482
      H   21    0.09306      0.00000     0.40600    0.00094     0.40694
      H   22    0.11410      0.00000     0.38478    0.00111     0.38590
      H   23    0.22906      0.00000     0.26768    0.00325     0.27094
 =======================================================================
   * Total *   -0.00000     18.99404    38.81008    0.19588    58.00000

 Normal termination of Gaussian 16 at Thu Dec 10 15:50:09 2020.
