 Gaussian 16, Revision A.03,

 -----------------------------------------------------------
 # opt freq B3LYP/6-31G(d) empiricaldispersion=gd3bj scf=xqc
 -----------------------------------------------------------

 -------------------------------
 CID_150336027_JID_5587_neutraal
 -------------------------------
 Symbolic Z-matrix:
 Charge =  0 Multiplicity = 1

 SCF Done:  E(RB3LYP) =  -856.685334039     A.U. after   16 cycles
 SCF Done:  E(RB3LYP) =  -856.699780644     A.U. after   14 cycles
 SCF Done:  E(RB3LYP) =  -856.701253624     A.U. after   14 cycles
 SCF Done:  E(RB3LYP) =  -856.705245140     A.U. after   15 cycles
 SCF Done:  E(RB3LYP) =  -856.705919935     A.U. after   14 cycles
 SCF Done:  E(RB3LYP) =  -856.707747278     A.U. after   13 cycles
 SCF Done:  E(RB3LYP) =  -856.708956202     A.U. after   13 cycles
 SCF Done:  E(RB3LYP) =  -856.709333120     A.U. after   13 cycles
 SCF Done:  E(RB3LYP) =  -856.709485306     A.U. after   12 cycles
 SCF Done:  E(RB3LYP) =  -856.709508247     A.U. after   12 cycles
 SCF Done:  E(RB3LYP) =  -856.709553056     A.U. after   11 cycles
 SCF Done:  E(RB3LYP) =  -856.709558165     A.U. after   10 cycles
 SCF Done:  E(RB3LYP) =  -856.709560004     A.U. after    9 cycles
 SCF Done:  E(RB3LYP) =  -856.709560512     A.U. after    9 cycles
 SCF Done:  E(RB3LYP) =  -856.709560870     A.U. after    8 cycles
 SCF Done:  E(RB3LYP) =  -856.709561061     A.U. after    8 cycles
 Optimization completed.
    -- Stationary point found.
 Normal termination of Gaussian 16 at Thu Dec 10 16:32:35 2020.

 --------------------------------------------------------------------
 #N Geom=AllCheck Guess=TCheck SCRF=Check GenChk RB3LYP/6-31G(d) Freq
 --------------------------------------------------------------------

 Structure from the checkpoint file:  "JID_5587.chk"
 -------------------------------
 CID_150336027_JID_5587_neutraal
 -------------------------------
 Charge =  0 Multiplicity = 1

 SCF Done:  E(RB3LYP) =  -856.709561061     A.U. after    1 cycles

  Exact polarizability: 140.341  -8.919  86.321  -7.698   3.172  75.556
 Approx polarizability: 234.205 -13.435 134.326 -18.003   7.040 111.704

                      1                      2                      3
                      A                      A                      A
 Frequencies --     39.1836                48.8022                70.3238
 Red. masses --      8.7750                 7.2117                 7.7320
 Frc consts  --      0.0079                 0.0101                 0.0225
 IR Inten    --      0.1593                 1.8505                 1.0558

                      4                      5                      6
                      A                      A                      A
 Frequencies --     80.6353               104.9915               111.0697
 Red. masses --     11.2100                 8.5594                 6.9744
 Frc consts  --      0.0429                 0.0556                 0.0507
 IR Inten    --      0.2370                 0.5767                 0.9855

                      7                      8                      9
                      A                      A                      A
 Frequencies --    146.6372               155.9044               179.7104
 Red. masses --      6.6484                 6.2014                 6.1787
 Frc consts  --      0.0842                 0.0888                 0.1176
 IR Inten    --      5.6083                 3.9778                 1.9387

                     10                     11                     12
                      A                      A                      A
 Frequencies --    206.1682               234.3698               244.9765
 Red. masses --      5.9718                 1.9095                 1.2219
 Frc consts  --      0.1496                 0.0618                 0.0432
 IR Inten    --      0.4206                27.3301                67.7347

                     13                     14                     15
                      A                      A                      A
 Frequencies --    313.7286               321.6258               347.7952
 Red. masses --      2.4421                 2.9885                 3.6212
 Frc consts  --      0.1416                 0.1821                 0.2581
 IR Inten    --     68.5851                23.7515                28.4742

                     16                     17                     18
                      A                      A                      A
 Frequencies --    392.9795               421.2812               445.2388
 Red. masses --      2.6971                 2.3894                 3.5483
 Frc consts  --      0.2454                 0.2499                 0.4144
 IR Inten    --     23.8126                23.6040                33.1252

                     19                     20                     21
                      A                      A                      A
 Frequencies --    462.0028               510.3309               528.4701
 Red. masses --      4.2716                 1.6810                 2.9346
 Frc consts  --      0.5372                 0.2579                 0.4829
 IR Inten    --      9.7368                55.7645                40.6017

                     22                     23                     24
                      A                      A                      A
 Frequencies --    541.4807               574.8998               588.7911
 Red. masses --      7.0835                13.2621                 3.9209
 Frc consts  --      1.2237                 2.5825                 0.8009
 IR Inten    --      7.7371                 5.4924                42.8168

                     25                     26                     27
                      A                      A                      A
 Frequencies --    605.6340               669.2637               694.9245
 Red. masses --      5.6183                 5.6855                 2.9683
 Frc consts  --      1.2142                 1.5004                 0.8446
 IR Inten    --     34.3684                19.9584               196.5255

                     28                     29                     30
                      A                      A                      A
 Frequencies --    732.8930               735.7510               763.9136
 Red. masses --      2.7765                 7.8324                 9.6396
 Frc consts  --      0.8787                 2.4981                 3.3144
 IR Inten    --     40.7206                57.8288                35.9121

                     31                     32                     33
                      A                      A                      A
 Frequencies --    822.6528               918.3079               974.9237
 Red. masses --      8.0452                 2.6790                 6.3796
 Frc consts  --      3.2079                 1.3311                 3.5726
 IR Inten    --     11.6077                67.3257               237.3206

                     34                     35                     36
                      A                      A                      A
 Frequencies --    988.5012              1100.8374              1143.1667
 Red. masses --      6.6016                 3.8077                 4.6919
 Frc consts  --      3.8006                 2.7187                 3.6126
 IR Inten    --     32.8548                36.6429                41.9813

                     37                     38                     39
                      A                      A                      A
 Frequencies --   1196.1931              1214.5169              1308.0943
 Red. masses --      1.7950                 1.7934                 8.2624
 Frc consts  --      1.5132                 1.5586                 8.3298
 IR Inten    --     57.2845               273.9300               163.1951

                     40                     41                     42
                      A                      A                      A
 Frequencies --   1323.2261              1335.1969              1385.7758
 Red. masses --      4.0470                 3.1164                 1.9935
 Frc consts  --      4.1750                 3.2733                 2.2555
 IR Inten    --    176.5269               280.2899               117.4549

                     43                     44                     45
                      A                      A                      A
 Frequencies --   1394.0753              1450.4574              1458.8852
 Red. masses --      1.8781                 2.0633                 2.9853
 Frc consts  --      2.1505                 2.5575                 3.7435
 IR Inten    --    191.2636                32.2796               182.5264

                     46                     47                     48
                      A                      A                      A
 Frequencies --   1652.2901              1703.6882              1752.8213
 Red. masses --      1.1959                 1.1030                 6.6309
 Frc consts  --      1.9237                 1.8862                12.0032
 IR Inten    --     91.0130                50.2999               141.3878

                     49                     50                     51
                      A                      A                      A
 Frequencies --   1808.3901              1843.6509              2309.1133
 Red. masses --     12.2781                 8.8887                13.9755
 Frc consts  --     23.6572                17.8011                43.9045
 IR Inten    --    211.9078               398.5912               580.8283

                     52                     53                     54
                      A                      A                      A
 Frequencies --   3452.0052              3534.4781              3561.8225
 Red. masses --      1.0501                 1.0476                 1.0928
 Frc consts  --      7.3726                 7.7106                 8.1682
 IR Inten    --      1.6048                20.4065                 6.5229

                     55                     56                     57
                      A                      A                      A
 Frequencies --   3649.5439              3734.6207              3770.8423
 Red. masses --      1.0987                 1.0647                 1.0679
 Frc consts  --      8.6217                 8.7490                 8.9468
 IR Inten    --     27.7385                96.9125                78.4031

 - Thermochemistry -
 -------------------
 Temperature   298.150 Kelvin.  Pressure   1.00000 Atm.
 Atom     1 has atomic number  6 and mass  12.00000

 Molecular mass:   218.05120 amu.
 Principal axes and moments of inertia in atomic units:
                           1         2         3
     Eigenvalues --  1827.799224209.891844317.14320
           X            0.99998   0.00478   0.00459
           Y           -0.00495   0.99928   0.03771
           Z           -0.00440  -0.03773   0.99928
 This molecule is an asymmetric top.
 Rotational symmetry number  1.
 Warning -- assumption of classical behavior for rotation
           may cause significant error
 Rotational temperatures (Kelvin)      0.04739     0.02057     0.02006
 Rotational constants (GHZ):           0.98738     0.42869     0.41804
 Zero-point vibrational energy     371212.3 (Joules/Mol)
                                   88.72187 (Kcal/Mol)
 Warning -- explicit consideration of  25 degrees of freedom as
           vibrations may cause significant error
 Vibrational temperatures:     56.38    70.22   101.18   116.02   151.06
          (Kelvin)            159.80   210.98   224.31   258.56   296.63
                              337.21   352.47   451.39   462.75   500.40
                              565.41   606.13   640.60   664.72   734.25
                              760.35   779.07   827.15   847.14   871.37
                              962.92   999.84  1054.47  1058.58  1099.10
                             1183.61  1321.24  1402.70  1422.23  1583.86
                             1644.76  1721.06  1747.42  1882.06  1903.83
                             1921.05  1993.82  2005.76  2086.88  2099.01
                             2377.28  2451.23  2521.92  2601.87  2652.60
                             3322.30  4966.67  5085.33  5124.67  5250.88
                             5373.29  5425.40

 Zero-point correction=                           0.141387 (Hartree/Particle)
 Thermal correction to Energy=                    0.156626
 Thermal correction to Enthalpy=                  0.157570
 Thermal correction to Gibbs Free Energy=         0.098267
 Sum of electronic and zero-point Energies=           -856.568174
 Sum of electronic and thermal Energies=              -856.552935
 Sum of electronic and thermal Enthalpies=            -856.551991
 Sum of electronic and thermal Free Energies=         -856.611294

                     E (Thermal)             CV                S
                      KCal/Mol        Cal/Mol-Kelvin    Cal/Mol-Kelvin
 Total                   98.284             53.754            124.812
 Electronic               0.000              0.000              0.000
 Translational            0.889              2.981             42.042
 Rotational               0.889              2.981             31.874
 Vibrational             96.507             47.793             50.896
 Vibration     1          0.594              1.981              5.300
 Vibration     2          0.595              1.978              4.865
 Vibration     3          0.598              1.968              4.144
 Vibration     4          0.600              1.962              3.875
 Vibration     5          0.605              1.945              3.359
 Vibration     6          0.607              1.940              3.250
 Vibration     7          0.617              1.906              2.715
 Vibration     8          0.620              1.896              2.599
 Vibration     9          0.629              1.867              2.331
 Vibration    10          0.641              1.831              2.077
 Vibration    11          0.654              1.788              1.845
 Vibration    12          0.660              1.771              1.766
 Vibration    13          0.702              1.647              1.343
 Vibration    14          0.707              1.632              1.302
 Vibration    15          0.725              1.580              1.176
 Vibration    16          0.760              1.485              0.989
 Vibration    17          0.784              1.424              0.888
 Vibration    18          0.805              1.371              0.810
 Vibration    19          0.820              1.334              0.760
 Vibration    20          0.865              1.227              0.633
 Vibration    21          0.883              1.187              0.591
 Vibration    22          0.897              1.158              0.562
 Vibration    23          0.931              1.086              0.495
 Vibration    24          0.946              1.056              0.469
 Vibration    25          0.964              1.020              0.440

 Optimization completed.
    -- Stationary point found.
 Normal termination of Gaussian 16 at Thu Dec 10 16:39:39 2020.

 ----------------------------------------------------------------------
 # B3LYP/6-311++G(d,p) empiricaldispersion=gd3bj scf=xqc pop=npa geom=c
 heck
 ----------------------------------------------------------------------

 ---------------------------------------
 CID_150336027_JID_5587_Energie_neutraal
 ---------------------------------------
 Structure from the checkpoint file:  "JID_5587.chk"
 Charge =  0 Multiplicity = 1

 SCF Done:  E(RB3LYP) =  -856.992290203     A.U. after   16 cycles
 Normal termination of Gaussian 16 at Thu Dec 10 16:42:18 2020.

 ----------------------------------------------------------------------
 # B3LYP/6-311++G(d,p) empiricaldispersion=gd3bj scf=xqc pop=npa geom=c
 heck
 ----------------------------------------------------------------------

 -------------------------------------
 CID_150336027_JID_5587_Energie_kation
 -------------------------------------
 Structure from the checkpoint file:  "JID_5587.chk"
 Charge =  1 Multiplicity = 2

 SCF Done:  E(UB3LYP) =  -856.672730752     A.U. after   27 cycles
 Normal termination of Gaussian 16 at Thu Dec 10 16:48:08 2020.
 Gaussian 16:  ES64L-G16RevA.03 25-Dec-2016

 ----------------------------------------------------------------------
 # B3LYP/6-311++G(d,p) empiricaldispersion=gd3bj scf=xqc pop=npa geom=c
 heck
 ----------------------------------------------------------------------

 ------------------------------------
 CID_150336027_JID_5587_Energie_anion
 ------------------------------------
 Structure from the checkpoint file:  "JID_5587.chk"
 Charge = -1 Multiplicity = 2

                         Standard orientation:
 ---------------------------------------------------------------------
 Center     Atomic      Atomic             Coordinates (Angstroms)
 Number     Number       Type             X           Y           Z
 ---------------------------------------------------------------------
      1          6           0       -1.469118   -1.094255    0.402960
      2          7           0       -2.749675   -1.110379    0.472446
      3          8           0       -3.308097    0.165011    0.254731
      4          7           0       -0.724541   -2.182395    0.822081
      5          7           0       -0.676811    0.012106   -0.006074
      6          6           0       -0.866741    0.766529   -1.156993
      7          8           0       -0.319823    1.832131   -1.348580
      8          8           0       -1.657975    0.134063   -2.040710
      9          7           0        0.241644    0.516711    0.893370
     10          6           0        1.590768    0.395388    0.621749
     11          8           0        2.446695    1.054423    1.172150
     12          7           0        1.834372   -0.652455   -0.324914
     13          7           0        3.040730   -0.784556   -0.608108
     14          7           0        4.103033   -0.990790   -0.941252
     15          7           0       -0.202074    1.596095    1.675709
     16          1           0       -4.256272   -0.033048    0.272949
     17          1           0        0.046122   -2.415750    0.204671
     18          1           0       -1.299099   -2.976002    1.080458
     19          1           0       -1.753919    0.748172   -2.789164
     20          1           0        0.232812    1.498617    2.590473
     21          1           0        0.147765    2.456654    1.250795
 ---------------------------------------------------------------------

 SCF Done:  E(UB3LYP) =  -856.994573107     A.U. after   31 cycles

 The electronic state is 2-A.
 Alpha  occ. eigenvalues --  -19.06917 -19.05800 -19.00761 -18.99339 -14.32051
 Alpha  occ. eigenvalues --  -14.29850 -14.28798 -14.24718 -14.23961 -14.23882
 Alpha  occ. eigenvalues --  -14.23380 -14.22540 -10.23257 -10.19458 -10.17600
 Alpha  occ. eigenvalues --   -1.02700  -1.00900  -0.98206  -0.97279  -0.93287
 Alpha  occ. eigenvalues --   -0.91723  -0.85571  -0.84340  -0.80149  -0.73233
 Alpha  occ. eigenvalues --   -0.69443  -0.58910  -0.56066  -0.51443  -0.46899
 Alpha  occ. eigenvalues --   -0.46580  -0.43532  -0.41646  -0.40531  -0.39036
 Alpha  occ. eigenvalues --   -0.38447  -0.37890  -0.37590  -0.36653  -0.35020
 Alpha  occ. eigenvalues --   -0.34142  -0.32051  -0.31935  -0.31167  -0.29880
 Alpha  occ. eigenvalues --   -0.24349  -0.23061  -0.22704  -0.20556  -0.19596
 Alpha  occ. eigenvalues --   -0.19297  -0.18734  -0.16760  -0.15679  -0.14687
 Alpha  occ. eigenvalues --   -0.12622   0.04537
 Alpha virt. eigenvalues --    0.06494   0.07530   0.07957   0.08790   0.09345
 Alpha virt. eigenvalues --    0.10139   0.11797   0.12759   0.14191   0.14644
 Alpha virt. eigenvalues --    0.15109   0.16001   0.16460   0.17268   0.17840

  Beta  occ. eigenvalues --  -19.06873 -19.05778 -19.00753 -18.99334 -14.31537
  Beta  occ. eigenvalues --  -14.29853 -14.28779 -14.24695 -14.23868 -14.23438
  Beta  occ. eigenvalues --  -14.23427 -14.22504 -10.23253 -10.19355 -10.17595
  Beta  occ. eigenvalues --   -1.02643  -1.00175  -0.98132  -0.97123  -0.93218
  Beta  occ. eigenvalues --   -0.91691  -0.85519  -0.83988  -0.80105  -0.73169
  Beta  occ. eigenvalues --   -0.69345  -0.58786  -0.55881  -0.51238  -0.46831
  Beta  occ. eigenvalues --   -0.46412  -0.43416  -0.41618  -0.40485  -0.38978
  Beta  occ. eigenvalues --   -0.38319  -0.37517  -0.36812  -0.35965  -0.34846
  Beta  occ. eigenvalues --   -0.33706  -0.31892  -0.31109  -0.30713  -0.29717
  Beta  occ. eigenvalues --   -0.24303  -0.22890  -0.21999  -0.20527  -0.19538
  Beta  occ. eigenvalues --   -0.19273  -0.18621  -0.16734  -0.15374  -0.14523
  Beta  occ. eigenvalues --   -0.12550
  Beta virt. eigenvalues --    0.07131   0.07982   0.08817   0.08848   0.09528
  Beta virt. eigenvalues --    0.10385   0.11384   0.12463   0.12666   0.14235
  Beta virt. eigenvalues --    0.14683   0.15023   0.16253   0.16513   0.17216

 Mulliken charges and spin densities:
               1          2
     1  C    0.140759  -0.182350
     2  N   -0.233781   0.041266
     3  O   -0.150096  -0.042596
     4  N   -0.397757  -0.067807
     5  N    0.798285  -0.098813
     6  C    0.427724  -0.263876
     7  O   -0.328003  -0.006382
     8  O   -0.192025   0.033104
     9  N   -0.684402  -0.007128
    10  C    0.345136  -0.164253
    11  O   -0.304881   0.005035
    12  N   -0.537770   0.001959
    13  N    0.481829   0.113716
    14  N   -0.439207   0.362722
    15  N   -0.256194  -0.074275
    16  H    0.078533   0.206976
    17  H    0.058892   0.207483
    18  H    0.025917   0.270197
    19  H   -0.319617   0.631021
    20  H    0.242864   0.018786
    21  H    0.243793   0.015215
 Sum of Mulliken charges =  -1.00000   1.00000

 Dipole moment (field-independent basis, Debye):
    X=             -2.9185    Y=              0.3529    Z=              3.1334  Tot=              4.2965
 Quadrupole moment (field-independent basis, Debye-Ang):
   XX=           -140.5095   YY=           -104.8702   ZZ=           -106.8909
   XY=              1.5013   XZ=             -0.1601   YZ=              1.2739

 Summary of Natural Population Analysis:

                                       Natural Population
                Natural  -----------------------------------------------
    Atom  No    Charge         Core      Valence    Rydberg      Total
 -----------------------------------------------------------------------
      C    1    0.28186      0.99963     1.69945    0.01906     2.71814
      N    2   -0.12296      0.99958     2.60887    0.01451     3.62296
      O    3   -0.28231      0.99990     3.27504    0.00737     4.28231
      N    4   -0.39686      0.99971     2.88823    0.00892     3.89686
      N    5   -0.17632      0.99958     2.66072    0.01602     3.67632
      C    6    0.47521      0.99972     1.49957    0.02550     2.52479
      O    7   -0.32334      0.99987     3.31789    0.00558     4.32334
      O    8   -0.33502      0.99987     3.32887    0.00628     4.33502
      N    9   -0.08924      0.99962     2.57471    0.01491     3.58924
      C   10    0.40331      0.99967     1.57037    0.02665     2.59669
      O   11   -0.32327      0.99987     3.31794    0.00546     4.32327
      N   12   -0.24987      0.99967     2.73709    0.01310     3.74987
      N   13    0.17428      0.99971     2.30976    0.01625     3.32572
      N   14    0.04666      0.99981     2.44166    0.01188     3.45334
      N   15   -0.30744      0.99976     2.79773    0.00995     3.80744
      H   16    0.23258      0.00000     0.26340    0.00402     0.26742
      H   17    0.20021      0.00000     0.29705    0.00274     0.29979
      H   18    0.18984      0.00000     0.30787    0.00229     0.31016
      H   19    0.24676      0.00000     0.24188    0.01136     0.25324
      H   20    0.17738      0.00000     0.32108    0.00154     0.32262
      H   21    0.17854      0.00000     0.31969    0.00177     0.32146
 =======================================================================
   * Total *    0.00000     14.99597    40.77887    0.22516    56.00000

 Normal termination of Gaussian 16 at Thu Dec 10 16:55:04 2020.
