 Gaussian 16, Revision A.03,

 -----------------------------------------------------------
 # opt freq B3LYP/6-31G(d) empiricaldispersion=gd3bj scf=xqc
 -----------------------------------------------------------

 -------------------------------
 CID_113542466_JID_9427_neutraal
 -------------------------------
 Symbolic Z-matrix:
 Charge =  0 Multiplicity = 1

 SCF Done:  E(RB3LYP) =  -822.577632880     A.U. after   15 cycles
 SCF Done:  E(RB3LYP) =  -822.581164927     A.U. after   13 cycles
 SCF Done:  E(RB3LYP) =  -822.579814917     A.U. after   15 cycles
 SCF Done:  E(RB3LYP) =  -822.582341766     A.U. after   12 cycles
 SCF Done:  E(RB3LYP) =  -822.583105947     A.U. after   12 cycles
 SCF Done:  E(RB3LYP) =  -822.583498472     A.U. after   12 cycles
 SCF Done:  E(RB3LYP) =  -822.584021364     A.U. after   13 cycles
 SCF Done:  E(RB3LYP) =  -822.584604840     A.U. after   13 cycles
 SCF Done:  E(RB3LYP) =  -822.585001596     A.U. after   13 cycles
 SCF Done:  E(RB3LYP) =  -822.585186532     A.U. after   12 cycles
 SCF Done:  E(RB3LYP) =  -822.586829310     A.U. after   10 cycles
 SCF Done:  E(RB3LYP) =  -822.586826720     A.U. after   10 cycles
 SCF Done:  E(RB3LYP) =  -822.586829254     A.U. after   10 cycles
 SCF Done:  E(RB3LYP) =  -822.586829212     A.U. after    8 cycles
 SCF Done:  E(RB3LYP) =  -822.586829317     A.U. after    7 cycles
 Optimization completed.
    -- Stationary point found.
 Normal termination of Gaussian 16 at Sun Dec 13 16:49:18 2020.

 --------------------------------------------------------------------
 #N Geom=AllCheck Guess=TCheck SCRF=Check GenChk RB3LYP/6-31G(d) Freq
 --------------------------------------------------------------------

 Structure from the checkpoint file:  "JID_9427.chk"
 -------------------------------
 CID_113542466_JID_9427_neutraal
 -------------------------------
 Charge =  0 Multiplicity = 1

 SCF Done:  E(RB3LYP) =  -822.586829317     A.U. after    1 cycles

  Exact polarizability: 148.950  17.484 184.228  -0.126  -7.827 170.105
 Approx polarizability: 202.051  30.603 296.949  -7.490 -14.802 298.294

                      1                      2                      3
                      A                      A                      A
 Frequencies --     19.1745                23.9163                31.0113
 Red. masses --      3.4131                 4.0452                 4.4537
 Frc consts  --      0.0007                 0.0014                 0.0025
 IR Inten    --      0.2005                 0.2187                 0.4761

                      4                      5                      6
                      A                      A                      A
 Frequencies --     59.1358                70.9895                89.9784
 Red. masses --      3.5121                 4.1431                 3.8864
 Frc consts  --      0.0072                 0.0123                 0.0185
 IR Inten    --      1.6828                 2.3545                 0.2155

                      7                      8                      9
                      A                      A                      A
 Frequencies --    109.6939               128.2730               172.3835
 Red. masses --      2.2262                 1.8816                 2.7478
 Frc consts  --      0.0158                 0.0182                 0.0481
 IR Inten    --      2.7141                 2.6522                 0.5333

                     10                     11                     12
                      A                      A                      A
 Frequencies --    190.7685               215.6362               221.4893
 Red. masses --      3.9246                 2.5447                 1.0997
 Frc consts  --      0.0842                 0.0697                 0.0318
 IR Inten    --      0.0478                 1.6710                 0.2721

                     13                     14                     15
                      A                      A                      A
 Frequencies --    250.1574               260.3162               278.7826
 Red. masses --      3.1564                 1.2983                 3.1111
 Frc consts  --      0.1164                 0.0518                 0.1425
 IR Inten    --      1.6021                 1.2155                15.0898

                     16                     17                     18
                      A                      A                      A
 Frequencies --    319.1871               326.1457               344.3619
 Red. masses --      1.8543                 2.0469                 2.4143
 Frc consts  --      0.1113                 0.1283                 0.1687
 IR Inten    --      3.7953                 6.5281                10.2187

                     19                     20                     21
                      A                      A                      A
 Frequencies --    359.4003               389.3651               420.1683
 Red. masses --      4.8847                 1.7656                 3.5575
 Frc consts  --      0.3717                 0.1577                 0.3700
 IR Inten    --      2.2017                 5.5664                 4.8802

                     22                     23                     24
                      A                      A                      A
 Frequencies --    433.0669               463.3410               505.3124
 Red. masses --      3.4699                 4.0236                 2.9165
 Frc consts  --      0.3834                 0.5089                 0.4388
 IR Inten    --      0.4677                 2.5845                 1.3074

                     25                     26                     27
                      A                      A                      A
 Frequencies --    510.4826               523.6585               542.3384
 Red. masses --      3.5071                 5.5317                 3.4376
 Frc consts  --      0.5385                 0.8937                 0.5957
 IR Inten    --      3.8166                 3.5055                19.6317

                     28                     29                     30
                      A                      A                      A
 Frequencies --    581.2162               639.9134               645.0011
 Red. masses --      4.1804                 2.5982                 3.8628
 Frc consts  --      0.8320                 0.6269                 0.9468
 IR Inten    --      5.2708                88.8273                 1.5465

                     31                     32                     33
                      A                      A                      A
 Frequencies --    658.6685               666.5618               692.5890
 Red. masses --      4.7014                 2.4299                 2.9463
 Frc consts  --      1.2017                 0.6361                 0.8327
 IR Inten    --     29.7611                49.0260                92.7110

                     34                     35                     36
                      A                      A                      A
 Frequencies --    710.8514               729.2905               750.9107
 Red. masses --      3.0410                 2.1129                 1.2132
 Frc consts  --      0.9054                 0.6621                 0.4030
 IR Inten    --     32.2223                20.4495                38.3323

                     37                     38                     39
                      A                      A                      A
 Frequencies --    780.3109               816.9467               822.8844
 Red. masses --      2.0226                 3.5783                 1.7541
 Frc consts  --      0.7256                 1.4071                 0.6998
 IR Inten    --     35.3545                 6.6155                 3.1260

                     40                     41                     42
                      A                      A                      A
 Frequencies --    831.6645               872.7258               894.2639
 Red. masses --      2.3330                 1.4952                 3.4299
 Frc consts  --      0.9508                 0.6710                 1.6161
 IR Inten    --      5.7567                 1.2509                 8.5784

                     43                     44                     45
                      A                      A                      A
 Frequencies --    896.1757               945.0606               947.3328
 Red. masses --      2.5418                 1.1601                 1.3501
 Frc consts  --      1.2028                 0.6105                 0.7139
 IR Inten    --      2.8752                 1.6056                 0.4097

                     46                     47                     48
                      A                      A                      A
 Frequencies --    951.3255               964.3594              1022.2367
 Red. masses --      2.0227                 1.5287                 3.0388
 Frc consts  --      1.0786                 0.8376                 1.8709
 IR Inten    --      2.0238                 0.0298                 5.4722

                     49                     50                     51
                      A                      A                      A
 Frequencies --   1036.1636              1039.5701              1070.9357
 Red. masses --      3.1012                 2.4425                 1.4826
 Frc consts  --      1.9617                 1.5552                 1.0018
 IR Inten    --      4.8784                34.6615                 3.6448

                     52                     53                     54
                      A                      A                      A
 Frequencies --   1077.6079              1087.1680              1118.6240
 Red. masses --      1.3957                 1.9180                 1.6860
 Frc consts  --      0.9549                 1.3357                 1.2430
 IR Inten    --     24.8274                 2.1344                 8.8244

                     55                     56                     57
                      A                      A                      A
 Frequencies --   1141.2864              1158.7836              1166.4553
 Red. masses --      1.6964                 2.0664                 1.4868
 Frc consts  --      1.3019                 1.6348                 1.1919
 IR Inten    --      9.4926                 6.5282                16.3557

                     58                     59                     60
                      A                      A                      A
 Frequencies --   1191.2664              1199.3446              1222.5442
 Red. masses --      1.3158                 1.5903                 1.9518
 Frc consts  --      1.1002                 1.3478                 1.7188
 IR Inten    --      6.1015                 1.4069                13.7222

                     61                     62                     63
                      A                      A                      A
 Frequencies --   1228.8613              1242.8570              1293.1891
 Red. masses --      2.5034                 1.6983                 2.1272
 Frc consts  --      2.2273                 1.5456                 2.0960
 IR Inten    --      2.4669                11.1329                52.1567

                     64                     65                     66
                      A                      A                      A
 Frequencies --   1298.5634              1310.3236              1338.9147
 Red. masses --      2.2495                 2.4302                 2.9296
 Frc consts  --      2.2349                 2.4584                 3.0943
 IR Inten    --     31.1513                16.7458                86.3675

                     67                     68                     69
                      A                      A                      A
 Frequencies --   1363.2367              1372.8204              1389.1047
 Red. masses --      1.3890                 5.2181                 2.4855
 Frc consts  --      1.5209                 5.7942                 2.8257
 IR Inten    --      6.3417                28.9705                 0.3951

                     70                     71                     72
                      A                      A                      A
 Frequencies --   1418.8865              1425.9904              1443.8875
 Red. masses --      3.4088                 1.3240                 1.2792
 Frc consts  --      4.0434                 1.5863                 1.5713
 IR Inten    --     20.4839                 7.5297                 4.2256

                     73                     74                     75
                      A                      A                      A
 Frequencies --   1446.7597              1467.6325              1491.0823
 Red. masses --      1.2350                 2.3605                 1.1882
 Frc consts  --      1.5230                 2.9956                 1.5565
 IR Inten    --      6.5127                24.8500                21.7538

                     76                     77                     78
                      A                      A                      A
 Frequencies --   1504.0164              1509.5422              1513.7298
 Red. masses --      1.4432                 1.0478                 1.6524
 Frc consts  --      1.9235                 1.4068                 2.2308
 IR Inten    --      5.1252                 1.5383                20.2243

                     79                     80                     81
                      A                      A                      A
 Frequencies --   1516.0547              1518.9033              1520.1870
 Red. masses --      1.5947                 1.8273                 1.5925
 Frc consts  --      2.1595                 2.4839                 2.1683
 IR Inten    --     28.3272                12.5579                 4.9505

                     82                     83                     84
                      A                      A                      A
 Frequencies --   1525.0584              1539.2680              1542.4852
 Red. masses --      1.0647                 1.3498                 1.1334
 Frc consts  --      1.4589                 1.8843                 1.5888
 IR Inten    --     14.2807                 3.2826                 5.3631

                     85                     86                     87
                      A                      A                      A
 Frequencies --   1566.4115              1646.4156              1653.2386
 Red. masses --      5.1838                 5.1276                 5.0849
 Frc consts  --      7.4939                 8.1892                 8.1885
 IR Inten    --     31.6631                15.6039                 4.8327

                     88                     89                     90
                      A                      A                      A
 Frequencies --   1698.0397              1787.9250              3032.0296
 Red. masses --      1.1881                11.6760                 1.0473
 Frc consts  --      2.0183                21.9909                 5.6727
 IR Inten    --     91.4963               186.7893                27.3804

                     91                     92                     93
                      A                      A                      A
 Frequencies --   3060.3888              3061.8124              3065.0046
 Red. masses --      1.0619                 1.0360                 1.0498
 Frc consts  --      5.8598                 5.7224                 5.8103
 IR Inten    --     14.1388                17.1728                12.6420

                     94                     95                     96
                      A                      A                      A
 Frequencies --   3069.4120              3082.0658              3107.1241
 Red. masses --      1.0703                 1.0968                 1.1005
 Frc consts  --      5.9410                 6.1383                 6.2598
 IR Inten    --     26.6933                22.6881                 9.6543

                     97                     98                     99
                      A                      A                      A
 Frequencies --   3130.7416              3134.2945              3151.1218
 Red. masses --      1.1030                 1.1032                 1.1025
 Frc consts  --      6.3700                 6.3854                 6.4499
 IR Inten    --     13.5824                36.8800                 6.9411

                    100                    101                    102
                      A                      A                      A
 Frequencies --   3156.7904              3170.2843              3189.7274
 Red. masses --      1.1012                 1.0877                 1.0930
 Frc consts  --      6.4658                 6.4410                 6.5521
 IR Inten    --     23.1007                15.0619                 2.4251

                    103                    104                    105
                      A                      A                      A
 Frequencies --   3194.7318              3214.4168              3263.3562
 Red. masses --      1.0900                 1.0940                 1.0906
 Frc consts  --      6.5545                 6.6603                 6.8431
 IR Inten    --     19.7645                16.3720                 1.8568

                    106                    107                    108
                      A                      A                      A
 Frequencies --   3281.2274              3546.8127              3643.0370
 Red. masses --      1.1047                 1.0482                 1.0974
 Frc consts  --      7.0076                 7.7689                 8.5811
 IR Inten    --      3.0553                 8.7674                 7.7986

 - Thermochemistry -
 -------------------
 Temperature   298.150 Kelvin.  Pressure   1.00000 Atm.
 Atom     1 has atomic number  6 and mass  12.00000

 Molecular mass:   257.15281 amu.
 Principal axes and moments of inertia in atomic units:
                           1         2         3
     Eigenvalues --  3718.300935462.829886489.54922
           X            0.99998  -0.00505   0.00493
           Y            0.00531   0.99853  -0.05385
           Z           -0.00466   0.05388   0.99854
 This molecule is an asymmetric top.
 Rotational symmetry number  1.
 Warning -- assumption of classical behavior for rotation
           may cause significant error
 Rotational temperatures (Kelvin)      0.02329     0.01586     0.01335
 Rotational constants (GHZ):           0.48537     0.33037     0.27810
 Zero-point vibrational energy     841670.6 (Joules/Mol)
                                  201.16410 (Kcal/Mol)
 Warning -- explicit consideration of  28 degrees of freedom as
           vibrations may cause significant error
 Vibrational temperatures:     27.59    34.41    44.62    85.08   102.14
          (Kelvin)            129.46   157.83   184.56   248.02   274.47
                              310.25   318.67   359.92   374.54   401.11
                              459.24   469.25   495.46   517.10   560.21
                              604.53   623.09   666.64   727.03   734.47
                              753.43   780.30   836.24   920.69   928.01
                              947.68   959.03   996.48  1022.76  1049.29
                             1080.39  1122.69  1175.40  1183.95  1196.58
                             1255.66  1286.65  1289.40  1359.73  1363.00
                             1368.75  1387.50  1470.77  1490.81  1495.71
                             1540.84  1550.44  1564.19  1609.45  1642.06
                             1667.23  1678.27  1713.97  1725.59  1758.97
                             1768.06  1788.19  1860.61  1868.34  1885.26
                             1926.40  1961.39  1975.18  1998.61  2041.46
                             2051.68  2077.43  2081.56  2111.60  2145.33
                             2163.94  2171.89  2177.92  2181.26  2185.36
                             2187.21  2194.22  2214.66  2219.29  2253.72
                             2368.82  2378.64  2443.10  2572.43  4362.41
                             4403.22  4405.27  4409.86  4416.20  4434.41
                             4470.46  4504.44  4509.55  4533.76  4541.92
                             4561.33  4589.31  4596.51  4624.83  4695.24
                             4720.95  5103.07  5241.52

 Zero-point correction=                           0.320575 (Hartree/Particle)
 Thermal correction to Energy=                    0.339237
 Thermal correction to Enthalpy=                  0.340182
 Thermal correction to Gibbs Free Energy=         0.272043
 Sum of electronic and zero-point Energies=           -822.266254
 Sum of electronic and thermal Energies=              -822.247592
 Sum of electronic and thermal Enthalpies=            -822.246648
 Sum of electronic and thermal Free Energies=         -822.314786

                     E (Thermal)             CV                S
                      KCal/Mol        Cal/Mol-Kelvin    Cal/Mol-Kelvin
 Total                  212.875             71.020            143.409
 Electronic               0.000              0.000              0.000
 Translational            0.889              2.981             42.533
 Rotational               0.889              2.981             33.244
 Vibrational            211.097             65.059             67.632
 Vibration     1          0.593              1.986              6.718
 Vibration     2          0.593              1.985              6.279
 Vibration     3          0.594              1.983              5.764
 Vibration     4          0.597              1.974              4.486
 Vibration     5          0.598              1.968              4.126
 Vibration     6          0.602              1.956              3.661
 Vibration     7          0.606              1.941              3.274
 Vibration     8          0.611              1.925              2.972
 Vibration     9          0.626              1.876              2.409
 Vibration    10          0.634              1.853              2.220
 Vibration    11          0.645              1.817              1.995
 Vibration    12          0.648              1.808              1.947
 Vibration    13          0.663              1.762              1.729
 Vibration    14          0.668              1.745              1.660
 Vibration    15          0.679              1.713              1.541
 Vibration    16          0.705              1.637              1.314
 Vibration    17          0.710              1.623              1.279
 Vibration    18          0.723              1.587              1.192
 Vibration    19          0.734              1.556              1.125
 Vibration    20          0.757              1.493              1.003
 Vibration    21          0.783              1.426              0.891
 Vibration    22          0.794              1.398              0.849
 Vibration    23          0.821              1.331              0.756
 Vibration    24          0.861              1.238              0.645
 Vibration    25          0.866              1.227              0.632
 Vibration    26          0.879              1.198              0.602
 Vibration    27          0.897              1.156              0.560
 Vibration    28          0.938              1.072              0.483

 Optimization completed on the basis of negligible forces.
    -- Stationary point found.
 Normal termination of Gaussian 16 at Sun Dec 13 17:11:14 2020.

 ----------------------------------------------------------------------
 # B3LYP/6-311++G(d,p) empiricaldispersion=gd3bj scf=xqc pop=npa geom=c
 heck
 ----------------------------------------------------------------------

 ---------------------------------------
 CID_113542466_JID_9427_Energie_neutraal
 ---------------------------------------
 Structure from the checkpoint file:  "JID_9427.chk"
 Charge =  0 Multiplicity = 1

 SCF Done:  E(RB3LYP) =  -822.813681161     A.U. after   16 cycles
 Normal termination of Gaussian 16 at Sun Dec 13 17:21:04 2020.

 ----------------------------------------------------------------------
 # B3LYP/6-311++G(d,p) empiricaldispersion=gd3bj scf=xqc pop=npa geom=c
 heck
 ----------------------------------------------------------------------

 -------------------------------------
 CID_113542466_JID_9427_Energie_kation
 -------------------------------------
 Structure from the checkpoint file:  "JID_9427.chk"
 Charge =  1 Multiplicity = 2

 SCF Done:  E(UB3LYP) =  -822.536429109     A.U. after   28 cycles
 Normal termination of Gaussian 16 at Sun Dec 13 17:44:10 2020.
 Gaussian 16:  ES64L-G16RevA.03 25-Dec-2016

 ----------------------------------------------------------------------
 # B3LYP/6-311++G(d,p) empiricaldispersion=gd3bj scf=xqc pop=npa geom=c
 heck
 ----------------------------------------------------------------------

 ------------------------------------
 CID_113542466_JID_9427_Energie_anion
 ------------------------------------
 Structure from the checkpoint file:  "JID_9427.chk"
 Charge = -1 Multiplicity = 2

                         Standard orientation:
 ---------------------------------------------------------------------
 Center     Atomic      Atomic             Coordinates (Angstroms)
 Number     Number       Type             X           Y           Z
 ---------------------------------------------------------------------
      1          6           0        1.632730    0.746456   -1.987176
      2          6           0        1.877704    0.244976   -0.585584
      3          6           0        1.390138   -0.987542   -0.115307
      4          6           0        1.559817   -1.365373    1.223865
      5          6           0        2.249357   -0.534256    2.099630
      6          6           0        2.757545    0.679291    1.649257
      7          6           0        2.573946    1.078211    0.317988
      8          7           0        3.024296    2.338870   -0.101564
      9          6           0        0.672948   -1.925236   -1.040809
     10          8           0        1.055329   -2.130330   -2.179583
     11          6           0       -0.597460   -2.602518   -0.509980
     12          6           0       -1.518030   -1.590225    0.106755
     13          7           0       -1.598952   -0.374849   -0.443647
     14          7           0       -2.429197    0.326508    0.355425
     15          6           0       -2.870204   -0.412805    1.406071
     16          6           0       -2.304235   -1.669311    1.278537
     17          6           0       -2.586542    1.766899    0.133852
     18          6           0       -1.273013    2.484875    0.461874
     19          6           0       -3.059111    2.032536   -1.295612
     20          1           0        1.377669    1.812839   -1.964519
     21          1           0        2.521137    0.629575   -2.623673
     22          1           0        0.820891    0.209154   -2.473413
     23          1           0        1.162317   -2.311108    1.576075
     24          1           0        2.396618   -0.830951    3.134191
     25          1           0        3.297319    1.333582    2.330544
     26          1           0        3.714304    2.749560    0.516000
     27          1           0        3.338815    2.375472   -1.063291
     28          1           0       -1.052423   -3.124704   -1.357590
     29          1           0       -0.333903   -3.362141    0.236333
     30          1           0       -3.536990    0.005649    2.146557
     31          1           0       -2.438971   -2.518496    1.932864
     32          1           0       -3.363131    2.082706    0.839901
     33          1           0       -0.477661    2.138619   -0.203374
     34          1           0       -1.389685    3.567160    0.341031
     35          1           0       -0.963862    2.278464    1.491335
     36          1           0       -4.007405    1.523597   -1.494720
     37          1           0       -3.198571    3.107400   -1.450638
     38          1           0       -2.315667    1.666690   -2.008619
 ---------------------------------------------------------------------

 SCF Done:  E(UB3LYP) =  -822.807908089     A.U. after   33 cycles
 SCF Done:  E(UB3LYP) =  -822.807908089     a.u. after    1 cycles

 The electronic state is 2-A.
 Alpha  occ. eigenvalues --  -18.96296 -14.27709 -14.21790 -14.21124 -10.11904
 Alpha  occ. eigenvalues --  -10.10866 -10.09729 -10.09533 -10.08502 -10.06548
 Alpha  occ. eigenvalues --  -10.06097 -10.05741 -10.05699 -10.05637 -10.05546
 Alpha  occ. eigenvalues --  -10.04945 -10.04939 -10.04817 -10.04617  -0.94133
 Alpha  occ. eigenvalues --   -0.90131  -0.81693  -0.75184  -0.72609  -0.68723
 Alpha  occ. eigenvalues --   -0.66377  -0.65472  -0.62882  -0.60367  -0.59197
 Alpha  occ. eigenvalues --   -0.57036  -0.51775  -0.50583  -0.49130  -0.47426
 Alpha  occ. eigenvalues --   -0.44754  -0.43269  -0.41109  -0.40689  -0.37657
 Alpha  occ. eigenvalues --   -0.36208  -0.35805  -0.35219  -0.34420  -0.33502
 Alpha  occ. eigenvalues --   -0.33187  -0.31664  -0.31230  -0.30322  -0.29916
 Alpha  occ. eigenvalues --   -0.29639  -0.29140  -0.28184  -0.27704  -0.27589
 Alpha  occ. eigenvalues --   -0.26687  -0.25852  -0.24960  -0.24784  -0.23833
 Alpha  occ. eigenvalues --   -0.23406  -0.22729  -0.20100  -0.18394  -0.14450
 Alpha  occ. eigenvalues --   -0.13897  -0.12858  -0.11277  -0.10094   0.04374
 Alpha virt. eigenvalues --    0.06007   0.06645   0.07453   0.08221   0.08447
 Alpha virt. eigenvalues --    0.09420   0.09679   0.10047   0.10491   0.10742
 Alpha virt. eigenvalues --    0.11492   0.11714   0.11851   0.12339   0.12798

  Beta  occ. eigenvalues --  -18.95977 -14.27712 -14.21793 -14.21111 -10.11889
  Beta  occ. eigenvalues --  -10.10627 -10.09707 -10.09554 -10.08488 -10.06535
  Beta  occ. eigenvalues --  -10.06117 -10.05731 -10.05632 -10.05600 -10.05550
  Beta  occ. eigenvalues --  -10.04868 -10.04824 -10.04809 -10.04569  -0.94119
  Beta  occ. eigenvalues --   -0.89537  -0.81670  -0.75154  -0.72446  -0.68679
  Beta  occ. eigenvalues --   -0.66295  -0.65309  -0.62678  -0.60268  -0.59170
  Beta  occ. eigenvalues --   -0.56968  -0.51630  -0.50336  -0.49085  -0.47368
  Beta  occ. eigenvalues --   -0.44627  -0.43087  -0.41043  -0.40636  -0.37450
  Beta  occ. eigenvalues --   -0.36166  -0.35719  -0.35169  -0.34337  -0.33341
  Beta  occ. eigenvalues --   -0.33131  -0.31406  -0.31060  -0.30141  -0.29848
  Beta  occ. eigenvalues --   -0.29557  -0.29078  -0.28114  -0.27603  -0.27549
  Beta  occ. eigenvalues --   -0.26537  -0.25694  -0.24924  -0.24704  -0.23724
  Beta  occ. eigenvalues --   -0.23017  -0.21927  -0.19698  -0.18360  -0.14322
  Beta  occ. eigenvalues --   -0.13838  -0.12307  -0.10941  -0.09696
  Beta virt. eigenvalues --    0.06430   0.07023   0.07602   0.08465   0.08609
  Beta virt. eigenvalues --    0.08872   0.09489   0.09775   0.10388   0.10527
  Beta virt. eigenvalues --    0.10702   0.11589   0.11813   0.12051   0.12407

 Mulliken charges and spin densities:
               1          2
     1  C   -0.688778  -0.069214
     2  C    1.452981  -0.172907
     3  C    1.203569   0.090693
     4  C   -0.603989   0.154691
     5  C   -0.303390  -0.221978
     6  C   -0.487939   0.408938
     7  C   -0.631738  -0.108682
     8  N   -0.272690   0.002069
     9  C   -1.125336   0.086779
    10  O   -0.255090   0.106235
    11  C    0.077755  -0.628966
    12  C    0.344152  -0.404542
    13  N   -0.173702   0.157170
    14  N    0.468483  -0.113144
    15  C    0.240591  -0.527069
    16  C   -0.097628   0.173898
    17  C   -0.602531   0.604658
    18  C    0.182799  -0.770204
    19  C   -0.013805  -0.521062
    20  H    0.049331   0.053202
    21  H    0.153682   0.003613
    22  H    0.233347  -0.015459
    23  H    0.079938   0.018343
    24  H    0.056700   0.086643
    25  H    0.054269   0.039905
    26  H    0.176528   0.044417
    27  H    0.255224  -0.005690
    28  H    0.190348   0.001600
    29  H    0.039012   0.111434
    30  H   -0.712299   0.862649
    31  H   -0.139821   0.303082
    32  H   -0.594813   0.768971
    33  H    0.318851  -0.116919
    34  H   -0.069559   0.198351
    35  H    0.073479   0.079127
    36  H    0.053307   0.092422
    37  H   -0.065415   0.195453
    38  H    0.134176   0.031490
 Sum of Mulliken charges =  -1.00000   1.00000

 Dipole moment (field-independent basis, Debye):
    X=              3.6558    Y=              1.1606    Z=             -0.4538  Tot=              3.8623
 Quadrupole moment (field-independent basis, Debye-Ang):
   XX=           -161.4538   YY=           -150.6401   ZZ=           -148.5621
   XY=             17.5903   XZ=             11.3285   YZ=            -11.5548

 Summary of Natural Population Analysis:

                                       Natural Population
                Natural  -----------------------------------------------
    Atom  No    Charge         Core      Valence    Rydberg      Total
 -----------------------------------------------------------------------
      C    1   -0.29989      0.99964     2.29520    0.00505     3.29989
      C    2   -0.00296      0.99944     1.99450    0.00901     3.00296
      C    3   -0.03905      0.99943     2.02785    0.01177     3.03905
      C    4   -0.10024      0.99953     2.09101    0.00970     3.10024
      C    5   -0.10332      0.99957     2.09422    0.00953     3.10332
      C    6   -0.10159      0.99953     2.09372    0.00834     3.10159
      C    7    0.07135      0.99945     1.91675    0.01246     2.92865
      N    8   -0.40151      0.99972     2.89257    0.00922     3.90151
      C    9    0.32048      0.99963     1.65836    0.02153     2.67952
      O   10   -0.26509      0.99988     3.25893    0.00628     4.26509
      C   11   -0.24711      0.99956     2.23821    0.00934     3.24711
      C   12    0.07781      0.99960     1.90763    0.01497     2.92219
      N   13   -0.16037      0.99969     2.64975    0.01094     3.66037
      N   14   -0.10865      0.99965     2.59383    0.01516     3.60865
      C   15   -0.00220      0.99956     1.99152    0.01112     3.00220
      C   16   -0.16367      0.99951     2.15542    0.00874     3.16367
      C   17   -0.00254      0.99960     1.99036    0.01257     3.00254
      C   18   -0.28826      0.99964     2.28206    0.00656     3.28826
      C   19   -0.28862      0.99964     2.28291    0.00606     3.28862
      H   20    0.09581      0.00000     0.40286    0.00133     0.40419
      H   21    0.09854      0.00000     0.40044    0.00102     0.40146
      H   22    0.12006      0.00000     0.37902    0.00092     0.37994
      H   23    0.09567      0.00000     0.40283    0.00150     0.40433
      H   24    0.09485      0.00000     0.40427    0.00087     0.40515
      H   25    0.08910      0.00000     0.40950    0.00140     0.41090
      H   26    0.17915      0.00000     0.31944    0.00141     0.32085
      H   27    0.18275      0.00000     0.31572    0.00152     0.31725
      H   28    0.11224      0.00000     0.38635    0.00141     0.38776
      H   29    0.10897      0.00000     0.38969    0.00134     0.39103
      H   30    0.10424      0.00000     0.39388    0.00188     0.39576
      H   31    0.10608      0.00000     0.39305    0.00087     0.39392
      H   32    0.09807      0.00000     0.39854    0.00339     0.40193
      H   33    0.11050      0.00000     0.38810    0.00140     0.38950
      H   34    0.09667      0.00000     0.40241    0.00092     0.40333
      H   35    0.10438      0.00000     0.39428    0.00135     0.39562
      H   36    0.10075      0.00000     0.39847    0.00079     0.39925
      H   37    0.09857      0.00000     0.40070    0.00073     0.40143
      H   38    0.10902      0.00000     0.38991    0.00107     0.39098
 =======================================================================
   * Total *    0.00000     18.99225    49.78426    0.22349    69.00000

 Normal termination of Gaussian 16 at Sun Dec 13 18:11:13 2020.
