 Gaussian 16, Revision A.03,

 -----------------------------------------------------------
 # opt freq B3LYP/6-31G(d) empiricaldispersion=gd3bj scf=xqc
 -----------------------------------------------------------

 -------------------------------
 CID_80596128_JID_10268_neutraal
 -------------------------------
 Symbolic Z-matrix:
 Charge =  0 Multiplicity = 1

 SCF Done:  E(RB3LYP) =  -1275.36147170     A.U. after   15 cycles
 SCF Done:  E(RB3LYP) =  -1275.36504286     A.U. after   13 cycles
 SCF Done:  E(RB3LYP) =  -1275.36552098     A.U. after   12 cycles
 SCF Done:  E(RB3LYP) =  -1275.36558053     A.U. after   12 cycles
 SCF Done:  E(RB3LYP) =  -1275.36569731     A.U. after   12 cycles
 SCF Done:  E(RB3LYP) =  -1275.36579670     A.U. after   11 cycles
 SCF Done:  E(RB3LYP) =  -1275.36590755     A.U. after   12 cycles
 SCF Done:  E(RB3LYP) =  -1275.36598216     A.U. after   12 cycles
 SCF Done:  E(RB3LYP) =  -1275.36603175     A.U. after   10 cycles
 SCF Done:  E(RB3LYP) =  -1275.36599541     A.U. after   12 cycles
 SCF Done:  E(RB3LYP) =  -1275.36832088     A.U. after   10 cycles
 SCF Done:  E(RB3LYP) =  -1275.36832462     A.U. after   10 cycles
 SCF Done:  E(RB3LYP) =  -1275.36832550     A.U. after   10 cycles
 SCF Done:  E(RB3LYP) =  -1275.36832576     A.U. after    8 cycles
 SCF Done:  E(RB3LYP) =  -1275.36832579     A.U. after    7 cycles
 SCF Done:  E(RB3LYP) =  -1275.36832580     A.U. after    6 cycles
 Optimization completed.
    -- Stationary point found.
 Normal termination of Gaussian 16 at Sun Dec 13 12:49:30 2020.

 --------------------------------------------------------------------
 #N Geom=AllCheck Guess=TCheck SCRF=Check GenChk RB3LYP/6-31G(d) Freq
 --------------------------------------------------------------------

 Structure from the checkpoint file:  "JID_10268.chk"
 -------------------------------
 CID_80596128_JID_10268_neutraal
 -------------------------------
 Charge =  0 Multiplicity = 1

 SCF Done:  E(RB3LYP) =  -1275.36832580     A.U. after    1 cycles

  Exact polarizability: 306.554  -5.859 163.637  -3.118 -11.400 110.950
 Approx polarizability: 389.542  -8.002 305.201  -7.524 -32.707 177.339

                      1                      2                      3
                      A                      A                      A
 Frequencies --     18.2068                31.4676                57.5910
 Red. masses --      5.6269                 6.2692                 6.0038
 Frc consts  --      0.0011                 0.0037                 0.0117
 IR Inten    --      0.9699                 0.3112                 0.4124

                      4                      5                      6
                      A                      A                      A
 Frequencies --     61.9871                73.3050                85.6795
 Red. masses --      7.9775                 6.1313                 5.3694
 Frc consts  --      0.0181                 0.0194                 0.0232
 IR Inten    --      0.5487                 0.5507                 2.5724

                      7                      8                      9
                      A                      A                      A
 Frequencies --    115.4067               159.7059               181.2958
 Red. masses --      6.1377                 7.0738                 4.4204
 Frc consts  --      0.0482                 0.1063                 0.0856
 IR Inten    --      3.3528                 0.3678                 0.1324

                     10                     11                     12
                      A                      A                      A
 Frequencies --    193.7823               233.7447               254.6426
 Red. masses --      5.7203                 2.8672                 4.6411
 Frc consts  --      0.1266                 0.0923                 0.1773
 IR Inten    --      3.5363                 0.2721                 3.4017

                     13                     14                     15
                      A                      A                      A
 Frequencies --    288.5128               314.0595               352.3415
 Red. masses --      7.8823                 4.9420                 2.1222
 Frc consts  --      0.3866                 0.2872                 0.1552
 IR Inten    --      2.0250                 0.7346                 4.2318

                     16                     17                     18
                      A                      A                      A
 Frequencies --    358.9324               396.3763               415.2191
 Red. masses --      3.7786                 7.0718                 3.0534
 Frc consts  --      0.2868                 0.6546                 0.3102
 IR Inten    --      0.0316                 1.5640                 0.1748

                     19                     20                     21
                      A                      A                      A
 Frequencies --    436.0895               469.3389               498.6858
 Red. masses --      4.6326                 6.3952                 2.3529
 Frc consts  --      0.5191                 0.8300                 0.3448
 IR Inten    --      0.7012                20.0392                 6.3455

                     22                     23                     24
                      A                      A                      A
 Frequencies --    503.0450               527.7521               552.4136
 Red. masses --      3.3426                 5.6954                 4.5157
 Frc consts  --      0.4984                 0.9346                 0.8119
 IR Inten    --     14.3530                 5.0172                 8.0438

                     25                     26                     27
                      A                      A                      A
 Frequencies --    612.0305               649.1252               655.6851
 Red. masses --      1.2983                 6.9235                 4.1995
 Frc consts  --      0.2865                 1.7188                 1.0638
 IR Inten    --     55.2679                 0.4668                 1.5008

                     28                     29                     30
                      A                      A                      A
 Frequencies --    671.0860               692.8717               706.5347
 Red. masses --      4.5020                 5.3364                 4.9930
 Frc consts  --      1.1946                 1.5094                 1.4685
 IR Inten    --     42.3942                 1.8193                 3.8235

                     31                     32                     33
                      A                      A                      A
 Frequencies --    723.5461               738.4446               763.5479
 Red. masses --      3.6089                 3.4097                 5.0761
 Frc consts  --      1.1132                 1.0955                 1.7436
 IR Inten    --     60.8507                17.1510                25.4748

                     34                     35                     36
                      A                      A                      A
 Frequencies --    788.0905               800.6589               823.7787
 Red. masses --      5.5338                 5.3856                 2.3690
 Frc consts  --      2.0250                 2.0341                 0.9472
 IR Inten    --     14.9957                28.0339                 0.2979

                     37                     38                     39
                      A                      A                      A
 Frequencies --    843.7406               864.8575               887.6368
 Red. masses --      1.8036                 1.3183                 1.6757
 Frc consts  --      0.7565                 0.5810                 0.7779
 IR Inten    --     10.3555                 1.4260                16.0154

                     40                     41                     42
                      A                      A                      A
 Frequencies --    921.4848               938.2068               980.8272
 Red. masses --      1.5486                 2.4166                 3.7073
 Frc consts  --      0.7747                 1.2533                 2.1013
 IR Inten    --      5.7308                 4.2494                 2.7175

                     43                     44                     45
                      A                      A                      A
 Frequencies --    983.7741               989.9900              1004.1905
 Red. masses --      1.3346                 4.5420                 7.0867
 Frc consts  --      0.7610                 2.6227                 4.2105
 IR Inten    --      0.0072                14.5017                 4.3905

                     46                     47                     48
                      A                      A                      A
 Frequencies --   1006.6430              1038.3318              1044.6369
 Red. masses --      1.3134                 3.7990                 2.2137
 Frc consts  --      0.7842                 2.4132                 1.4233
 IR Inten    --      0.0076                37.3041                 1.0835

                     49                     50                     51
                      A                      A                      A
 Frequencies --   1053.8577              1095.2350              1112.1376
 Red. masses --      3.6434                 1.9183                 2.1570
 Frc consts  --      2.3841                 1.3558                 1.5719
 IR Inten    --     23.5781                10.3390                 3.9769

                     52                     53                     54
                      A                      A                      A
 Frequencies --   1113.0900              1127.0057              1148.4508
 Red. masses --      4.5339                 3.5652                 1.4602
 Frc consts  --      3.3097                 2.6680                 1.1347
 IR Inten    --     56.9743               100.1756                 0.1280

                     55                     56                     57
                      A                      A                      A
 Frequencies --   1156.7774              1191.5827              1204.1210
 Red. masses --      1.2461                 1.1885                 1.3889
 Frc consts  --      0.9824                 0.9942                 1.1865
 IR Inten    --      0.8233                 4.8369               125.9428

                     58                     59                     60
                      A                      A                      A
 Frequencies --   1215.2878              1229.4805              1265.7093
 Red. masses --      2.2584                 1.5191                 1.2795
 Frc consts  --      1.9652                 1.3530                 1.2077
 IR Inten    --     93.2311               126.3303                 0.6980

                     61                     62                     63
                      A                      A                      A
 Frequencies --   1291.4476              1309.8983              1332.2624
 Red. masses --      1.3890                 1.3346                 2.0775
 Frc consts  --      1.3649                 1.3492                 2.1725
 IR Inten    --      8.3389                 6.1746                 8.2906

                     64                     65                     66
                      A                      A                      A
 Frequencies --   1348.5041              1352.2519              1366.2519
 Red. masses --      1.3805                 1.2731                 5.6577
 Frc consts  --      1.4790                 1.3716                 6.2223
 IR Inten    --      7.3854                 8.4825                 2.1982

                     67                     68                     69
                      A                      A                      A
 Frequencies --   1392.6001              1397.7543              1404.2128
 Red. masses --      1.3443                 2.6409                 1.8576
 Frc consts  --      1.5360                 3.0399                 2.1581
 IR Inten    --      4.5901               183.1211                16.7062

                     70                     71                     72
                      A                      A                      A
 Frequencies --   1414.3430              1431.6143              1465.0884
 Red. masses --      1.6893                 1.7835                 3.3752
 Frc consts  --      1.9910                 2.1537                 4.2685
 IR Inten    --      0.1737                 5.2829                30.1346

                     73                     74                     75
                      A                      A                      A
 Frequencies --   1495.4986              1503.6638              1512.0387
 Red. masses --      1.0877                 1.0947                 1.0861
 Frc consts  --      1.4333                 1.4582                 1.4630
 IR Inten    --      3.1708                 4.8184                 4.3376

                     76                     77                     78
                      A                      A                      A
 Frequencies --   1529.4662              1544.9475              1590.1006
 Red. masses --      1.0945                 2.8895                 9.2351
 Frc consts  --      1.5085                 4.0635                13.7576
 IR Inten    --     11.6220                 9.4891                73.7102

                     79                     80                     81
                      A                      A                      A
 Frequencies --   1601.3064              1632.8591              1675.0766
 Red. masses --      6.7856                 7.7310                 5.7121
 Frc consts  --     10.2515                12.1446                 9.4431
 IR Inten    --     53.1940                 3.3043                39.1518

                     82                     83                     84
                      A                      A                      A
 Frequencies --   1823.3058              3038.2860              3047.6124
 Red. masses --      9.8884                 1.0603                 1.0611
 Frc consts  --     19.3685                 5.7670                 5.8069
 IR Inten    --    356.9568                34.0470                21.4953

                     85                     86                     87
                      A                      A                      A
 Frequencies --   3062.5448              3068.8435              3081.4675
 Red. masses --      1.0652                 1.0742                 1.0880
 Frc consts  --      5.8864                 5.9603                 6.0868
 IR Inten    --     56.6991                 8.8931                31.2361

                     88                     89                     90
                      A                      A                      A
 Frequencies --   3089.5211              3099.7622              3120.1747
 Red. masses --      1.1041                 1.0852                 1.0993
 Frc consts  --      6.2091                 6.1432                 6.3058
 IR Inten    --     16.6075                 3.7364                17.3253

                     91                     92                     93
                      A                      A                      A
 Frequencies --   3126.8963              3222.4688              3224.9086
 Red. masses --      1.1062                 1.0891                 1.0885
 Frc consts  --      6.3728                 6.6632                 6.6697
 IR Inten    --     15.0643                 2.0772                 0.0129

                     94                     95                     96
                      A                      A                      A
 Frequencies --   3237.4068              3240.9476              3700.5039
 Red. masses --      1.0947                 1.0942                 1.0642
 Frc consts  --      6.7600                 6.7715                 8.5860
 IR Inten    --      0.9524                 1.3227                94.1399

 - Thermochemistry -
 -------------------
 Temperature   298.150 Kelvin.  Pressure   1.00000 Atm.
 Atom     1 has atomic number  6 and mass  12.00000

 Molecular mass:   290.07251 amu.
 Principal axes and moments of inertia in atomic units:
                           1         2         3
     Eigenvalues --  1625.93392********************
           X            0.99999  -0.00513  -0.00003
           Y            0.00513   0.99955  -0.02966
           Z            0.00018   0.02966   0.99956
 This molecule is an asymmetric top.
 Rotational symmetry number  1.
 Warning -- assumption of classical behavior for rotation
           may cause significant error
 Rotational temperatures (Kelvin)      0.05327     0.00526     0.00506
 Rotational constants (GHZ):           1.10997     0.10957     0.10534
 Zero-point vibrational energy     702195.2 (Joules/Mol)
                                  167.82869 (Kcal/Mol)
 Warning -- explicit consideration of  25 degrees of freedom as
           vibrations may cause significant error
 Vibrational temperatures:     26.20    45.27    82.86    89.19   105.47
          (Kelvin)            123.27   166.04   229.78   260.84   278.81
                              336.31   366.37   415.11   451.86   506.94
                              516.42   570.30   597.41   627.44   675.27
                              717.50   723.77   759.32   794.80   880.58
                              933.95   943.38   965.54   996.89  1016.55
                             1041.02  1062.46  1098.58  1133.89  1151.97
                             1185.23  1213.95  1244.34  1277.11  1325.81
                             1349.87  1411.19  1415.43  1424.37  1444.81
                             1448.33  1493.93  1503.00  1516.27  1575.80
                             1600.12  1601.49  1621.51  1652.36  1664.34
                             1714.42  1732.46  1748.53  1768.95  1821.07
                             1858.11  1884.65  1916.83  1940.20  1945.59
                             1965.73  2003.64  2011.06  2020.35  2034.92
                             2059.77  2107.94  2151.69  2163.44  2175.49
                             2200.56  2222.83  2287.80  2303.92  2349.32
                             2410.06  2623.33  4371.42  4384.83  4406.32
                             4415.38  4433.54  4445.13  4459.87  4489.24
                             4498.91  4636.41  4639.92  4657.91  4663.00
                             5324.20

 Zero-point correction=                           0.267452 (Hartree/Particle)
 Thermal correction to Energy=                    0.284449
 Thermal correction to Enthalpy=                  0.285393
 Thermal correction to Gibbs Free Energy=         0.220160
 Sum of electronic and zero-point Energies=          -1275.100874
 Sum of electronic and thermal Energies=             -1275.083877
 Sum of electronic and thermal Enthalpies=           -1275.082932
 Sum of electronic and thermal Free Energies=        -1275.148166

                     E (Thermal)             CV                S
                      KCal/Mol        Cal/Mol-Kelvin    Cal/Mol-Kelvin
 Total                  178.495             65.358            137.295
 Electronic               0.000              0.000              0.000
 Translational            0.889              2.981             42.892
 Rotational               0.889              2.981             34.483
 Vibrational            176.717             59.396             59.920
 Vibration     1          0.593              1.986              6.821
 Vibration     2          0.594              1.983              5.735
 Vibration     3          0.596              1.974              4.538
 Vibration     4          0.597              1.972              4.393
 Vibration     5          0.599              1.967              4.063
 Vibration     6          0.601              1.959              3.756
 Vibration     7          0.608              1.937              3.176
 Vibration     8          0.622              1.892              2.553
 Vibration     9          0.630              1.865              2.315
 Vibration    10          0.635              1.849              2.191
 Vibration    11          0.654              1.789              1.850
 Vibration    12          0.665              1.755              1.698
 Vibration    13          0.685              1.695              1.483
 Vibration    14          0.702              1.647              1.341
 Vibration    15          0.729              1.570              1.156
 Vibration    16          0.734              1.557              1.127
 Vibration    17          0.763              1.478              0.976
 Vibration    18          0.779              1.437              0.908
 Vibration    19          0.797              1.392              0.839
 Vibration    20          0.826              1.318              0.739
 Vibration    21          0.854              1.253              0.661
 Vibration    22          0.858              1.243              0.651
 Vibration    23          0.883              1.189              0.592
 Vibration    24          0.908              1.134              0.539
 Vibration    25          0.971              1.006              0.429

 Optimization completed.
    -- Stationary point found.
 Normal termination of Gaussian 16 at Sun Dec 13 13:02:53 2020.

 ----------------------------------------------------------------------
 # B3LYP/6-311++G(d,p) empiricaldispersion=gd3bj scf=xqc pop=npa geom=c
 heck
 ----------------------------------------------------------------------

 ---------------------------------------
 CID_80596128_JID_10268_Energie_neutraal
 ---------------------------------------
 Structure from the checkpoint file:  "JID_10268.chk"
 Charge =  0 Multiplicity = 1

 SCF Done:  E(RB3LYP) =  -1275.63492403     A.U. after   15 cycles
 Normal termination of Gaussian 16 at Sun Dec 13 13:08:06 2020.

 ----------------------------------------------------------------------
 # B3LYP/6-311++G(d,p) empiricaldispersion=gd3bj scf=xqc pop=npa geom=c
 heck
 ----------------------------------------------------------------------

 -------------------------------------
 CID_80596128_JID_10268_Energie_kation
 -------------------------------------
 Structure from the checkpoint file:  "JID_10268.chk"
 Charge =  1 Multiplicity = 2

 SCF Done:  E(UB3LYP) =  -1275.33394100     A.U. after   26 cycles
 Normal termination of Gaussian 16 at Sun Dec 13 13:20:19 2020.
 Gaussian 16:  ES64L-G16RevA.03 25-Dec-2016

 ----------------------------------------------------------------------
 # B3LYP/6-311++G(d,p) empiricaldispersion=gd3bj scf=xqc pop=npa geom=c
 heck
 ----------------------------------------------------------------------

 ------------------------------------
 CID_80596128_JID_10268_Energie_anion
 ------------------------------------
 Structure from the checkpoint file:  "JID_10268.chk"
 Charge = -1 Multiplicity = 2

                         Standard orientation:
 ---------------------------------------------------------------------
 Center     Atomic      Atomic             Coordinates (Angstroms)
 Number     Number       Type             X           Y           Z
 ---------------------------------------------------------------------
      1          6           0       -4.961839    1.037303    0.558302
      2          6           0       -5.488789    0.413695   -0.740541
      3          6           0       -4.379553   -0.231072   -1.571752
      4         16           0       -3.581324   -1.634896   -0.696848
      5          6           0       -3.072924   -0.719861    0.836965
      6          6           0       -4.255424    0.028776    1.475958
      7          6           0       -1.896038    0.139427    0.532658
      8          7           0       -1.841542    1.383044    0.156784
      9          7           0       -0.497434    1.676493   -0.069316
     10          6           0        0.168031    0.587524    0.185007
     11          8           0       -0.655591   -0.431982    0.577369
     12          6           0        1.603261    0.362667    0.106746
     13          6           0        2.441814    1.426350   -0.267084
     14          6           0        3.811642    1.228391   -0.347993
     15          6           0        4.362702   -0.027888   -0.058078
     16          6           0        3.526807   -1.088197    0.313915
     17          6           0        2.152680   -0.895078    0.396005
     18          6           0        5.836184   -0.181148   -0.160789
     19          8           0        6.605241    0.703401   -0.478541
     20          8           0        6.260558   -1.434733    0.141057
     21          1           0       -4.268158    1.848831    0.317780
     22          1           0       -5.797682    1.479278    1.113727
     23          1           0       -6.253978   -0.340400   -0.515914
     24          1           0       -5.970019    1.193167   -1.345918
     25          1           0       -4.768851   -0.660596   -2.499693
     26          1           0       -3.610318    0.503334   -1.833468
     27          1           0       -2.734390   -1.510575    1.512731
     28          1           0       -3.890947    0.544075    2.373412
     29          1           0       -4.970918   -0.733796    1.805085
     30          1           0        2.001276    2.392242   -0.487922
     31          1           0        4.477731    2.034723   -0.634188
     32          1           0        3.956238   -2.057962    0.535816
     33          1           0        1.501050   -1.713650    0.680841
     34          1           0        7.230017   -1.415900    0.040015
 ---------------------------------------------------------------------

 SCF Done:  E(UB3LYP) =  -1275.67118659     A.U. after   20 cycles

 The electronic state is 2-A.
 Alpha  occ. eigenvalues --  -88.75160 -19.07600 -19.04065 -18.96751 -14.21865
 Alpha  occ. eigenvalues --  -14.19471 -10.15449 -10.14488 -10.13237 -10.12642
 Alpha  occ. eigenvalues --  -10.11438 -10.09746 -10.09566 -10.08558 -10.04549
 Alpha  occ. eigenvalues --  -10.04112 -10.04055 -10.03726 -10.03654 -10.03538
 Alpha  occ. eigenvalues --   -7.83796  -5.80177  -5.79851  -5.79151  -1.03010
 Alpha  occ. eigenvalues --   -0.97662  -0.88227  -0.85223  -0.76904  -0.73615
 Alpha  occ. eigenvalues --   -0.71295  -0.67654  -0.67068  -0.63241  -0.61636
 Alpha  occ. eigenvalues --   -0.56688  -0.54865  -0.54129  -0.51257  -0.49271
 Alpha  occ. eigenvalues --   -0.47530  -0.45667  -0.44753  -0.40596  -0.40075
 Alpha  occ. eigenvalues --   -0.38694  -0.37801  -0.37130  -0.36376  -0.35651
 Alpha  occ. eigenvalues --   -0.34227  -0.32799  -0.32177  -0.32035  -0.31629
 Alpha  occ. eigenvalues --   -0.31404  -0.30132  -0.29251  -0.28606  -0.27840
 Alpha  occ. eigenvalues --   -0.27264  -0.25790  -0.24614  -0.23790  -0.23589
 Alpha  occ. eigenvalues --   -0.22598  -0.22330  -0.21299  -0.20075  -0.19848
 Alpha  occ. eigenvalues --   -0.17472  -0.15654  -0.14825  -0.14226  -0.12975
 Alpha  occ. eigenvalues --   -0.11259   0.01945
 Alpha virt. eigenvalues --    0.05727   0.07207   0.07932   0.08375   0.08543
 Alpha virt. eigenvalues --    0.08790   0.09548   0.10675   0.10997   0.11132
 Alpha virt. eigenvalues --    0.11440   0.11847   0.12069   0.12846   0.13230

  Beta  occ. eigenvalues --  -88.75145 -19.07420 -19.04012 -18.96508 -14.21949
  Beta  occ. eigenvalues --  -14.19235 -10.15288 -10.14345 -10.13241 -10.12532
  Beta  occ. eigenvalues --  -10.11438 -10.09745 -10.09566 -10.08558 -10.04292
  Beta  occ. eigenvalues --  -10.04062 -10.04005 -10.03670 -10.03600 -10.03290
  Beta  occ. eigenvalues --   -7.83782  -5.80147  -5.79832  -5.79141  -1.02738
  Beta  occ. eigenvalues --   -0.97438  -0.87869  -0.84993  -0.76799  -0.73281
  Beta  occ. eigenvalues --   -0.71074  -0.67552  -0.67005  -0.62724  -0.61328
  Beta  occ. eigenvalues --   -0.56614  -0.54381  -0.54005  -0.51158  -0.49094
  Beta  occ. eigenvalues --   -0.47394  -0.45494  -0.44497  -0.40471  -0.40013
  Beta  occ. eigenvalues --   -0.38565  -0.37246  -0.37101  -0.36045  -0.35454
  Beta  occ. eigenvalues --   -0.34036  -0.32646  -0.31966  -0.31483  -0.31307
  Beta  occ. eigenvalues --   -0.31170  -0.29963  -0.29175  -0.28548  -0.27811
  Beta  occ. eigenvalues --   -0.27085  -0.25722  -0.24012  -0.23494  -0.23283
  Beta  occ. eigenvalues --   -0.22370  -0.21666  -0.21198  -0.19790  -0.19089
  Beta  occ. eigenvalues --   -0.16357  -0.15432  -0.14564  -0.14057  -0.12058
  Beta  occ. eigenvalues --   -0.09828
  Beta virt. eigenvalues --    0.05702   0.07002   0.07236   0.08056   0.08403
  Beta virt. eigenvalues --    0.08772   0.08828   0.09757   0.10756   0.11083
  Beta virt. eigenvalues --    0.11167   0.11422   0.12022   0.12206   0.13029

 Mulliken charges and spin densities:
               1          2
     1  C   -0.308603  -0.002525
     2  C   -0.433103   0.002984
     3  C   -0.442870  -0.003915
     4  S   -0.004052   0.008535
     5  C    0.541653   0.009670
     6  C   -0.643007  -0.001309
     7  C   -0.585287   0.084732
     8  N   -0.143794  -0.053400
     9  N    0.031666   0.124852
    10  C    0.290136   0.058247
    11  O    0.036081   0.043243
    12  C    0.648082   0.123644
    13  C   -0.528153   0.081633
    14  C   -0.485998   0.081145
    15  C    0.377750   0.111259
    16  C   -0.688174   0.062151
    17  C   -0.785698   0.067439
    18  C    0.270188   0.101494
    19  O   -0.402022   0.086838
    20  O   -0.223113   0.012630
    21  H    0.202676   0.000136
    22  H    0.142710  -0.000125
    23  H    0.098199   0.002419
    24  H    0.148658  -0.000209
    25  H    0.201304   0.009080
    26  H    0.204097  -0.001416
    27  H    0.321451   0.003827
    28  H    0.158836   0.000067
    29  H    0.149064  -0.000191
    30  H    0.161533  -0.003081
    31  H    0.164906  -0.003465
    32  H    0.161232  -0.002375
    33  H    0.095658  -0.003097
    34  H    0.267994  -0.000918
 Sum of Mulliken charges =  -1.00000   1.00000

 Dipole moment (field-independent basis, Debye):
    X=            -10.6813    Y=             -2.9593    Z=              1.4245  Tot=             11.1748
 Quadrupole moment (field-independent basis, Debye-Ang):
   XX=           -207.4595   YY=           -144.1422   ZZ=           -129.5247
   XY=            -12.4774   XZ=              3.0685   YZ=             -1.3352

 Summary of Natural Population Analysis:

                                       Natural Population
                Natural  -----------------------------------------------
    Atom  No    Charge         Core      Valence    Rydberg      Total
 -----------------------------------------------------------------------
      C    1   -0.19859      0.99962     2.19083    0.00814     3.19859
      C    2   -0.19450      0.99963     2.18719    0.00769     3.19450
      C    3   -0.25419      0.99959     2.24523    0.00936     3.25419
      S    4    0.09434      4.99965     2.88760    0.01842     7.90566
      C    5   -0.18494      0.99951     2.17323    0.01221     3.18494
      C    6   -0.18710      0.99961     2.17886    0.00863     3.18710
      C    7    0.26215      0.99955     1.71851    0.01979     2.73785
      N    8   -0.19306      0.99966     2.68073    0.01267     3.69306
      N    9   -0.13865      0.99967     2.62599    0.01299     3.63865
      C   10    0.27090      0.99955     1.71167    0.01787     2.72910
      O   11   -0.23242      0.99985     3.22121    0.01135     4.23242
      C   12   -0.01323      0.99938     2.00416    0.00969     3.01323
      C   13   -0.07130      0.99945     2.06310    0.00875     3.07130
      C   14   -0.07898      0.99957     2.06944    0.00997     3.07898
      C   15   -0.03804      0.99945     2.02890    0.00968     3.03804
      C   16   -0.08603      0.99957     2.07652    0.00994     3.08603
      C   17   -0.07947      0.99945     2.07159    0.00843     3.07947
      C   18    0.41460      0.99966     1.56094    0.02480     2.58540
      O   19   -0.30575      0.99987     3.29805    0.00783     4.30575
      O   20   -0.35208      0.99988     3.34625    0.00595     4.35208
      H   21    0.11503      0.00000     0.38339    0.00158     0.38497
      H   22    0.09314      0.00000     0.40567    0.00120     0.40686
      H   23    0.09313      0.00000     0.40527    0.00160     0.40687
      H   24    0.09670      0.00000     0.40204    0.00126     0.40330
      H   25    0.10270      0.00000     0.39607    0.00123     0.39730
      H   26    0.10997      0.00000     0.38842    0.00161     0.39003
      H   27    0.11703      0.00000     0.38176    0.00121     0.38297
      H   28    0.10383      0.00000     0.39499    0.00119     0.39617
      H   29    0.09602      0.00000     0.40265    0.00133     0.40398
      H   30    0.10346      0.00000     0.39514    0.00140     0.39654
      H   31    0.10453      0.00000     0.39436    0.00111     0.39547
      H   32    0.10116      0.00000     0.39772    0.00112     0.39884
      H   33    0.09822      0.00000     0.40065    0.00114     0.40178
      H   34    0.23144      0.00000     0.26533    0.00323     0.26856
 =======================================================================
   * Total *    0.00000     23.99217    51.75346    0.25437    76.00000

 Normal termination of Gaussian 16 at Sun Dec 13 13:29:50 2020.
