 Gaussian 16, Revision A.03,

 -----------------------------------------------------------
 # opt freq B3LYP/6-31G(d) empiricaldispersion=gd3bj scf=xqc
 -----------------------------------------------------------

 -------------------------------
 CID_114802325_JID_5907_neutraal
 -------------------------------
 Symbolic Z-matrix:
 Charge =  0 Multiplicity = 1

 SCF Done:  E(RB3LYP) =  -633.010812110     A.U. after   14 cycles
 SCF Done:  E(RB3LYP) =  -633.014421949     A.U. after   12 cycles
 SCF Done:  E(RB3LYP) =  -633.014530722     A.U. after   12 cycles
 SCF Done:  E(RB3LYP) =  -633.014889162     A.U. after   11 cycles
 SCF Done:  E(RB3LYP) =  -633.014953265     A.U. after   10 cycles
 SCF Done:  E(RB3LYP) =  -633.015020456     A.U. after   11 cycles
 SCF Done:  E(RB3LYP) =  -633.015083919     A.U. after   11 cycles
 SCF Done:  E(RB3LYP) =  -633.015077563     A.U. after   11 cycles
 SCF Done:  E(RB3LYP) =  -633.015444724     A.U. after   12 cycles
 SCF Done:  E(RB3LYP) =  -633.017783729     A.U. after   14 cycles
 SCF Done:  E(RB3LYP) =  -633.025142523     A.U. after    9 cycles
 SCF Done:  E(RB3LYP) =  -633.025168204     A.U. after   10 cycles
 SCF Done:  E(RB3LYP) =  -633.025179364     A.U. after    9 cycles
 SCF Done:  E(RB3LYP) =  -633.025189151     A.U. after   10 cycles
 SCF Done:  E(RB3LYP) =  -633.025190301     A.U. after    8 cycles
 SCF Done:  E(RB3LYP) =  -633.025190701     A.U. after    8 cycles
 Optimization completed.
    -- Stationary point found.
 Normal termination of Gaussian 16 at Thu Dec 10 18:07:24 2020.

 --------------------------------------------------------------------
 #N Geom=AllCheck Guess=TCheck SCRF=Check GenChk RB3LYP/6-31G(d) Freq
 --------------------------------------------------------------------

 Structure from the checkpoint file:  "JID_5907.chk"
 -------------------------------
 CID_114802325_JID_5907_neutraal
 -------------------------------
 Charge =  0 Multiplicity = 1

 SCF Done:  E(RB3LYP) =  -633.025190701     A.U. after    1 cycles

  Exact polarizability: 193.818   3.821 146.783  -0.417   2.181  90.338
 Approx polarizability: 257.486   8.886 230.519   3.572   5.045 141.327

                      1                      2                      3
                      A                      A                      A
 Frequencies --     38.5680                47.5332                78.4602
 Red. masses --      4.2091                 3.7912                 3.0453
 Frc consts  --      0.0037                 0.0050                 0.0110
 IR Inten    --      0.6898                 1.2645                 0.6233

                      4                      5                      6
                      A                      A                      A
 Frequencies --    101.1530               123.0706               160.2158
 Red. masses --      3.9482                 3.0452                 2.1775
 Frc consts  --      0.0238                 0.0272                 0.0329
 IR Inten    --      1.5176                 3.8012                 2.5821

                      7                      8                      9
                      A                      A                      A
 Frequencies --    181.4910               207.5543               212.8269
 Red. masses --      2.8017                 2.6033                 2.0244
 Frc consts  --      0.0544                 0.0661                 0.0540
 IR Inten    --      6.7268                11.4179                11.6402

                     10                     11                     12
                      A                      A                      A
 Frequencies --    239.1180               267.5726               275.7133
 Red. masses --      1.1701                 2.1530                 1.5099
 Frc consts  --      0.0394                 0.0908                 0.0676
 IR Inten    --      2.6791                13.5229                29.1164

                     13                     14                     15
                      A                      A                      A
 Frequencies --    297.0143               352.3445               381.0360
 Red. masses --      3.8426                 3.3311                 2.8348
 Frc consts  --      0.1997                 0.2437                 0.2425
 IR Inten    --     12.6213                 0.5322                 3.9960

                     16                     17                     18
                      A                      A                      A
 Frequencies --    438.1739               448.0704               467.0561
 Red. masses --      2.2411                 2.4504                 2.9400
 Frc consts  --      0.2535                 0.2899                 0.3779
 IR Inten    --      1.2047                 1.5168                 7.2997

                     19                     20                     21
                      A                      A                      A
 Frequencies --    523.2421               584.4465               587.6337
 Red. masses --      3.3550                 2.7817                 3.6199
 Frc consts  --      0.5412                 0.5598                 0.7365
 IR Inten    --      0.6714                 0.7193                 6.7112

                     22                     23                     24
                      A                      A                      A
 Frequencies --    589.7181               665.7141               759.2988
 Red. masses --      4.4857                 6.0181                 3.5633
 Frc consts  --      0.9191                 1.5714                 1.2104
 IR Inten    --      1.2643                 6.7052                 2.3806

                     25                     26                     27
                      A                      A                      A
 Frequencies --    776.4240               814.3012               828.8207
 Red. masses --      2.7100                 1.9995                 1.6199
 Frc consts  --      0.9625                 0.7812                 0.6556
 IR Inten    --      0.2167                 2.2617                17.3601

                     28                     29                     30
                      A                      A                      A
 Frequencies --    835.6851               869.7845               889.5721
 Red. masses --      2.9817                 1.4267                 1.6890
 Frc consts  --      1.2269                 0.6359                 0.7875
 IR Inten    --     11.7114               121.5428                 3.5540

                     31                     32                     33
                      A                      A                      A
 Frequencies --    907.8364               928.8344               936.4832
 Red. masses --      2.2227                 1.9246                 1.3044
 Frc consts  --      1.0793                 0.9783                 0.6740
 IR Inten    --      6.7604                 5.7671                 1.2031

                     34                     35                     36
                      A                      A                      A
 Frequencies --    974.3038               983.6241               992.7107
 Red. masses --      1.3922                 2.2891                 1.4003
 Frc consts  --      0.7787                 1.3049                 0.8131
 IR Inten    --      0.1395                15.0003                 1.1875

                     37                     38                     39
                      A                      A                      A
 Frequencies --   1007.7249              1032.9557              1047.3414
 Red. masses --      2.2257                 1.5668                 1.8216
 Frc consts  --      1.3317                 0.9850                 1.1773
 IR Inten    --     16.9710                21.5016                11.6430

                     40                     41                     42
                      A                      A                      A
 Frequencies --   1078.8292              1083.3827              1097.9153
 Red. masses --      1.4729                 2.4318                 2.0312
 Frc consts  --      1.0100                 1.6817                 1.4425
 IR Inten    --      2.0204                 3.9599                 4.0819

                     43                     44                     45
                      A                      A                      A
 Frequencies --   1109.1221              1130.8702              1157.2932
 Red. masses --      2.6301                 2.2348                 2.0130
 Frc consts  --      1.9062                 1.6839                 1.5885
 IR Inten    --      4.6529                 1.6858                11.3516

                     46                     47                     48
                      A                      A                      A
 Frequencies --   1180.3541              1206.5493              1208.2548
 Red. masses --      2.3342                 1.4277                 1.5396
 Frc consts  --      1.9161                 1.2246                 1.3243
 IR Inten    --     14.4147                17.2879                 0.9543

                     49                     50                     51
                      A                      A                      A
 Frequencies --   1219.2341              1232.0780              1245.0849
 Red. masses --      1.6445                 1.9332                 1.5717
 Frc consts  --      1.4403                 1.7291                 1.4355
 IR Inten    --      6.0958                10.2162                11.8997

                     52                     53                     54
                      A                      A                      A
 Frequencies --   1270.2475              1295.7589              1312.6959
 Red. masses --      1.3304                 1.4722                 2.4106
 Frc consts  --      1.2648                 1.4563                 2.4474
 IR Inten    --     10.2213                 7.4275                 1.9751

                     55                     56                     57
                      A                      A                      A
 Frequencies --   1330.7127              1335.2121              1359.6521
 Red. masses --      1.5715                 1.3630                 1.5729
 Frc consts  --      1.6396                 1.4317                 1.7132
 IR Inten    --      2.2655                 1.5844                 0.9617

                     58                     59                     60
                      A                      A                      A
 Frequencies --   1368.4341              1384.7238              1390.3275
 Red. masses --      1.1539                 1.5338                 1.4313
 Frc consts  --      1.2731                 1.7328                 1.6301
 IR Inten    --      5.4992                44.9686                13.9087

                     61                     62                     63
                      A                      A                      A
 Frequencies --   1394.4111              1412.0414              1430.5328
 Red. masses --      1.9024                 1.5450                 1.6876
 Frc consts  --      2.1794                 1.8150                 2.0347
 IR Inten    --     88.9599                54.8913                 9.4105

                     64                     65                     66
                      A                      A                      A
 Frequencies --   1446.4732              1447.6249              1459.9314
 Red. masses --      1.4250                 1.2705                 2.3347
 Frc consts  --      1.7566                 1.5687                 2.9319
 IR Inten    --     22.7427                 4.0700                30.8526

                     67                     68                     69
                      A                      A                      A
 Frequencies --   1506.7334              1518.6002              1522.7968
 Red. masses --      1.0958                 1.0501                 1.0991
 Frc consts  --      1.4657                 1.4269                 1.5016
 IR Inten    --      3.4596                 6.7916                10.3918

                     70                     71                     72
                      A                      A                      A
 Frequencies --   1531.1540              1540.2968              1545.9925
 Red. masses --      1.1890                 1.0879                 1.6890
 Frc consts  --      1.6424                 1.5208                 2.3784
 IR Inten    --     18.6508                 0.4547               164.6440

                     73                     74                     75
                      A                      A                      A
 Frequencies --   1551.5624              1566.8387              1604.3383
 Red. masses --      1.1327                 1.2179                 6.8256
 Frc consts  --      1.6065                 1.7617                10.3510
 IR Inten    --      9.1386                 0.3424                36.0672

                     76                     77                     78
                      A                      A                      A
 Frequencies --   1648.9359              1701.2712              2955.9173
 Red. masses --      4.9978                 1.0883                 1.0738
 Frc consts  --      8.0063                 1.8558                 5.5279
 IR Inten    --    205.1868                32.9977                71.2902

                     79                     80                     81
                      A                      A                      A
 Frequencies --   2964.2953              3030.5658              3041.8881
 Red. masses --      1.0720                 1.0657                 1.0731
 Frc consts  --      5.5497                 5.7667                 5.8505
 IR Inten    --     44.4577                13.1967                14.5820

                     82                     83                     84
                      A                      A                      A
 Frequencies --   3043.8257              3053.5406              3056.1458
 Red. masses --      1.0513                 1.0575                 1.0593
 Frc consts  --      5.7389                 5.8094                 5.8291
 IR Inten    --      4.4229                54.2855                42.6322

                     85                     86                     87
                      A                      A                      A
 Frequencies --   3077.9740              3082.8006              3083.2120
 Red. masses --      1.0904                 1.0929                 1.1043
 Frc consts  --      6.0864                 6.1198                 6.1852
 IR Inten    --     37.7346                 9.2345                14.2960

                     88                     89                     90
                      A                      A                      A
 Frequencies --   3088.5107              3105.5025              3112.3729
 Red. masses --      1.0964                 1.1007                 1.1027
 Frc consts  --      6.1619                 6.2543                 6.2932
 IR Inten    --     71.7792                26.0467                54.3040

                     91                     92                     93
                      A                      A                      A
 Frequencies --   3123.5682              3147.8674              3163.6233
 Red. masses --      1.1008                 1.0892                 1.0900
 Frc consts  --      6.3281                 6.3587                 6.4276
 IR Inten    --     17.2067                52.4213                36.1687

                     94                     95                     96
                      A                      A                      A
 Frequencies --   3233.2296              3471.7190              3553.7308
 Red. masses --      1.0910                 1.0500                 1.0921
 Frc consts  --      6.7194                 7.4562                 8.1260
 IR Inten    --     12.8813                 1.5630                 1.0773

 - Thermochemistry -
 -------------------
 Temperature   298.150 Kelvin.  Pressure   1.00000 Atm.
 Atom     1 has atomic number  6 and mass  12.00000

 Molecular mass:   205.15790 amu.
 Principal axes and moments of inertia in atomic units:
                           1         2         3
     Eigenvalues --  1132.794726743.752967530.38189
           X            0.99996  -0.00813  -0.00302
           Y            0.00815   0.99995   0.00489
           Z            0.00298  -0.00491   0.99998
 This molecule is an asymmetric top.
 Rotational symmetry number  1.
 Warning -- assumption of classical behavior for rotation
           may cause significant error
 Rotational temperatures (Kelvin)      0.07646     0.01284     0.01150
 Rotational constants (GHZ):           1.59318     0.26762     0.23966
 Zero-point vibrational energy     795935.3 (Joules/Mol)
                                  190.23309 (Kcal/Mol)
 Warning -- explicit consideration of  22 degrees of freedom as
           vibrations may cause significant error
 Vibrational temperatures:     55.49    68.39   112.89   145.54   177.07
          (Kelvin)            230.51   261.13   298.62   306.21   344.04
                              384.98   396.69   427.34   506.95   548.23
                              630.43   644.67   671.99   752.83   840.89
                              845.47   848.47   957.81  1092.46  1117.10
                             1171.60  1192.49  1202.36  1251.43  1279.90
                             1306.17  1336.39  1347.39  1401.81  1415.22
                             1428.29  1449.89  1486.19  1506.89  1552.19
                             1558.75  1579.66  1595.78  1627.07  1665.09
                             1698.27  1735.96  1738.41  1754.21  1772.69
                             1791.40  1827.60  1864.31  1888.68  1914.60
                             1921.07  1956.24  1968.87  1992.31  2000.37
                             2006.25  2031.61  2058.22  2081.15  2082.81
                             2100.52  2167.85  2184.93  2190.96  2202.99
                             2216.14  2224.34  2232.35  2254.33  2308.28
                             2372.45  2447.75  4252.91  4264.96  4360.31
                             4376.60  4379.39  4393.36  4397.11  4428.52
                             4435.46  4436.05  4443.68  4468.13  4478.01
                             4494.12  4529.08  4551.75  4651.90  4995.03
                             5113.03

 Zero-point correction=                           0.303156 (Hartree/Particle)
 Thermal correction to Energy=                    0.317625
 Thermal correction to Enthalpy=                  0.318569
 Thermal correction to Gibbs Free Energy=         0.261312
 Sum of electronic and zero-point Energies=           -632.722035
 Sum of electronic and thermal Energies=              -632.707566
 Sum of electronic and thermal Enthalpies=            -632.706622
 Sum of electronic and thermal Free Energies=         -632.763878

                     E (Thermal)             CV                S
                      KCal/Mol        Cal/Mol-Kelvin    Cal/Mol-Kelvin
 Total                  199.313             55.657            120.507
 Electronic               0.000              0.000              0.000
 Translational            0.889              2.981             41.860
 Rotational               0.889              2.981             32.420
 Vibrational            197.535             49.696             46.227
 Vibration     1          0.594              1.981              5.331
 Vibration     2          0.595              1.979              4.917
 Vibration     3          0.600              1.964              3.929
 Vibration     4          0.604              1.948              3.432
 Vibration     5          0.610              1.930              3.052
 Vibration     6          0.622              1.891              2.547
 Vibration     7          0.630              1.865              2.313
 Vibration     8          0.641              1.829              2.065
 Vibration     9          0.644              1.821              2.019
 Vibration    10          0.657              1.781              1.809
 Vibration    11          0.673              1.733              1.612
 Vibration    12          0.677              1.718              1.560
 Vibration    13          0.691              1.679              1.434
 Vibration    14          0.729              1.570              1.156
 Vibration    15          0.751              1.511              1.035
 Vibration    16          0.798              1.387              0.832
 Vibration    17          0.807              1.365              0.802
 Vibration    18          0.824              1.323              0.746
 Vibration    19          0.878              1.199              0.602
 Vibration    20          0.941              1.065              0.477
 Vibration    21          0.945              1.058              0.471
 Vibration    22          0.947              1.054              0.468

 Optimization completed.
    -- Stationary point found.
 Normal termination of Gaussian 16 at Thu Dec 10 18:17:10 2020.

 ----------------------------------------------------------------------
 # B3LYP/6-311++G(d,p) empiricaldispersion=gd3bj scf=xqc pop=npa geom=c
 heck
 ----------------------------------------------------------------------

 ---------------------------------------
 CID_114802325_JID_5907_Energie_neutraal
 ---------------------------------------
 Structure from the checkpoint file:  "JID_5907.chk"
 Charge =  0 Multiplicity = 1

 SCF Done:  E(RB3LYP) =  -633.200635167     A.U. after   15 cycles
 Normal termination of Gaussian 16 at Thu Dec 10 18:21:26 2020.

 ----------------------------------------------------------------------
 # B3LYP/6-311++G(d,p) empiricaldispersion=gd3bj scf=xqc pop=npa geom=c
 heck
 ----------------------------------------------------------------------

 -------------------------------------
 CID_114802325_JID_5907_Energie_kation
 -------------------------------------
 Structure from the checkpoint file:  "JID_5907.chk"
 Charge =  1 Multiplicity = 2

 SCF Done:  E(UB3LYP) =  -632.924121747     A.U. after   27 cycles
 Normal termination of Gaussian 16 at Thu Dec 10 18:31:27 2020.
 Gaussian 16:  ES64L-G16RevA.03 25-Dec-2016

 ----------------------------------------------------------------------
 # B3LYP/6-311++G(d,p) empiricaldispersion=gd3bj scf=xqc pop=npa geom=c
 heck
 ----------------------------------------------------------------------

 ------------------------------------
 CID_114802325_JID_5907_Energie_anion
 ------------------------------------
 Structure from the checkpoint file:  "JID_5907.chk"
 Charge = -1 Multiplicity = 2

                         Standard orientation:
 ---------------------------------------------------------------------
 Center     Atomic      Atomic             Coordinates (Angstroms)
 Number     Number       Type             X           Y           Z
 ---------------------------------------------------------------------
      1          6           0       -2.355808    2.297339    0.367015
      2          6           0       -2.629546    0.833063    0.125589
      3          6           0       -1.616943   -0.161595    0.076684
      4          6           0       -2.048204   -1.502418    0.026558
      5          6           0       -3.405873   -1.791909   -0.031224
      6          7           0       -4.372202   -0.867750   -0.037256
      7          6           0       -3.954831    0.401210    0.051700
      8          7           0       -0.265756    0.147037    0.124197
      9          6           0        0.311124    1.294798   -0.605572
     10          6           0        1.749803    0.862283   -0.925084
     11          6           0        2.068905   -0.181128    0.157856
     12          6           0        0.730491   -0.914976    0.262783
     13          6           0        3.252137   -1.100828   -0.143890
     14          6           0        4.586023   -0.366378   -0.305843
     15          7           0        4.952340    0.341434    0.926802
     16          1           0       -3.288969    2.812206    0.615186
     17          1           0       -1.666571    2.432358    1.208668
     18          1           0       -1.920804    2.812156   -0.496562
     19          1           0       -1.334185   -2.316508    0.016354
     20          1           0       -3.731434   -2.830029   -0.083959
     21          1           0       -4.743215    1.153613    0.089279
     22          1           0        0.306436    2.198226    0.013782
     23          1           0       -0.264399    1.509793   -1.512934
     24          1           0        1.795304    0.384384   -1.911976
     25          1           0        2.440398    1.711124   -0.936669
     26          1           0        2.245846    0.334552    1.111134
     27          1           0        0.654993   -1.660718   -0.548025
     28          1           0        0.600761   -1.443216    1.213636
     29          1           0        3.355915   -1.832330    0.666794
     30          1           0        3.044063   -1.660426   -1.066947
     31          1           0        5.368984   -1.106770   -0.505728
     32          1           0        4.536954    0.285082   -1.197269
     33          1           0        5.907583    0.686239    0.852787
     34          1           0        4.368001    1.168441    1.036812
 ---------------------------------------------------------------------

 SCF Done:  E(UB3LYP) =  -633.192789509     A.U. after   32 cycles

 The electronic state is 2-A.
 Alpha  occ. eigenvalues --  -14.24060 -14.20895 -14.18895 -10.13562 -10.11284
 Alpha  occ. eigenvalues --  -10.11015 -10.10951 -10.10653 -10.09452 -10.09098
 Alpha  occ. eigenvalues --  -10.08383 -10.08138 -10.08048 -10.07259 -10.07011
 Alpha  occ. eigenvalues --   -0.86991  -0.84374  -0.78172  -0.73577  -0.69603
 Alpha  occ. eigenvalues --   -0.67997  -0.64880  -0.62035  -0.60529  -0.54958
 Alpha  occ. eigenvalues --   -0.52654  -0.51334  -0.49213  -0.47012  -0.43731
 Alpha  occ. eigenvalues --   -0.41482  -0.39958  -0.38996  -0.37224  -0.37059
 Alpha  occ. eigenvalues --   -0.36143  -0.34133  -0.33673  -0.32622  -0.32065
 Alpha  occ. eigenvalues --   -0.31817  -0.30833  -0.30109  -0.29234  -0.28898
 Alpha  occ. eigenvalues --   -0.27247  -0.26658  -0.26499  -0.23649  -0.23091
 Alpha  occ. eigenvalues --   -0.23050  -0.21358  -0.16966  -0.16655  -0.14301
 Alpha  occ. eigenvalues --   -0.12164   0.04027
 Alpha virt. eigenvalues --    0.06330   0.06557   0.07131   0.07302   0.07729
 Alpha virt. eigenvalues --    0.07927   0.08409   0.09520   0.09675   0.10096
 Alpha virt. eigenvalues --    0.10231   0.10625   0.11746   0.12453   0.12756

  Beta  occ. eigenvalues --  -14.24062 -14.20894 -14.18844 -10.13562 -10.11282
  Beta  occ. eigenvalues --  -10.11012 -10.10939 -10.10625 -10.09449 -10.09072
  Beta  occ. eigenvalues --  -10.08381 -10.08126 -10.08028 -10.07219 -10.07001
  Beta  occ. eigenvalues --   -0.86980  -0.84369  -0.78091  -0.73556  -0.69581
  Beta  occ. eigenvalues --   -0.67974  -0.64838  -0.61983  -0.60496  -0.54923
  Beta  occ. eigenvalues --   -0.52601  -0.51280  -0.49181  -0.46949  -0.43696
  Beta  occ. eigenvalues --   -0.41455  -0.39932  -0.38946  -0.37201  -0.36997
  Beta  occ. eigenvalues --   -0.36122  -0.34099  -0.33637  -0.32599  -0.32033
  Beta  occ. eigenvalues --   -0.31779  -0.30797  -0.30079  -0.29215  -0.28858
  Beta  occ. eigenvalues --   -0.27188  -0.26616  -0.26484  -0.23611  -0.23052
  Beta  occ. eigenvalues --   -0.23005  -0.21344  -0.16963  -0.16648  -0.14247
  Beta  occ. eigenvalues --   -0.12152
  Beta virt. eigenvalues --    0.06236   0.06869   0.07078   0.07236   0.07366
  Beta virt. eigenvalues --    0.08217   0.08425   0.08651   0.09766   0.10108
  Beta virt. eigenvalues --    0.10352   0.10797   0.11095   0.11890   0.12703

 Mulliken charges and spin densities:
               1          2
     1  C    0.667907  -1.533544
     2  C   -0.341808   0.839251
     3  C   -0.594559   0.369964
     4  C    0.840428  -0.124544
     5  C   -0.876095   0.188416
     6  N   -0.096103   0.010158
     7  C   -0.395689  -0.179164
     8  N    0.141604   0.161756
     9  C   -0.087682  -0.157023
    10  C    1.582348  -2.348695
    11  C   -0.223651   0.620392
    12  C   -0.231188  -0.366993
    13  C   -0.822758   0.673248
    14  C    1.402608  -2.011120
    15  N   -0.406758   0.035392
    16  H   -0.029328   0.174554
    17  H   -0.060909   0.244503
    18  H   -0.161199   0.330830
    19  H    0.091272   0.070959
    20  H    0.097233   0.051301
    21  H    0.100089   0.053836
    22  H   -0.142285   0.308399
    23  H   -0.083931   0.259348
    24  H   -0.037686   0.212305
    25  H   -0.541218   0.748684
    26  H    0.013152   0.189124
    27  H   -0.123195   0.266154
    28  H    0.100570   0.092430
    29  H    0.092778   0.042242
    30  H   -0.018849   0.128974
    31  H   -0.359686   0.532258
    32  H   -0.214868   0.348528
    33  H   -0.221632   0.470465
    34  H   -0.058912   0.297611
 Sum of Mulliken charges =  -1.00000   1.00000

 Dipole moment (field-independent basis, Debye):
    X=             -6.6277    Y=             -4.1048    Z=              0.1416  Tot=              7.7972
 Quadrupole moment (field-independent basis, Debye-Ang):
   XX=           -206.8156   YY=           -131.6417   ZZ=           -124.3478
   XY=            -13.6994   XZ=             -3.7385   YZ=              0.9087

 Summary of Natural Population Analysis:

                                       Natural Population
                Natural  -----------------------------------------------
    Atom  No    Charge         Core      Valence    Rydberg      Total
 -----------------------------------------------------------------------
      C    1   -0.29535      0.99964     2.28964    0.00607     3.29535
      C    2   -0.05303      0.99949     2.04443    0.00911     3.05303
      C    3    0.11604      0.99945     1.87414    0.01037     2.88396
      C    4   -0.14868      0.99953     2.14168    0.00747     3.14868
      C    5    0.02570      0.99960     1.96007    0.01463     2.97430
      N    6   -0.25483      0.99972     2.74240    0.01271     3.75483
      C    7    0.02873      0.99954     1.95782    0.01391     2.97127
      N    8   -0.25139      0.99965     2.74159    0.01014     3.75139
      C    9   -0.07892      0.99962     2.06837    0.01093     3.07892
      C   10   -0.19415      0.99961     2.18492    0.00961     3.19415
      C   11   -0.11679      0.99958     2.10566    0.01154     3.11679
      C   12   -0.07674      0.99960     2.06819    0.00895     3.07674
      C   13   -0.18773      0.99960     2.17979    0.00834     3.18773
      C   14   -0.08768      0.99964     2.07615    0.01189     3.08768
      N   15   -0.42574      0.99977     2.91501    0.01095     3.92574
      H   16    0.10092      0.00000     0.39815    0.00093     0.39908
      H   17    0.10735      0.00000     0.39148    0.00117     0.39265
      H   18    0.10733      0.00000     0.39142    0.00125     0.39267
      H   19    0.10614      0.00000     0.39278    0.00107     0.39386
      H   20    0.08675      0.00000     0.41202    0.00122     0.41325
      H   21    0.08576      0.00000     0.41265    0.00159     0.41424
      H   22    0.09775      0.00000     0.39993    0.00233     0.40225
      H   23    0.09548      0.00000     0.40320    0.00133     0.40452
      H   24    0.09646      0.00000     0.40189    0.00165     0.40354
      H   25    0.11148      0.00000     0.38577    0.00275     0.38852
      H   26    0.10130      0.00000     0.39654    0.00215     0.39870
      H   27    0.08604      0.00000     0.41229    0.00167     0.41396
      H   28    0.09930      0.00000     0.39938    0.00133     0.40070
      H   29    0.09890      0.00000     0.39976    0.00134     0.40110
      H   30    0.09543      0.00000     0.40329    0.00128     0.40457
      H   31    0.08981      0.00000     0.40902    0.00117     0.41019
      H   32    0.08043      0.00000     0.41724    0.00233     0.41957
      H   33    0.17831      0.00000     0.31871    0.00298     0.32169
      H   34    0.17560      0.00000     0.32144    0.00296     0.32440
 =======================================================================
   * Total *    0.00000     14.99404    40.81683    0.18913    56.00000

 Normal termination of Gaussian 16 at Thu Dec 10 18:43:07 2020.
