 Gaussian 16, Revision A.03,

 -----------------------------------------------------------
 # opt freq B3LYP/6-31G(d) empiricaldispersion=gd3bj scf=xqc
 -----------------------------------------------------------

 ------------------------------
 CID_45120540_JID_1466_neutraal
 ------------------------------
 Symbolic Z-matrix:
 Charge =  0 Multiplicity = 1

 SCF Done:  E(RB3LYP) =  -548.786485307     A.U. after   15 cycles
 SCF Done:  E(RB3LYP) =  -548.791549725     A.U. after   13 cycles
 SCF Done:  E(RB3LYP) =  -548.792006465     A.U. after   13 cycles
 SCF Done:  E(RB3LYP) =  -548.792185366     A.U. after   12 cycles
 SCF Done:  E(RB3LYP) =  -548.792547745     A.U. after   13 cycles
 SCF Done:  E(RB3LYP) =  -548.792674829     A.U. after   13 cycles
 SCF Done:  E(RB3LYP) =  -548.793101930     A.U. after   12 cycles
 SCF Done:  E(RB3LYP) =  -548.793166540     A.U. after   13 cycles
 SCF Done:  E(RB3LYP) =  -548.793392961     A.U. after   12 cycles
 SCF Done:  E(RB3LYP) =  -548.793464249     A.U. after   10 cycles
 SCF Done:  E(RB3LYP) =  -548.793550934     A.U. after    9 cycles
 SCF Done:  E(RB3LYP) =  -548.793551598     A.U. after    8 cycles
 SCF Done:  E(RB3LYP) =  -548.793552152     A.U. after    8 cycles
 SCF Done:  E(RB3LYP) =  -548.793552452     A.U. after    8 cycles
 Optimization completed.
    -- Stationary point found.
 Normal termination of Gaussian 16 at Tue Dec  8 20:08:25 2020.

 --------------------------------------------------------------------
 #N Geom=AllCheck Guess=TCheck SCRF=Check GenChk RB3LYP/6-31G(d) Freq
 --------------------------------------------------------------------

 Structure from the checkpoint file:  "JID_1466.chk"
 ------------------------------
 CID_45120540_JID_1466_neutraal
 ------------------------------
 Charge =  0 Multiplicity = 1

 SCF Done:  E(RB3LYP) =  -548.793552452     A.U. after    1 cycles

  Exact polarizability: 102.936  -2.545  79.183  13.641  -1.199  70.482
 Approx polarizability: 136.736  -8.615 125.054  31.071  -5.817 119.016

                      1                      2                      3
                      A                      A                      A
 Frequencies --     42.9932                55.4049                95.1093
 Red. masses --      3.8411                 3.4416                 4.9711
 Frc consts  --      0.0042                 0.0062                 0.0265
 IR Inten    --      1.7519                 2.1238                 1.6647

                      4                      5                      6
                      A                      A                      A
 Frequencies --    116.7250               143.4376               162.2960
 Red. masses --      2.5943                 4.9847                 5.6487
 Frc consts  --      0.0208                 0.0604                 0.0877
 IR Inten    --      1.0990                 5.1235                 7.2310

                      7                      8                      9
                      A                      A                      A
 Frequencies --    218.6238               274.1617               333.3944
 Red. masses --      2.2863                 1.3872                 2.8923
 Frc consts  --      0.0644                 0.0614                 0.1894
 IR Inten    --     15.5917                 3.5356                18.8237

                     10                     11                     12
                      A                      A                      A
 Frequencies --    362.4568               408.5011               436.5929
 Red. masses --      5.1224                 1.4262                 2.2898
 Frc consts  --      0.3965                 0.1402                 0.2572
 IR Inten    --      5.4260                33.5272                44.6645

                     13                     14                     15
                      A                      A                      A
 Frequencies --    491.7521               570.8485               606.0681
 Red. masses --      5.6186                 1.7747                 3.2520
 Frc consts  --      0.8005                 0.3407                 0.7038
 IR Inten    --      4.2243               108.1846                37.5051

                     16                     17                     18
                      A                      A                      A
 Frequencies --    638.7458               715.8674               762.4822
 Red. masses --      4.4022                 5.8612                 7.3622
 Frc consts  --      1.0582                 1.7697                 2.5219
 IR Inten    --     27.3172                11.4283                 6.0857

                     19                     20                     21
                      A                      A                      A
 Frequencies --    812.3565               817.2865               827.9880
 Red. masses --      3.4942                 2.2737                 2.6761
 Frc consts  --      1.3586                 0.8948                 1.0809
 IR Inten    --     12.3382                 1.8751                 5.7723

                     22                     23                     24
                      A                      A                      A
 Frequencies --    948.2798               999.1544              1043.7142
 Red. masses --      1.8043                 3.9107                 1.7277
 Frc consts  --      0.9559                 2.3002                 1.1089
 IR Inten    --     13.6492                 1.4273                 3.3938

                     25                     26                     27
                      A                      A                      A
 Frequencies --   1055.4219              1065.0641              1125.3446
 Red. masses --      2.5105                 2.9035                 3.5344
 Frc consts  --      1.6476                 1.9405                 2.6372
 IR Inten    --     27.2360                25.2966                50.1089

                     28                     29                     30
                      A                      A                      A
 Frequencies --   1158.5834              1198.0482              1209.0583
 Red. masses --      1.6671                 2.5331                 1.0637
 Frc consts  --      1.3184                 2.1422                 0.9161
 IR Inten    --      3.4939                19.2616                 0.4128

                     31                     32                     33
                      A                      A                      A
 Frequencies --   1269.8328              1317.2814              1344.0344
 Red. masses --      3.1834                 1.1920                 1.7532
 Frc consts  --      3.0243                 1.2187                 1.8659
 IR Inten    --     13.2937                14.5015                26.6569

                     34                     35                     36
                      A                      A                      A
 Frequencies --   1381.2787              1422.8462              1429.8711
 Red. masses --      1.5050                 2.2705                 2.0310
 Frc consts  --      1.6918                 2.7082                 2.4466
 IR Inten    --     65.8849                99.4560                34.8615

                     37                     38                     39
                      A                      A                      A
 Frequencies --   1443.9509              1495.6320              1518.9150
 Red. masses --      1.2767                 1.8629                 1.1051
 Frc consts  --      1.5684                 2.4552                 1.5021
 IR Inten    --      2.6848                73.0602                 9.6288

                     40                     41                     42
                      A                      A                      A
 Frequencies --   1523.4576              1528.5113              1545.0581
 Red. masses --      1.0449                 1.0707                 1.0863
 Frc consts  --      1.4289                 1.4738                 1.5278
 IR Inten    --      6.6801                 3.6031                 4.7668

                     43                     44                     45
                      A                      A                      A
 Frequencies --   1704.8827              1789.6764              1832.9125
 Red. masses --     10.6605                 9.0533                10.8893
 Frc consts  --     18.2565                17.0846                21.5542
 IR Inten    --      4.8027               373.3805               368.7728

                     46                     47                     48
                      A                      A                      A
 Frequencies --   3049.7240              3052.8856              3062.6089
 Red. masses --      1.0569                 1.0376                 1.0611
 Frc consts  --      5.7915                 5.6979                 5.8638
 IR Inten    --     29.9596                19.5239                22.4456

                     49                     50                     51
                      A                      A                      A
 Frequencies --   3081.4784              3099.5035              3123.8540
 Red. masses --      1.1083                 1.1019                 1.1016
 Frc consts  --      6.2003                 6.2370                 6.3336
 IR Inten    --     14.2784                 7.1031                37.7430

                     52                     53                     54
                      A                      A                      A
 Frequencies --   3137.6104              3585.5320              3658.9199
 Red. masses --      1.1039                 1.0756                 1.0793
 Frc consts  --      6.4027                 8.1474                 8.5132
 IR Inten    --     28.0582                24.1171                59.0626

 - Thermochemistry -
 -------------------
 Temperature   298.150 Kelvin.  Pressure   1.00000 Atm.
 Atom     1 has atomic number  6 and mass  12.00000

 Molecular mass:   155.06948 amu.
 Principal axes and moments of inertia in atomic units:
                           1         2         3
     Eigenvalues --  1113.825072254.969342619.58677
           X            0.99962  -0.02725  -0.00393
           Y            0.02738   0.99887   0.03883
           Z            0.00286  -0.03892   0.99924
 This molecule is an asymmetric top.
 Rotational symmetry number  1.
 Warning -- assumption of classical behavior for rotation
           may cause significant error
 Rotational temperatures (Kelvin)      0.07776     0.03841     0.03306
 Rotational constants (GHZ):           1.62031     0.80034     0.68894
 Zero-point vibrational energy     419267.3 (Joules/Mol)
                                  100.20729 (Kcal/Mol)
 Warning -- explicit consideration of  15 degrees of freedom as
           vibrations may cause significant error
 Vibrational temperatures:     61.86    79.72   136.84   167.94   206.37
          (Kelvin)            233.51   314.55   394.46   479.68   521.49
                              587.74   628.16   707.52   821.32   872.00
                              919.01  1029.97  1097.04  1168.80  1175.89
                             1191.29  1364.36  1437.56  1501.67  1518.52
                             1532.39  1619.12  1666.94  1723.72  1739.57
                             1827.01  1895.27  1933.77  1987.35  2047.16
                             2057.27  2077.52  2151.88  2185.38  2191.92
                             2199.19  2222.99  2452.95  2574.95  2637.15
                             4387.87  4392.42  4406.41  4433.56  4459.49
                             4494.53  4514.32  5158.78  5264.37

 Zero-point correction=                           0.159690 (Hartree/Particle)
 Thermal correction to Energy=                    0.170663
 Thermal correction to Enthalpy=                  0.171607
 Thermal correction to Gibbs Free Energy=         0.121900
 Sum of electronic and zero-point Energies=           -548.633862
 Sum of electronic and thermal Energies=              -548.622889
 Sum of electronic and thermal Enthalpies=            -548.621945
 Sum of electronic and thermal Free Energies=         -548.671652

                     E (Thermal)             CV                S
                      KCal/Mol        Cal/Mol-Kelvin    Cal/Mol-Kelvin
 Total                  107.093             38.781            104.618
 Electronic               0.000              0.000              0.000
 Translational            0.889              2.981             41.026
 Rotational               0.889              2.981             30.265
 Vibrational            105.315             32.819             33.326
 Vibration     1          0.595              1.980              5.116
 Vibration     2          0.596              1.975              4.615
 Vibration     3          0.603              1.953              3.552
 Vibration     4          0.608              1.935              3.154
 Vibration     5          0.616              1.910              2.758
 Vibration     6          0.622              1.889              2.523
 Vibration     7          0.646              1.813              1.970
 Vibration     8          0.676              1.721              1.570
 Vibration     9          0.715              1.609              1.244
 Vibration    10          0.736              1.550              1.112
 Vibration    11          0.773              1.452              0.932
 Vibration    12          0.797              1.390              0.837
 Vibration    13          0.847              1.268              0.679
 Vibration    14          0.927              1.094              0.503
 Vibration    15          0.965              1.019              0.439

                           ! Non-Optimized Parameters !
 Normal termination of Gaussian 16 at Tue Dec  8 20:11:49 2020.

 ----------------------------------------------------------------------
 # B3LYP/6-311++G(d,p) empiricaldispersion=gd3bj scf=xqc pop=npa geom=c
 heck
 ----------------------------------------------------------------------

 --------------------------------------
 CID_45120540_JID_1466_Energie_neutraal
 --------------------------------------
 Structure from the checkpoint file:  "JID_1466.chk"
 Charge =  0 Multiplicity = 1

 SCF Done:  E(RB3LYP) =  -548.960436513     A.U. after   15 cycles
 Normal termination of Gaussian 16 at Tue Dec  8 20:13:45 2020.

 ----------------------------------------------------------------------
 # B3LYP/6-311++G(d,p) empiricaldispersion=gd3bj scf=xqc pop=npa geom=c
 heck
 ----------------------------------------------------------------------

 ------------------------------------
 CID_45120540_JID_1466_Energie_kation
 ------------------------------------
 Structure from the checkpoint file:  "JID_1466.chk"
 Charge =  1 Multiplicity = 2

 SCF Done:  E(UB3LYP) =  -548.624542173     A.U. after   33 cycles
 SCF Done:  E(UB3LYP) =  -548.626131464     a.u. after   12 cycles
 Normal termination of Gaussian 16 at Tue Dec  8 20:41:10 2020.
 Gaussian 16:  ES64L-G16RevA.03 25-Dec-2016

 ----------------------------------------------------------------------
 # B3LYP/6-311++G(d,p) empiricaldispersion=gd3bj scf=xqc pop=npa geom=c
 heck
 ----------------------------------------------------------------------

 -----------------------------------
 CID_45120540_JID_1466_Energie_anion
 -----------------------------------
 Structure from the checkpoint file:  "JID_1466.chk"
 Charge = -1 Multiplicity = 2

                         Standard orientation:
 ---------------------------------------------------------------------
 Center     Atomic      Atomic             Coordinates (Angstroms)
 Number     Number       Type             X           Y           Z
 ---------------------------------------------------------------------
      1          6           0        3.310726   -1.028354   -0.845052
      2          6           0        1.952140   -0.839679   -0.176480
      3          7           0        1.756832    0.555927    0.205816
      4          6           0        0.584496    1.235577    0.294171
      5          8           0        0.492674    2.387461    0.695586
      6          6           0       -0.659501    0.481393   -0.110311
      7          7           0       -1.432587    0.853300   -1.059886
      8          6           0       -2.593515   -0.030162   -1.055309
      9          7           0       -2.367542   -0.971077    0.023506
     10          6           0       -1.186383   -0.711134    0.665735
     11          8           0       -0.679893   -1.296431    1.606667
     12          1           0        3.394235   -0.410119   -1.744651
     13          1           0        3.452473   -2.076767   -1.126306
     14          1           0        4.125971   -0.755160   -0.164201
     15          1           0        1.156229   -1.112845   -0.876266
     16          1           0        1.849317   -1.493911    0.697203
     17          1           0        2.549276    1.057835    0.590091
     18          1           0       -2.675737   -0.526353   -2.030757
     19          1           0       -3.496080    0.575335   -0.900724
     20          1           0       -3.002638   -1.699139    0.315010
 ---------------------------------------------------------------------

 SCF Done:  E(UB3LYP) =  -548.968025904     A.U. after   33 cycles
 SCF Done:  E(UB3LYP) =  -548.968025904     a.u. after    1 cycles

 The electronic state is 2-A.
 Alpha  occ. eigenvalues --  -18.93789 -18.93129 -14.19991 -14.18848 -14.12826
 Alpha  occ. eigenvalues --  -10.12154 -10.10591 -10.09141 -10.08330 -10.05891
 Alpha  occ. eigenvalues --  -10.02972  -0.89332  -0.88407  -0.82193  -0.78887
 Alpha  occ. eigenvalues --   -0.72028  -0.64089  -0.57822  -0.51699  -0.49816
 Alpha  occ. eigenvalues --   -0.47348  -0.41044  -0.36901  -0.36095  -0.34066
 Alpha  occ. eigenvalues --   -0.33793  -0.32701  -0.29610  -0.28956  -0.27257
 Alpha  occ. eigenvalues --   -0.26782  -0.25537  -0.25047  -0.24118  -0.23069
 Alpha  occ. eigenvalues --   -0.16351  -0.15055  -0.12321  -0.11895  -0.11464
 Alpha  occ. eigenvalues --   -0.08463   0.05272
 Alpha virt. eigenvalues --    0.07209   0.08812   0.09998   0.10978   0.11492
 Alpha virt. eigenvalues --    0.11758   0.12613   0.13912   0.14783   0.15751
 Alpha virt. eigenvalues --    0.16219   0.17347   0.17484   0.17992   0.19252

  Beta  occ. eigenvalues --  -18.93664 -18.92904 -14.19992 -14.18766 -14.12068
  Beta  occ. eigenvalues --  -10.12117 -10.10447 -10.09193 -10.08321 -10.05865
  Beta  occ. eigenvalues --  -10.02729  -0.89058  -0.88062  -0.81675  -0.78817
  Beta  occ. eigenvalues --   -0.71188  -0.64033  -0.57348  -0.51647  -0.49473
  Beta  occ. eigenvalues --   -0.46855  -0.40681  -0.36774  -0.35897  -0.33742
  Beta  occ. eigenvalues --   -0.33289  -0.32455  -0.29391  -0.28697  -0.27071
  Beta  occ. eigenvalues --   -0.26558  -0.25260  -0.24705  -0.23395  -0.22685
  Beta  occ. eigenvalues --   -0.14548  -0.13705  -0.11758  -0.11280  -0.10631
  Beta  occ. eigenvalues --   -0.07929
  Beta virt. eigenvalues --    0.07558   0.08778   0.10209   0.10989   0.11451
  Beta virt. eigenvalues --    0.11620   0.12333   0.12964   0.13982   0.14841
  Beta virt. eigenvalues --    0.15970   0.16492   0.17417   0.17440   0.17957

 Mulliken charges and spin densities:
               1          2
     1  C    0.326492  -0.975881
     2  C   -0.561788   0.451747
     3  N   -0.167139   0.006019
     4  C    0.196852  -0.014527
     5  O   -0.381122   0.029004
     6  C   -0.336481   0.176389
     7  N   -0.165848   0.357781
     8  C   -0.164240  -0.043835
     9  N   -0.252352   0.018849
    10  C    0.105816   0.148443
    11  O   -0.477331   0.080735
    12  H    0.035541   0.114404
    13  H   -0.145875   0.280517
    14  H   -0.093240   0.217053
    15  H    0.212564  -0.001150
    16  H    0.108655   0.075412
    17  H    0.293025  -0.024600
    18  H    0.130661   0.023748
    19  H    0.082947   0.079253
    20  H    0.252863   0.000641
 Sum of Mulliken charges =  -1.00000   1.00000

 Dipole moment (field-independent basis, Debye):
    X=             -0.7752    Y=             -3.0381    Z=             -1.5929  Tot=              3.5169
 Quadrupole moment (field-independent basis, Debye-Ang):
   XX=            -82.9610   YY=            -93.3042   ZZ=            -83.3951
   XY=              8.3410   XZ=              3.1405   YZ=              3.5086

 Summary of Natural Population Analysis:

                                       Natural Population
                Natural  -----------------------------------------------
    Atom  No    Charge         Core      Valence    Rydberg      Total
 -----------------------------------------------------------------------
      C    1   -0.28935      0.99967     2.28468    0.00500     3.28935
      C    2   -0.09222      0.99963     2.08056    0.01203     3.09222
      N    3   -0.31841      0.99966     2.80865    0.01009     3.81841
      C    4    0.34101      0.99963     1.63565    0.02371     2.65899
      O    5   -0.31186      0.99988     3.30609    0.00589     4.31186
      C    6    0.06369      0.99949     1.92025    0.01657     2.93631
      N    7   -0.11088      0.99967     2.59708    0.01413     3.61088
      C    8   -0.00843      0.99967     1.99659    0.01217     3.00843
      N    9   -0.32620      0.99968     2.81828    0.00825     3.82620
      C   10    0.33330      0.99964     1.64312    0.02394     2.66670
      O   11   -0.31630      0.99987     3.31027    0.00615     4.31630
      H   12    0.09772      0.00000     0.40106    0.00122     0.40228
      H   13    0.09912      0.00000     0.39993    0.00095     0.40088
      H   14    0.09252      0.00000     0.40613    0.00135     0.40748
      H   15    0.10343      0.00000     0.39461    0.00196     0.39657
      H   16    0.09757      0.00000     0.40100    0.00144     0.40243
      H   17    0.18254      0.00000     0.31420    0.00325     0.31746
      H   18    0.08747      0.00000     0.41093    0.00160     0.41253
      H   19    0.08933      0.00000     0.40848    0.00219     0.41067
      H   20    0.18594      0.00000     0.31084    0.00322     0.31406
 =======================================================================
   * Total *   -0.00000     10.99648    29.84841    0.15511    41.00000

 Normal termination of Gaussian 16 at Tue Dec  8 20:46:17 2020.
