 Gaussian 16, Revision A.03,

 -----------------------------------------------------------
 # opt freq B3LYP/6-31G(d) empiricaldispersion=gd3bj scf=xqc
 -----------------------------------------------------------

 ------------------------------
 CID_85442223_JID_8167_neutraal
 ------------------------------
 Symbolic Z-matrix:
 Charge =  0 Multiplicity = 1

 SCF Done:  E(RB3LYP) =  -910.762050123     A.U. after   16 cycles
 SCF Done:  E(RB3LYP) =  -910.765922751     A.U. after   14 cycles
 SCF Done:  E(RB3LYP) =  -910.766315116     A.U. after   14 cycles
 SCF Done:  E(RB3LYP) =  -910.766945779     A.U. after   13 cycles
 SCF Done:  E(RB3LYP) =  -910.766889643     A.U. after   14 cycles
 SCF Done:  E(RB3LYP) =  -910.766358426     A.U. after   15 cycles
 SCF Done:  E(RB3LYP) =  -910.766109918     A.U. after   15 cycles
 SCF Done:  E(RB3LYP) =  -910.767157325     A.U. after   11 cycles
 SCF Done:  E(RB3LYP) =  -910.767471155     A.U. after   14 cycles
 SCF Done:  E(RB3LYP) =  -910.767551861     A.U. after   11 cycles
 SCF Done:  E(RB3LYP) =  -910.767565370     A.U. after   12 cycles
 SCF Done:  E(RB3LYP) =  -910.767570066     A.U. after   10 cycles
 SCF Done:  E(RB3LYP) =  -910.767571104     A.U. after   10 cycles
 SCF Done:  E(RB3LYP) =  -910.767571172     A.U. after    8 cycles
 SCF Done:  E(RB3LYP) =  -910.767571178     A.U. after    7 cycles
 Optimization completed.
    -- Stationary point found.
 Normal termination of Gaussian 16 at Fri Dec 11 19:18:28 2020.

 --------------------------------------------------------------------
 #N Geom=AllCheck Guess=TCheck SCRF=Check GenChk RB3LYP/6-31G(d) Freq
 --------------------------------------------------------------------

 Structure from the checkpoint file:  "JID_8167.chk"
 ------------------------------
 CID_85442223_JID_8167_neutraal
 ------------------------------
 Charge =  0 Multiplicity = 1

 SCF Done:  E(RB3LYP) =  -910.767571178     A.U. after    1 cycles

  Exact polarizability: 187.210 -24.830 158.631  23.352   9.510 103.522
 Approx polarizability: 264.291 -60.892 272.090  56.993  15.629 196.451

                      1                      2                      3
                      A                      A                      A
 Frequencies --     22.3552                30.6596                37.1302
 Red. masses --      6.9570                 5.9492                 6.8508
 Frc consts  --      0.0020                 0.0033                 0.0056
 IR Inten    --      0.8866                 0.8848                 0.6717

                      4                      5                      6
                      A                      A                      A
 Frequencies --     65.0509                74.0256                99.4915
 Red. masses --      8.6189                 5.0880                 8.0377
 Frc consts  --      0.0215                 0.0164                 0.0469
 IR Inten    --      3.3791                 1.3428                 4.3547

                      7                      8                      9
                      A                      A                      A
 Frequencies --    113.1029               125.7308               141.2966
 Red. masses --      3.2550                 3.2820                 1.3974
 Frc consts  --      0.0245                 0.0306                 0.0164
 IR Inten    --      5.4876                 0.6438                 0.2649

                     10                     11                     12
                      A                      A                      A
 Frequencies --    164.6536               190.8861               221.6239
 Red. masses --      4.0381                 4.1640                 3.9744
 Frc consts  --      0.0645                 0.0894                 0.1150
 IR Inten    --      2.3350                 3.9439                 2.0176

                     13                     14                     15
                      A                      A                      A
 Frequencies --    243.4578               300.1193               308.5543
 Red. masses --      7.8451                 8.8012                 4.3288
 Frc consts  --      0.2740                 0.4671                 0.2428
 IR Inten    --      0.1951                 1.3132                26.5838

                     16                     17                     18
                      A                      A                      A
 Frequencies --    334.6307               402.3199               426.0970
 Red. masses --      5.6246                 6.2406                 3.1806
 Frc consts  --      0.3711                 0.5951                 0.3402
 IR Inten    --      3.5625                 0.6797                 0.8891

                     19                     20                     21
                      A                      A                      A
 Frequencies --    432.7185               502.0902               516.8939
 Red. masses --      8.0273                 3.1136                 7.5633
 Frc consts  --      0.8856                 0.4625                 1.1906
 IR Inten    --      4.7164                14.5389                11.3901

                     22                     23                     24
                      A                      A                      A
 Frequencies --    535.3330               559.4603               575.7779
 Red. masses --      6.6183                 1.4178                 3.7891
 Frc consts  --      1.1175                 0.2615                 0.7401
 IR Inten    --      2.6408                93.0133                42.9101

                     25                     26                     27
                      A                      A                      A
 Frequencies --    647.5020               655.1395               690.7668
 Red. masses --      6.3412                 3.1513                 5.5415
 Frc consts  --      1.5664                 0.7969                 1.5579
 IR Inten    --      7.7815                28.2689                18.9795

                     28                     29                     30
                      A                      A                      A
 Frequencies --    704.3008               734.2921               757.3875
 Red. masses --      4.3474                 5.9591                 5.8107
 Frc consts  --      1.2706                 1.8931                 1.9639
 IR Inten    --      4.7454                 9.9280                27.4456

                     31                     32                     33
                      A                      A                      A
 Frequencies --    776.9346               835.7023               843.4580
 Red. masses --      8.4942                 1.4530                 2.5930
 Frc consts  --      3.0209                 0.5979                 1.0869
 IR Inten    --     30.6496                 2.8466                29.4286

                     34                     35                     36
                      A                      A                      A
 Frequencies --    867.2571               885.5594               887.4506
 Red. masses --      2.9787                 4.3489                 3.7094
 Frc consts  --      1.3200                 2.0094                 1.7212
 IR Inten    --     42.7439                13.0520                20.5127

                     37                     38                     39
                      A                      A                      A
 Frequencies --    907.1184               957.1008               976.3543
 Red. masses --      2.4740                 3.7584                 1.3335
 Frc consts  --      1.1994                 2.0285                 0.7490
 IR Inten    --      8.4850                 7.4289                 0.5413

                     40                     41                     42
                      A                      A                      A
 Frequencies --    986.9183              1026.3382              1034.5374
 Red. masses --      1.3125                 1.0946                 2.7260
 Frc consts  --      0.7532                 0.6793                 1.7190
 IR Inten    --      0.4028                52.9331                 0.6201

                     43                     44                     45
                      A                      A                      A
 Frequencies --   1078.9664              1141.2146              1144.2934
 Red. masses --      7.1945                 2.6147                 1.2896
 Frc consts  --      4.9348                 2.0063                 0.9949
 IR Inten    --     67.7653                72.1033                 9.1900

                     46                     47                     48
                      A                      A                      A
 Frequencies --   1186.4729              1216.2300              1220.5507
 Red. masses --      1.2716                 1.2927                 1.4650
 Frc consts  --      1.0547                 1.1266                 1.2859
 IR Inten    --      0.7131                17.6866                15.7019

                     49                     50                     51
                      A                      A                      A
 Frequencies --   1264.3697              1277.4076              1311.4606
 Red. masses --      2.1480                 1.6473                 3.5340
 Frc consts  --      2.0231                 1.5837                 3.5812
 IR Inten    --    163.4495                56.4782               693.4034

                     52                     53                     54
                      A                      A                      A
 Frequencies --   1329.8891              1338.4212              1363.3571
 Red. masses --      1.3278                 1.4431                 5.0747
 Frc consts  --      1.3836                 1.5231                 5.5575
 IR Inten    --      3.7104                29.3796               387.3408

                     55                     56                     57
                      A                      A                      A
 Frequencies --   1375.5778              1400.0966              1447.2017
 Red. masses --      7.6539                10.4857                 2.5552
 Frc consts  --      8.5331                12.1106                 3.1531
 IR Inten    --     43.7632               247.8018                 8.2564

                     58                     59                     60
                      A                      A                      A
 Frequencies --   1494.5157              1509.8496              1512.6291
 Red. masses --      1.2147                 2.1343                 1.0476
 Frc consts  --      1.5986                 2.8666                 1.4122
 IR Inten    --     13.7372                25.3982                 6.8003

                     61                     62                     63
                      A                      A                      A
 Frequencies --   1524.2035              1551.2441              1619.1471
 Red. masses --      1.0486                 2.6845                 9.5138
 Frc consts  --      1.4353                 3.8060                14.6953
 IR Inten    --      7.6426                92.4197                97.4137

                     64                     65                     66
                      A                      A                      A
 Frequencies --   1660.1781              1671.0544              1703.3215
 Red. masses --      5.9302                 8.9046                 7.1730
 Frc consts  --      9.6301                14.6502                12.2614
 IR Inten    --    154.6224               103.2949                10.2804

                     67                     68                     69
                      A                      A                      A
 Frequencies --   1777.3089              1810.7667              3078.7438
 Red. masses --      8.2420                10.4082                 1.0296
 Frc consts  --     15.3394                20.1071                 5.7498
 IR Inten    --    423.3999               197.8455                29.9016

                     70                     71                     72
                      A                      A                      A
 Frequencies --   3154.3150              3188.7169              3203.5353
 Red. masses --      1.1077                 1.1072                 1.0908
 Frc consts  --      6.4935                 6.6333                 6.5957
 IR Inten    --     17.8807                14.3767                 6.5544

                     73                     74                     75
                      A                      A                      A
 Frequencies --   3225.6424              3232.1944              3239.4259
 Red. masses --      1.0959                 1.0861                 1.0896
 Frc consts  --      6.7179                 6.6849                 6.7371
 IR Inten    --      1.8776                 0.2594                 4.3597

                     76                     77                     78
                      A                      A                      A
 Frequencies --   3256.2236              3257.1386              3577.0007
 Red. masses --      1.0926                 1.0938                 1.0755
 Frc consts  --      6.8253                 6.8371                 8.1076
 IR Inten    --      1.3548                 2.8032                44.7380

 - Thermochemistry -
 -------------------
 Temperature   298.150 Kelvin.  Pressure   1.00000 Atm.
 Atom     1 has atomic number  6 and mass  12.00000

 Molecular mass:   250.05897 amu.
 Principal axes and moments of inertia in atomic units:
                           1         2         3
     Eigenvalues --  3179.955308202.57833**********
           X            0.99955   0.02926   0.00634
           Y           -0.02936   0.99944   0.01590
           Z           -0.00587  -0.01607   0.99985
 This molecule is an asymmetric top.
 Rotational symmetry number  1.
 Warning -- assumption of classical behavior for rotation
           may cause significant error
 Rotational temperatures (Kelvin)      0.02724     0.01056     0.00827
 Rotational constants (GHZ):           0.56754     0.22002     0.17222
 Zero-point vibrational energy     543943.4 (Joules/Mol)
                                  130.00560 (Kcal/Mol)
 Warning -- explicit consideration of  24 degrees of freedom as
           vibrations may cause significant error
 Vibrational temperatures:     32.16    44.11    53.42    93.59   106.51
          (Kelvin)            143.15   162.73   180.90   203.29   236.90
                              274.64   318.87   350.28   431.80   443.94
                              481.46   578.85   613.06   622.59   722.40
                              743.70   770.22   804.94   828.42   931.61
                              942.60   993.86  1013.33  1056.48  1089.71
                             1117.84  1202.39  1213.55  1247.79  1274.12
                             1276.84  1305.14  1377.05  1404.76  1419.96
                             1476.67  1488.47  1552.39  1641.95  1646.38
                             1707.07  1749.88  1756.10  1819.15  1837.90
                             1886.90  1913.41  1925.69  1961.57  1979.15
                             2014.43  2082.20  2150.27  2172.34  2176.34
                             2192.99  2231.89  2329.59  2388.63  2404.27
                             2450.70  2557.15  2605.29  4429.63  4538.36
                             4587.85  4609.17  4640.98  4650.41  4660.81
                             4684.98  4686.30  5146.51

 Zero-point correction=                           0.207177 (Hartree/Particle)
 Thermal correction to Energy=                    0.223871
 Thermal correction to Enthalpy=                  0.224815
 Thermal correction to Gibbs Free Energy=         0.159746
 Sum of electronic and zero-point Energies=           -910.560394
 Sum of electronic and thermal Energies=              -910.543701
 Sum of electronic and thermal Enthalpies=            -910.542756
 Sum of electronic and thermal Free Energies=         -910.607825

                     E (Thermal)             CV                S
                      KCal/Mol        Cal/Mol-Kelvin    Cal/Mol-Kelvin
 Total                  140.481             59.928            136.948
 Electronic               0.000              0.000              0.000
 Translational            0.889              2.981             42.450
 Rotational               0.889              2.981             33.968
 Vibrational            138.703             53.967             60.530
 Vibration     1          0.593              1.985              6.413
 Vibration     2          0.594              1.984              5.786
 Vibration     3          0.594              1.982              5.407
 Vibration     4          0.597              1.971              4.298
 Vibration     5          0.599              1.966              4.043
 Vibration     6          0.604              1.949              3.464
 Vibration     7          0.607              1.939              3.215
 Vibration     8          0.611              1.927              3.010
 Vibration     9          0.615              1.912              2.786
 Vibration    10          0.623              1.886              2.496
 Vibration    11          0.634              1.852              2.219
 Vibration    12          0.648              1.808              1.946
 Vibration    13          0.659              1.774              1.777
 Vibration    14          0.693              1.673              1.416
 Vibration    15          0.698              1.657              1.370
 Vibration    16          0.716              1.606              1.238
 Vibration    17          0.768              1.465              0.954
 Vibration    18          0.788              1.413              0.872
 Vibration    19          0.794              1.399              0.850
 Vibration    20          0.857              1.245              0.653
 Vibration    21          0.872              1.213              0.617
 Vibration    22          0.890              1.172              0.575
 Vibration    23          0.915              1.119              0.525
 Vibration    24          0.932              1.084              0.493

 Optimization completed.
    -- Stationary point found.
 Normal termination of Gaussian 16 at Fri Dec 11 19:27:20 2020.

 ----------------------------------------------------------------------
 # B3LYP/6-311++G(d,p) empiricaldispersion=gd3bj scf=xqc pop=npa geom=c
 heck
 ----------------------------------------------------------------------

 --------------------------------------
 CID_85442223_JID_8167_Energie_neutraal
 --------------------------------------
 Structure from the checkpoint file:  "JID_8167.chk"
 Charge =  0 Multiplicity = 1

 SCF Done:  E(RB3LYP) =  -911.033684578     A.U. after   16 cycles
 Normal termination of Gaussian 16 at Fri Dec 11 19:31:27 2020.

 ----------------------------------------------------------------------
 # B3LYP/6-311++G(d,p) empiricaldispersion=gd3bj scf=xqc pop=npa geom=c
 heck
 ----------------------------------------------------------------------

 ------------------------------------
 CID_85442223_JID_8167_Energie_kation
 ------------------------------------
 Structure from the checkpoint file:  "JID_8167.chk"
 Charge =  1 Multiplicity = 2

 SCF Done:  E(UB3LYP) =  -910.698931077     A.U. after   33 cycles
 SCF Done:  E(UB3LYP) =  -910.698931077     a.u. after    1 cycles
 Normal termination of Gaussian 16 at Fri Dec 11 19:43:27 2020.
 Gaussian 16:  ES64L-G16RevA.03 25-Dec-2016

 ----------------------------------------------------------------------
 # B3LYP/6-311++G(d,p) empiricaldispersion=gd3bj scf=xqc pop=npa geom=c
 heck
 ----------------------------------------------------------------------

 -----------------------------------
 CID_85442223_JID_8167_Energie_anion
 -----------------------------------
 Structure from the checkpoint file:  "JID_8167.chk"
 Charge = -1 Multiplicity = 2

                         Standard orientation:
 ---------------------------------------------------------------------
 Center     Atomic      Atomic             Coordinates (Angstroms)
 Number     Number       Type             X           Y           Z
 ---------------------------------------------------------------------
      1          6           0       -4.561960   -2.533493   -0.362830
      2          8           0       -3.793656   -1.319263   -0.360452
      3          6           0       -2.839837   -1.248731    0.591424
      4          8           0       -2.617156   -2.129724    1.396777
      5          6           0       -2.075599    0.021523    0.548661
      6          6           0       -2.306771    1.009675   -0.324106
      7          6           0       -1.645983    2.343820   -0.271138
      8          8           0       -2.305843    3.357623   -0.444592
      9          7           0       -0.306146    2.434473    0.078299
     10          6           0        0.734812    1.493347    0.004594
     11          6           0        1.816436    1.632371    0.889470
     12          6           0        2.886898    0.750479    0.839249
     13          6           0        2.865659   -0.281402   -0.096246
     14          6           0        1.807429   -0.433860   -0.990455
     15          6           0        0.748609    0.461811   -0.948925
     16          7           0        3.987306   -1.220730   -0.149425
     17          8           0        4.914532   -1.048944    0.642653
     18          8           0        3.936231   -2.125352   -0.983334
     19          1           0       -5.276539   -2.424297   -1.178308
     20          1           0       -5.079754   -2.658190    0.591494
     21          1           0       -3.911653   -3.395856   -0.530123
     22          1           0       -1.297562    0.086812    1.301884
     23          1           0       -3.118710    0.936964   -1.040041
     24          1           0       -0.040431    3.387808    0.300328
     25          1           0        1.803961    2.429625    1.626652
     26          1           0        3.726617    0.839938    1.516473
     27          1           0        1.837203   -1.235637   -1.717171
     28          1           0       -0.062275    0.368668   -1.659917
 ---------------------------------------------------------------------

 SCF Done:  E(UB3LYP) =  -911.094559455     A.U. after   25 cycles

 The electronic state is 2-A.
 Alpha  occ. eigenvalues --  -19.06889 -19.00175 -19.00165 -18.99911 -18.97888
 Alpha  occ. eigenvalues --  -14.38697 -14.24489 -10.18822 -10.16221 -10.14104
 Alpha  occ. eigenvalues --  -10.11693 -10.09955 -10.07875 -10.07668 -10.07605
 Alpha  occ. eigenvalues --  -10.07441 -10.07363 -10.07011  -1.07964  -1.00690
 Alpha  occ. eigenvalues --   -0.93542  -0.91502  -0.90789  -0.83637  -0.75929
 Alpha  occ. eigenvalues --   -0.69811  -0.67247  -0.65550  -0.63636  -0.58071
 Alpha  occ. eigenvalues --   -0.55395  -0.52071  -0.48918  -0.47269  -0.46359
 Alpha  occ. eigenvalues --   -0.44201  -0.41365  -0.40971  -0.39612  -0.39300
 Alpha  occ. eigenvalues --   -0.39158  -0.37673  -0.35995  -0.35019  -0.34423
 Alpha  occ. eigenvalues --   -0.33626  -0.33097  -0.31981  -0.31030  -0.30583
 Alpha  occ. eigenvalues --   -0.29830  -0.28637  -0.26866  -0.26379  -0.25452
 Alpha  occ. eigenvalues --   -0.21363  -0.20627  -0.18522  -0.18226  -0.17773
 Alpha  occ. eigenvalues --   -0.17232  -0.16038  -0.15389  -0.15197  -0.12834
 Alpha  occ. eigenvalues --   -0.00622
 Alpha virt. eigenvalues --    0.02625   0.06605   0.07855   0.08186   0.09454
 Alpha virt. eigenvalues --    0.09894   0.10147   0.10418   0.10960   0.11795
 Alpha virt. eigenvalues --    0.12365   0.12855   0.13251   0.13757   0.14373

  Beta  occ. eigenvalues --  -19.06861 -18.99904 -18.99884 -18.99738 -18.97595
  Beta  occ. eigenvalues --  -14.38351 -14.24571 -10.18758 -10.16094 -10.14105
  Beta  occ. eigenvalues --  -10.11496 -10.09907 -10.07918 -10.07581 -10.07549
  Beta  occ. eigenvalues --  -10.07469 -10.07240 -10.06861  -1.07372  -1.00570
  Beta  occ. eigenvalues --   -0.93101  -0.91255  -0.90270  -0.83491  -0.75771
  Beta  occ. eigenvalues --   -0.69440  -0.66903  -0.65432  -0.63509  -0.57535
  Beta  occ. eigenvalues --   -0.54950  -0.51957  -0.48637  -0.47147  -0.46199
  Beta  occ. eigenvalues --   -0.44072  -0.41006  -0.40841  -0.39119  -0.38932
  Beta  occ. eigenvalues --   -0.37879  -0.37392  -0.35726  -0.34935  -0.34224
  Beta  occ. eigenvalues --   -0.33473  -0.33055  -0.31745  -0.30453  -0.30040
  Beta  occ. eigenvalues --   -0.29651  -0.28270  -0.26748  -0.25942  -0.25374
  Beta  occ. eigenvalues --   -0.20872  -0.19978  -0.18065  -0.17154  -0.16946
  Beta  occ. eigenvalues --   -0.16388  -0.15451  -0.15092  -0.14670  -0.12317
  Beta virt. eigenvalues --    0.04096   0.05381   0.06601   0.07882   0.08336
  Beta virt. eigenvalues --    0.09460   0.10023   0.10366   0.10558   0.11439
  Beta virt. eigenvalues --    0.12370   0.12396   0.12886   0.13378   0.13901

 Mulliken charges and spin densities:
               1          2
     1  C   -0.249647   0.000193
     2  O   -0.121104   0.005257
     3  C   -0.411140   0.069507
     4  O   -0.300348   0.053447
     5  C    0.342737   0.090586
     6  C   -0.134125   0.115185
     7  C   -0.253173   0.059596
     8  O   -0.362472   0.101519
     9  N   -0.161991  -0.052930
    10  C   -0.349391   0.115984
    11  C   -0.498061  -0.004119
    12  C    0.074159   0.100084
    13  C   -0.424636  -0.017065
    14  C   -0.123813   0.073743
    15  C    0.451545  -0.039080
    16  N   -0.239023   0.114331
    17  O   -0.128038   0.102819
    18  O   -0.114122   0.106193
    19  H    0.129097  -0.000120
    20  H    0.165096   0.000614
    21  H    0.169220   0.001093
    22  H    0.216616  -0.008341
    23  H    0.242190  -0.002797
    24  H    0.285935   0.011788
    25  H    0.144359   0.004370
    26  H    0.229481  -0.005082
    27  H    0.233195  -0.003997
    28  H    0.187456   0.007222
 Sum of Mulliken charges =  -1.00000   1.00000

 Dipole moment (field-independent basis, Debye):
    X=             -5.3072    Y=              1.4481    Z=             -0.7531  Tot=              5.5525
 Quadrupole moment (field-independent basis, Debye-Ang):
   XX=           -174.7183   YY=           -136.6027   ZZ=           -112.2552
   XY=             33.8744   XZ=              6.0910   YZ=              9.3640

 Summary of Natural Population Analysis:

                                       Natural Population
                Natural  -----------------------------------------------
    Atom  No    Charge         Core      Valence    Rydberg      Total
 -----------------------------------------------------------------------
      C    1   -0.10518      0.99961     2.09722    0.00835     3.10518
      O    2   -0.28136      0.99986     3.27274    0.00876     4.28136
      C    3    0.39207      0.99967     1.58478    0.02348     2.60793
      O    4   -0.29137      0.99987     3.28552    0.00597     4.29137
      C    5   -0.10334      0.99949     2.09465    0.00920     3.10334
      C    6   -0.08711      0.99950     2.07856    0.00904     3.08711
      C    7    0.34034      0.99966     1.63857    0.02144     2.65966
      O    8   -0.28229      0.99988     3.27614    0.00627     4.28229
      N    9   -0.32479      0.99965     2.81447    0.01067     3.82479
      C   10    0.11651      0.99948     1.87433    0.00968     2.88349
      C   11   -0.12875      0.99954     2.12103    0.00818     3.12875
      C   12   -0.07313      0.99954     2.06408    0.00952     3.07313
      C   13    0.03472      0.99939     1.95467    0.01121     2.96528
      C   14   -0.07499      0.99953     2.06595    0.00950     3.07499
      C   15   -0.12165      0.99953     2.11429    0.00782     3.12165
      N   16    0.27640      0.99972     2.19648    0.02740     3.22360
      O   17   -0.19962      0.99990     3.19202    0.00770     4.19962
      O   18   -0.19622      0.99990     3.18865    0.00767     4.19622
      H   19    0.08644      0.00000     0.41276    0.00080     0.41356
      H   20    0.08886      0.00000     0.40999    0.00115     0.41114
      H   21    0.09021      0.00000     0.40866    0.00114     0.40979
      H   22    0.10529      0.00000     0.39345    0.00125     0.39471
      H   23    0.10720      0.00000     0.39177    0.00103     0.39280
      H   24    0.19589      0.00000     0.30248    0.00163     0.30411
      H   25    0.09806      0.00000     0.40094    0.00100     0.40194
      H   26    0.11458      0.00000     0.38419    0.00123     0.38542
      H   27    0.11564      0.00000     0.38316    0.00120     0.38436
      H   28    0.10758      0.00000     0.39121    0.00121     0.39242
 =======================================================================
   * Total *    0.00000     17.99372    46.79275    0.21353    65.00000

 Normal termination of Gaussian 16 at Fri Dec 11 19:52:42 2020.
