 Gaussian 16, Revision A.03,

 -----------------------------------------------------------
 # opt freq B3LYP/6-31G(d) empiricaldispersion=gd3bj scf=xqc
 -----------------------------------------------------------

 ------------------------------
 CID_82618038_JID_5053_neutraal
 ------------------------------
 Symbolic Z-matrix:
 Charge =  0 Multiplicity = 1

 SCF Done:  E(RB3LYP) =  -1031.58959133     A.U. after   14 cycles
 SCF Done:  E(RB3LYP) =  -1031.59629663     A.U. after   12 cycles
 SCF Done:  E(RB3LYP) =  -1031.59707011     A.U. after   12 cycles
 SCF Done:  E(RB3LYP) =  -1031.59721954     A.U. after   11 cycles
 SCF Done:  E(RB3LYP) =  -1031.59726139     A.U. after   11 cycles
 SCF Done:  E(RB3LYP) =  -1031.59728674     A.U. after   10 cycles
 SCF Done:  E(RB3LYP) =  -1031.59730777     A.U. after   11 cycles
 SCF Done:  E(RB3LYP) =  -1031.59731977     A.U. after   11 cycles
 SCF Done:  E(RB3LYP) =  -1031.59732433     A.U. after   10 cycles
 SCF Done:  E(RB3LYP) =  -1031.59732971     A.U. after   10 cycles
 SCF Done:  E(RB3LYP) =  -1031.59733069     A.U. after   10 cycles
 SCF Done:  E(RB3LYP) =  -1031.59733124     A.U. after    8 cycles
 SCF Done:  E(RB3LYP) =  -1031.59733129     A.U. after    8 cycles
 SCF Done:  E(RB3LYP) =  -1031.59733135     A.U. after    7 cycles
 SCF Done:  E(RB3LYP) =  -1031.59733134     A.U. after    6 cycles
 Optimization completed.
    -- Stationary point found.
 Normal termination of Gaussian 16 at Thu Dec 10 14:46:02 2020.

 --------------------------------------------------------------------
 #N Geom=AllCheck Guess=TCheck SCRF=Check GenChk RB3LYP/6-31G(d) Freq
 --------------------------------------------------------------------

 Structure from the checkpoint file:  "JID_5053.chk"
 ------------------------------
 CID_82618038_JID_5053_neutraal
 ------------------------------
 Charge =  0 Multiplicity = 1

 SCF Done:  E(RB3LYP) =  -1031.59733134     A.U. after    1 cycles

  Exact polarizability: 191.010  -2.744 137.502   0.274  -0.323  95.071
 Approx polarizability: 254.928   4.860 234.634  -1.298   2.005 154.157

                      1                      2                      3
                      A                      A                      A
 Frequencies --     14.7077                57.1645                90.3970
 Red. masses --      3.2821                 5.3836                 3.6825
 Frc consts  --      0.0004                 0.0104                 0.0177
 IR Inten    --      0.8316                 0.5541                 2.7962

                      4                      5                      6
                      A                      A                      A
 Frequencies --    143.3624               158.4421               196.7604
 Red. masses --      5.1317                 4.0022                 2.5268
 Frc consts  --      0.0621                 0.0592                 0.0576
 IR Inten    --      0.8631                 4.4911                 1.6728

                      7                      8                      9
                      A                      A                      A
 Frequencies --    222.9049               248.4162               259.6434
 Red. masses --      3.7251                 1.2660                 3.5251
 Frc consts  --      0.1091                 0.0460                 0.1400
 IR Inten    --      3.8504                 5.7661                 0.6885

                     10                     11                     12
                      A                      A                      A
 Frequencies --    282.9529               303.7673               313.7057
 Red. masses --      1.1961                 1.6295                 1.6040
 Frc consts  --      0.0564                 0.0886                 0.0930
 IR Inten    --      1.0666                13.4230                20.7508

                     13                     14                     15
                      A                      A                      A
 Frequencies --    318.0927               369.1176               382.8435
 Red. masses --      2.4748                 3.6469                 3.0878
 Frc consts  --      0.1475                 0.2928                 0.2667
 IR Inten    --      0.8435                 3.7155                30.9618

                     16                     17                     18
                      A                      A                      A
 Frequencies --    401.2890               441.7872               455.9410
 Red. masses --      3.4019                 3.7456                 3.3746
 Frc consts  --      0.3228                 0.4307                 0.4133
 IR Inten    --      7.1202                23.6256                 8.6115

                     19                     20                     21
                      A                      A                      A
 Frequencies --    460.1112               509.3553               520.6992
 Red. masses --      3.6702                 3.7610                 3.9233
 Frc consts  --      0.4578                 0.5749                 0.6267
 IR Inten    --      1.4839                 4.7055                23.1453

                     22                     23                     24
                      A                      A                      A
 Frequencies --    546.1383               591.6216               613.5036
 Red. masses --      7.0441                 3.9802                 3.7866
 Frc consts  --      1.2379                 0.8208                 0.8397
 IR Inten    --     13.9450                12.2700                24.4589

                     25                     26                     27
                      A                      A                      A
 Frequencies --    633.2870               714.0076               738.7791
 Red. masses --      5.0593                 3.5074                 4.2604
 Frc consts  --      1.1955                 1.0535                 1.3700
 IR Inten    --     24.5742                22.2887                 1.5351

                     28                     29                     30
                      A                      A                      A
 Frequencies --    759.4966               823.6908               840.5420
 Red. masses --      3.5974                 3.3155                 1.4795
 Frc consts  --      1.2226                 1.3253                 0.6158
 IR Inten    --     13.7060                 9.9344                14.9795

                     31                     32                     33
                      A                      A                      A
 Frequencies --    878.0023               909.6931               937.2277
 Red. masses --      2.0919                 2.3887                 1.7070
 Frc consts  --      0.9501                 1.1647                 0.8835
 IR Inten    --     36.2292                46.8239                23.0526

                     34                     35                     36
                      A                      A                      A
 Frequencies --    941.3964               953.1799               961.7208
 Red. masses --      1.4626                 1.3310                 1.3244
 Frc consts  --      0.7637                 0.7125                 0.7217
 IR Inten    --     31.6334                 9.9133                 2.0065

                     37                     38                     39
                      A                      A                      A
 Frequencies --    982.3133               998.2333              1011.6749
 Red. masses --      1.6873                 2.3239                 1.6004
 Frc consts  --      0.9593                 1.3643                 0.9651
 IR Inten    --      1.9289                 0.4450                 2.6039

                     40                     41                     42
                      A                      A                      A
 Frequencies --   1043.1014              1068.2374              1098.2936
 Red. masses --      1.3241                 6.2523                 1.6395
 Frc consts  --      0.8488                 4.2037                 1.1652
 IR Inten    --      6.9161                16.7808                28.2429

                     43                     44                     45
                      A                      A                      A
 Frequencies --   1112.5808              1136.7549              1155.7038
 Red. masses --      3.5761                 1.8338                 1.2876
 Frc consts  --      2.6081                 1.3961                 1.0133
 IR Inten    --     95.0767                23.1391                29.6756

                     46                     47                     48
                      A                      A                      A
 Frequencies --   1192.4383              1201.2510              1215.2172
 Red. masses --      1.9007                 1.4305                 2.1606
 Frc consts  --      1.5923                 1.2162                 1.8799
 IR Inten    --     66.4132                23.1723                31.0300

                     49                     50                     51
                      A                      A                      A
 Frequencies --   1230.2790              1276.2496              1292.9193
 Red. masses --      2.1691                 2.4162                 1.9562
 Frc consts  --      1.9343                 2.3188                 1.9267
 IR Inten    --      8.4462                11.6803                61.1771

                     52                     53                     54
                      A                      A                      A
 Frequencies --   1299.6277              1317.8043              1338.8170
 Red. masses --      1.4664                 3.2187                 1.6611
 Frc consts  --      1.4593                 3.2933                 1.7543
 IR Inten    --     12.2658               109.9277                 5.8202

                     55                     56                     57
                      A                      A                      A
 Frequencies --   1358.9517              1368.3715              1424.3433
 Red. masses --      2.3994                 3.7640                 1.2368
 Frc consts  --      2.6107                 4.1525                 1.4784
 IR Inten    --     10.1280                 8.8739                 6.6428

                     58                     59                     60
                      A                      A                      A
 Frequencies --   1445.2163              1460.7566              1485.6104
 Red. masses --      1.2902                 3.2487                 1.1026
 Frc consts  --      1.5877                 4.0843                 1.4337
 IR Inten    --      1.2558                20.7321                 3.8387

                     61                     62                     63
                      A                      A                      A
 Frequencies --   1508.1041              1510.2415              1515.8171
 Red. masses --      1.2511                 1.0528                 1.0903
 Frc consts  --      1.6765                 1.4147                 1.4761
 IR Inten    --      4.3333                 0.6149                 2.0579

                     64                     65                     66
                      A                      A                      A
 Frequencies --   1523.7504              1535.3688              1539.6608
 Red. masses --      1.4651                 1.2094                 1.0724
 Frc consts  --      2.0042                 1.6797                 1.4978
 IR Inten    --      4.1205                 4.9299                 5.2992

                     67                     68                     69
                      A                      A                      A
 Frequencies --   1637.9267              1657.4583              1692.7859
 Red. masses --      6.9591                 5.9653                 1.1063
 Frc consts  --     11.0000                 9.6554                 1.8678
 IR Inten    --      5.0655                21.6705                40.1607

                     70                     71                     72
                      A                      A                      A
 Frequencies --   3045.3030              3050.3782              3064.5348
 Red. masses --      1.0374                 1.0381                 1.0625
 Frc consts  --      5.6681                 5.6909                 5.8789
 IR Inten    --     20.1017                33.8953                14.5240

                     73                     74                     75
                      A                      A                      A
 Frequencies --   3104.5995              3113.7413              3113.8382
 Red. masses --      1.0786                 1.0819                 1.1013
 Frc consts  --      6.1253                 6.1801                 6.2914
 IR Inten    --      3.5484                10.9073                15.4754

                     76                     77                     78
                      A                      A                      A
 Frequencies --   3120.1323              3123.7819              3147.1410
 Red. masses --      1.0991                 1.1001                 1.1036
 Frc consts  --      6.3042                 6.3250                 6.4402
 IR Inten    --     34.6913                41.4212                15.4618

                     79                     80                     81
                      A                      A                      A
 Frequencies --   3176.8813              3209.4745              3221.6226
 Red. masses --      1.1090                 1.0875                 1.0900
 Frc consts  --      6.5945                 6.6003                 6.6651
 IR Inten    --      1.9483                 1.6213                 3.3327

                     82                     83                     84
                      A                      A                      A
 Frequencies --   3224.3543              3452.2545              3539.9314
 Red. masses --      1.0939                 1.0500                 1.0918
 Frc consts  --      6.7005                 7.3730                 8.0609
 IR Inten    --     10.6800                 1.1956                 1.4483

 - Thermochemistry -
 -------------------
 Temperature   298.150 Kelvin.  Pressure   1.00000 Atm.
 Atom     1 has atomic number  6 and mass  12.00000

 Molecular mass:   225.08235 amu.
 Principal axes and moments of inertia in atomic units:
                           1         2         3
     Eigenvalues --  1339.434506242.549786798.26997
           X            0.99986  -0.01625   0.00288
           Y            0.01627   0.99984  -0.00691
           Z           -0.00277   0.00696   0.99997
 This molecule is an asymmetric top.
 Rotational symmetry number  1.
 Warning -- assumption of classical behavior for rotation
           may cause significant error
 Rotational temperatures (Kelvin)      0.06466     0.01387     0.01274
 Rotational constants (GHZ):           1.34739     0.28910     0.26547
 Zero-point vibrational energy     653983.9 (Joules/Mol)
                                  156.30591 (Kcal/Mol)
 Warning -- explicit consideration of  24 degrees of freedom as
           vibrations may cause significant error
 Vibrational temperatures:     21.16    82.25   130.06   206.27   227.96
          (Kelvin)            283.09   320.71   357.42   373.57   407.11
                              437.05   451.35   457.66   531.08   550.83
                              577.37   635.63   656.00   662.00   732.85
                              749.17   785.77   851.21   882.69   911.16
                             1027.30  1062.94  1092.75  1185.11  1209.35
                             1263.25  1308.85  1348.46  1354.46  1371.41
                             1383.70  1413.33  1436.24  1455.57  1500.79
                             1536.96  1580.20  1600.76  1635.54  1662.80
                             1715.65  1728.33  1748.43  1770.10  1836.24
                             1860.22  1869.87  1896.03  1926.26  1955.23
                             1968.78  2049.31  2079.34  2101.70  2137.46
                             2169.83  2172.90  2180.92  2192.34  2209.05
                             2215.23  2356.61  2384.71  2435.54  4381.51
                             4388.81  4409.18  4466.83  4479.98  4480.12
                             4489.17  4494.43  4528.03  4570.82  4617.72
                             4635.20  4639.13  4967.02  5093.17

 Zero-point correction=                           0.249089 (Hartree/Particle)
 Thermal correction to Energy=                    0.263423
 Thermal correction to Enthalpy=                  0.264367
 Thermal correction to Gibbs Free Energy=         0.207371
 Sum of electronic and zero-point Energies=          -1031.348242
 Sum of electronic and thermal Energies=             -1031.333908
 Sum of electronic and thermal Enthalpies=           -1031.332964
 Sum of electronic and thermal Free Energies=        -1031.389960

                     E (Thermal)             CV                S
                      KCal/Mol        Cal/Mol-Kelvin    Cal/Mol-Kelvin
 Total                  165.301             56.398            119.959
 Electronic               0.000              0.000              0.000
 Translational            0.889              2.981             42.136
 Rotational               0.889              2.981             32.408
 Vibrational            163.523             50.436             45.414
 Vibration     1          0.593              1.986              7.245
 Vibration     2          0.596              1.975              4.553
 Vibration     3          0.602              1.956              3.651
 Vibration     4          0.616              1.910              2.759
 Vibration     5          0.621              1.893              2.568
 Vibration     6          0.636              1.844              2.163
 Vibration     7          0.649              1.806              1.935
 Vibration     8          0.662              1.765              1.742
 Vibration     9          0.668              1.746              1.664
 Vibration    10          0.682              1.705              1.516
 Vibration    11          0.695              1.667              1.396
 Vibration    12          0.702              1.648              1.343
 Vibration    13          0.704              1.639              1.320
 Vibration    14          0.741              1.536              1.083
 Vibration    15          0.752              1.507              1.028
 Vibration    16          0.767              1.467              0.958
 Vibration    17          0.802              1.379              0.821
 Vibration    18          0.814              1.348              0.778
 Vibration    19          0.818              1.339              0.766
 Vibration    20          0.865              1.229              0.635
 Vibration    21          0.876              1.204              0.608
 Vibration    22          0.901              1.148              0.552
 Vibration    23          0.949              1.050              0.464
 Vibration    24          0.973              1.003              0.427

 Optimization completed.
    -- Stationary point found.
 Normal termination of Gaussian 16 at Thu Dec 10 14:54:39 2020.

 ----------------------------------------------------------------------
 # B3LYP/6-311++G(d,p) empiricaldispersion=gd3bj scf=xqc pop=npa geom=c
 heck
 ----------------------------------------------------------------------

 --------------------------------------
 CID_82618038_JID_5053_Energie_neutraal
 --------------------------------------
 Structure from the checkpoint file:  "JID_5053.chk"
 Charge =  0 Multiplicity = 1

 SCF Done:  E(RB3LYP) =  -1031.80254052     A.U. after   16 cycles
 Normal termination of Gaussian 16 at Thu Dec 10 14:58:32 2020.

 ----------------------------------------------------------------------
 # B3LYP/6-311++G(d,p) empiricaldispersion=gd3bj scf=xqc pop=npa geom=c
 heck
 ----------------------------------------------------------------------

 ------------------------------------
 CID_82618038_JID_5053_Energie_kation
 ------------------------------------
 Structure from the checkpoint file:  "JID_5053.chk"
 Charge =  1 Multiplicity = 2

 SCF Done:  E(UB3LYP) =  -1031.48135943     A.U. after   29 cycles
 Normal termination of Gaussian 16 at Thu Dec 10 15:10:53 2020.
 Gaussian 16:  ES64L-G16RevA.03 25-Dec-2016

 ----------------------------------------------------------------------
 # B3LYP/6-311++G(d,p) empiricaldispersion=gd3bj scf=xqc pop=npa geom=c
 heck
 ----------------------------------------------------------------------

 -----------------------------------
 CID_82618038_JID_5053_Energie_anion
 -----------------------------------
 Structure from the checkpoint file:  "JID_5053.chk"
 Charge = -1 Multiplicity = 2

                         Standard orientation:
 ---------------------------------------------------------------------
 Center     Atomic      Atomic             Coordinates (Angstroms)
 Number     Number       Type             X           Y           Z
 ---------------------------------------------------------------------
      1          6           0        3.701797   -0.096496    1.455089
      2          6           0        3.227502    0.029996   -0.005167
      3          6           0        3.925585   -1.036870   -0.874563
      4          6           0        1.701816   -0.127140   -0.033917
      5          6           0        0.878957    1.007347   -0.022690
      6          6           0       -0.507535    0.871620   -0.008571
      7          6           0       -1.059125   -0.406390   -0.006946
      8          6           0       -0.276710   -1.554229   -0.010731
      9          6           0        1.107431   -1.401474   -0.023551
     10         16           0       -2.842761   -0.335835    0.034185
     11          8           0       -3.318099   -0.435871    1.424563
     12          8           0       -3.429332   -1.199632   -1.001382
     13          6           0       -2.861600    1.425678   -0.468895
     14          6           0       -1.522614    2.001513    0.021772
     15          7           0        3.569360    1.393101   -0.456945
     16          1           0        3.425633   -1.070163    1.870562
     17          1           0        3.248285    0.687238    2.068075
     18          1           0        4.793349    0.001691    1.513064
     19          1           0        3.778812   -2.055537   -0.501733
     20          1           0        3.560142   -0.998755   -1.907137
     21          1           0        5.005034   -0.846998   -0.884348
     22          1           0        1.342871    1.987619   -0.024811
     23          1           0       -0.734561   -2.538199   -0.021331
     24          1           0        1.728522   -2.290266   -0.030795
     25          1           0       -3.744058    1.889731   -0.025742
     26          1           0       -2.937599    1.435210   -1.558861
     27          1           0       -1.628631    2.377039    1.046501
     28          1           0       -1.205791    2.842343   -0.603023
     29          1           0        4.573716    1.529285   -0.348732
     30          1           0        3.379353    1.474112   -1.456458
 ---------------------------------------------------------------------

 SCF Done:  E(UB3LYP) =  -1031.79769051     A.U. after   33 cycles
 SCF Done:  E(UB3LYP) =  -1031.79769051     a.u. after    1 cycles

 The electronic state is 2-A.
 Alpha  occ. eigenvalues --  -88.93947 -19.01213 -19.00902 -14.19040 -10.11679
 Alpha  occ. eigenvalues --  -10.11443 -10.10134 -10.09331 -10.08833 -10.07674
 Alpha  occ. eigenvalues --  -10.07482 -10.07419 -10.06392 -10.06140 -10.05938
 Alpha  occ. eigenvalues --   -8.00416  -5.96672  -5.96570  -5.96532  -1.00203
 Alpha  occ. eigenvalues --   -0.89829  -0.80111  -0.77707  -0.72363  -0.67030
 Alpha  occ. eigenvalues --   -0.65553  -0.63082  -0.59856  -0.59089  -0.53576
 Alpha  occ. eigenvalues --   -0.50824  -0.48734  -0.45215  -0.41622  -0.40303
 Alpha  occ. eigenvalues --   -0.39278  -0.38697  -0.36879  -0.35435  -0.34889
 Alpha  occ. eigenvalues --   -0.34126  -0.33770  -0.31798  -0.31763  -0.30807
 Alpha  occ. eigenvalues --   -0.30304  -0.29859  -0.29154  -0.27276  -0.26356
 Alpha  occ. eigenvalues --   -0.24823  -0.24617  -0.23853  -0.22438  -0.22016
 Alpha  occ. eigenvalues --   -0.20465  -0.18573  -0.15685  -0.15283  -0.14378
 Alpha  occ. eigenvalues --    0.04106
 Alpha virt. eigenvalues --    0.05962   0.06679   0.07597   0.08033   0.08559
 Alpha virt. eigenvalues --    0.08955   0.09599   0.09797   0.10392   0.11099
 Alpha virt. eigenvalues --    0.11741   0.11939   0.12422   0.12855   0.14099

  Beta  occ. eigenvalues --  -88.93945 -19.01200 -19.00861 -14.19002 -10.11677
  Beta  occ. eigenvalues --  -10.11453 -10.10117 -10.09354 -10.08740 -10.07530
  Beta  occ. eigenvalues --  -10.07469 -10.07297 -10.06322 -10.06112 -10.05886
  Beta  occ. eigenvalues --   -8.00413  -5.96663  -5.96566  -5.96534  -1.00141
  Beta  occ. eigenvalues --   -0.89759  -0.80021  -0.77581  -0.72237  -0.66838
  Beta  occ. eigenvalues --   -0.65414  -0.62975  -0.59737  -0.59000  -0.53412
  Beta  occ. eigenvalues --   -0.50745  -0.48611  -0.45098  -0.41567  -0.40234
  Beta  occ. eigenvalues --   -0.39223  -0.38629  -0.36801  -0.35343  -0.34815
  Beta  occ. eigenvalues --   -0.34051  -0.33699  -0.31700  -0.31657  -0.30747
  Beta  occ. eigenvalues --   -0.30236  -0.29806  -0.29083  -0.27217  -0.26024
  Beta  occ. eigenvalues --   -0.24720  -0.24539  -0.23726  -0.22337  -0.21945
  Beta  occ. eigenvalues --   -0.20363  -0.18517  -0.15081  -0.15021  -0.14046
  Beta virt. eigenvalues --    0.06538   0.07037   0.07652   0.07820   0.08442
  Beta virt. eigenvalues --    0.08992   0.09229   0.09758   0.10101   0.10665
  Beta virt. eigenvalues --    0.11248   0.11909   0.12067   0.12620   0.13109

 Mulliken charges and spin densities:
               1          2
     1  C    0.511210  -1.205380
     2  C   -1.788948   1.938513
     3  C    0.362934  -0.883888
     4  C    2.066946  -0.972189
     5  C   -0.619914   0.350769
     6  C   -0.636940   0.894881
     7  C   -0.383666  -0.645023
     8  C   -0.110152   0.002248
     9  C    0.111739  -0.622198
    10  S    1.080676  -0.272551
    11  O   -0.172266  -0.017260
    12  O   -0.191320   0.008285
    13  C   -0.820755  -0.124234
    14  C    0.369873  -0.631939
    15  N   -0.326172   0.008954
    16  H   -0.048362   0.200793
    17  H    0.099353   0.058726
    18  H   -0.404360   0.550405
    19  H   -0.069289   0.209489
    20  H    0.042550   0.096823
    21  H   -0.441847   0.602273
    22  H    0.202259   0.028412
    23  H    0.095858   0.081961
    24  H    0.084331   0.023393
    25  H    0.207825   0.010367
    26  H    0.062017   0.175581
    27  H    0.187047   0.008122
    28  H   -0.226157   0.402387
    29  H   -0.100975   0.354569
    30  H   -0.143493   0.367711
 Sum of Mulliken charges =  -1.00000   1.00000

 Dipole moment (field-independent basis, Debye):
    X=             -4.5411    Y=              0.3194    Z=              0.5741  Tot=              4.5884
 Quadrupole moment (field-independent basis, Debye-Ang):
   XX=           -194.9074   YY=           -124.1882   ZZ=           -127.7793
   XY=            -16.2958   XZ=              1.1267   YZ=              3.3503

 Summary of Natural Population Analysis:

                                       Natural Population
                Natural  -----------------------------------------------
    Atom  No    Charge         Core      Valence    Rydberg      Total
 -----------------------------------------------------------------------
      C    1   -0.27904      0.99962     2.27267    0.00675     3.27904
      C    2    0.04149      0.99956     1.94504    0.01392     2.95851
      C    3   -0.28781      0.99963     2.28109    0.00709     3.28781
      C    4    0.02758      0.99948     1.96121    0.01173     2.97242
      C    5   -0.09172      0.99945     2.08262    0.00965     3.09172
      C    6   -0.01217      0.99946     2.00299    0.00972     3.01217
      C    7   -0.12788      0.99931     2.11417    0.01440     3.12788
      C    8   -0.06191      0.99951     2.05234    0.01006     3.06191
      C    9   -0.11092      0.99952     2.10281    0.00859     3.11092
      S   10    1.02658      4.99916     1.87853    0.09573     6.97342
      O   11   -0.46697      0.99991     3.46154    0.00552     4.46697
      O   12   -0.46664      0.99991     3.46071    0.00602     4.46664
      C   13   -0.28551      0.99961     2.27489    0.01101     3.28551
      C   14   -0.20327      0.99960     2.19406    0.00961     3.20327
      N   15   -0.42400      0.99976     2.91288    0.01136     3.92400
      H   16    0.10031      0.00000     0.39888    0.00082     0.39969
      H   17    0.10410      0.00000     0.39495    0.00095     0.39590
      H   18    0.09971      0.00000     0.39866    0.00163     0.40029
      H   19    0.09738      0.00000     0.40156    0.00105     0.40262
      H   20    0.10046      0.00000     0.39835    0.00119     0.39954
      H   21    0.10067      0.00000     0.39793    0.00140     0.39933
      H   22    0.11571      0.00000     0.38288    0.00141     0.38429
      H   23    0.10450      0.00000     0.39439    0.00111     0.39550
      H   24    0.10108      0.00000     0.39797    0.00095     0.39892
      H   25    0.11214      0.00000     0.38673    0.00113     0.38786
      H   26    0.11428      0.00000     0.38427    0.00145     0.38572
      H   27    0.10728      0.00000     0.39169    0.00103     0.39272
      H   28    0.11205      0.00000     0.38649    0.00146     0.38795
      H   29    0.17663      0.00000     0.32062    0.00274     0.32337
      H   30    0.17586      0.00000     0.32180    0.00234     0.32414
 =======================================================================
   * Total *   -0.00000     18.99347    40.75472    0.25181    60.00000

 Normal termination of Gaussian 16 at Thu Dec 10 15:25:10 2020.
