 Gaussian 16, Revision A.03,

 ----------------------------------------------------------------------
 # opt=(cartesian,calcfc) freq B3LYP/6-31G(d) empiricaldispersion=gd3bj
  scf=xqc
 ----------------------------------------------------------------------

 -------------------------------
 CID_116793132_JID_9497_neutraal
 -------------------------------
 Symbolic Z-matrix:
 Charge =  0 Multiplicity = 1

 SCF Done:  E(RB3LYP) =  -823.753475635     A.U. after   14 cycles
 SCF Done:  E(RB3LYP) =  -823.755550217     A.U. after   11 cycles
 SCF Done:  E(RB3LYP) =  -823.756752993     A.U. after   11 cycles
 SCF Done:  E(RB3LYP) =  -823.756746248     A.U. after   11 cycles
 SCF Done:  E(RB3LYP) =  -823.756667969     A.U. after   11 cycles
 SCF Done:  E(RB3LYP) =  -823.756778212     A.U. after   10 cycles
 SCF Done:  E(RB3LYP) =  -823.756793490     A.U. after   10 cycles
 SCF Done:  E(RB3LYP) =  -823.756796312     A.U. after   10 cycles
 SCF Done:  E(RB3LYP) =  -823.756783991     A.U. after   10 cycles
 SCF Done:  E(RB3LYP) =  -823.756800965     A.U. after    9 cycles
 SCF Done:  E(RB3LYP) =  -823.756818141     A.U. after    7 cycles
 SCF Done:  E(RB3LYP) =  -823.756818149     A.U. after    5 cycles
 SCF Done:  E(RB3LYP) =  -823.756818128     A.U. after    8 cycles
 SCF Done:  E(RB3LYP) =  -823.756818144     A.U. after    6 cycles
 SCF Done:  E(RB3LYP) =  -823.756818151     A.U. after    6 cycles
 Optimization completed on the basis of negligible forces.
    -- Stationary point found.
 Normal termination of Gaussian 16 at Wed Dec 30 15:43:07 2020.

 --------------------------------------------------------------------
 #N Geom=AllCheck Guess=TCheck SCRF=Check GenChk RB3LYP/6-31G(d) Freq
 --------------------------------------------------------------------

 Structure from the checkpoint file:  "JID_9497.chk"
 -------------------------------
 CID_116793132_JID_9497_neutraal
 -------------------------------
 Charge =  0 Multiplicity = 1

 SCF Done:  E(RB3LYP) =  -823.756818151     A.U. after    1 cycles

  Exact polarizability: 232.072   2.054 152.769   9.404   5.208 148.708
 Approx polarizability: 308.857  -4.698 225.982  18.423  10.249 240.100

                      1                      2                      3
                      A                      A                      A
 Frequencies --     16.4515                25.5924                28.8679
 Red. masses --      3.6962                 3.6009                 3.9864
 Frc consts  --      0.0006                 0.0014                 0.0020
 IR Inten    --      0.3326                 0.0827                 0.8117

                      4                      5                      6
                      A                      A                      A
 Frequencies --     39.2117                57.7804                69.4152
 Red. masses --      3.1053                 3.0973                 1.1337
 Frc consts  --      0.0028                 0.0061                 0.0032
 IR Inten    --      0.5506                 1.2473                 0.1948

                      7                      8                      9
                      A                      A                      A
 Frequencies --     75.0479               103.3570               117.7484
 Red. masses --      3.2995                 2.7606                 1.0565
 Frc consts  --      0.0109                 0.0174                 0.0086
 IR Inten    --      0.3382                 1.9276                 0.1076

                     10                     11                     12
                      A                      A                      A
 Frequencies --    132.1297               155.1792               166.7639
 Red. masses --      2.7370                 2.9128                 2.4391
 Frc consts  --      0.0282                 0.0413                 0.0400
 IR Inten    --      1.1651                 2.1704                 1.1862

                     13                     14                     15
                      A                      A                      A
 Frequencies --    207.1322               234.0182               241.9899
 Red. masses --      2.0312                 2.9735                 3.9251
 Frc consts  --      0.0513                 0.0959                 0.1354
 IR Inten    --      0.6435                 1.1501                 1.4362

                     16                     17                     18
                      A                      A                      A
 Frequencies --    272.3228               280.1210               302.1584
 Red. masses --      2.7807                 1.8932                 3.6899
 Frc consts  --      0.1215                 0.0875                 0.1985
 IR Inten    --      0.6081                 0.2230                 1.2412

                     19                     20                     21
                      A                      A                      A
 Frequencies --    330.5288               359.3216               397.8883
 Red. masses --      3.0309                 4.7062                 3.4632
 Frc consts  --      0.1951                 0.3580                 0.3230
 IR Inten    --      1.1429                 6.1110                 0.4932

                     22                     23                     24
                      A                      A                      A
 Frequencies --    422.0806               459.7731               470.6419
 Red. masses --      3.5626                 3.1163                 3.4393
 Frc consts  --      0.3739                 0.3881                 0.4489
 IR Inten    --      0.2556                 5.8536                 1.3356

                     25                     26                     27
                      A                      A                      A
 Frequencies --    507.0335               551.7929               574.7187
 Red. masses --      2.9979                 3.7214                 5.2852
 Frc consts  --      0.4541                 0.6676                 1.0285
 IR Inten    --      0.6895                 4.4534                 0.4905

                     28                     29                     30
                      A                      A                      A
 Frequencies --    621.1825               624.1722               650.0807
 Red. masses --      4.4779                 4.7942                 4.2271
 Frc consts  --      1.0180                 1.1005                 1.0525
 IR Inten    --      3.0568                 5.7365                 2.7195

                     31                     32                     33
                      A                      A                      A
 Frequencies --    661.4720               724.7556               741.4079
 Red. masses --      3.3185                 3.9187                 1.4608
 Frc consts  --      0.8555                 1.2128                 0.4731
 IR Inten    --     11.4198                 2.2131                12.8483

                     34                     35                     36
                      A                      A                      A
 Frequencies --    754.6355               769.8914               783.3221
 Red. masses --      4.8791                 1.4909                 2.4431
 Frc consts  --      1.6371                 0.5207                 0.8832
 IR Inten    --      7.2896                10.0926                 3.8555

                     37                     38                     39
                      A                      A                      A
 Frequencies --    813.0360               830.6595               833.9078
 Red. masses --      1.2160                 3.0346                 1.5534
 Frc consts  --      0.4736                 1.2337                 0.6365
 IR Inten    --     58.9746                11.2863                19.4972

                     40                     41                     42
                      A                      A                      A
 Frequencies --    854.3800               895.1891               918.2114
 Red. masses --      1.7026                 2.4637                 1.2605
 Frc consts  --      0.7323                 1.1632                 0.6262
 IR Inten    --     22.8844                 1.6742                 7.7526

                     43                     44                     45
                      A                      A                      A
 Frequencies --    928.9031               949.9834               969.0683
 Red. masses --      1.2923                 1.3162                 3.1607
 Frc consts  --      0.6570                 0.6998                 1.7488
 IR Inten    --      5.0331                 0.9199                 3.3419

                     46                     47                     48
                      A                      A                      A
 Frequencies --    996.5017              1001.1111              1032.3069
 Red. masses --      1.9209                 3.3131                 1.5044
 Frc consts  --      1.1239                 1.9564                 0.9446
 IR Inten    --     19.0736                52.5168                 5.0773

                     49                     50                     51
                      A                      A                      A
 Frequencies --   1040.9942              1053.1749              1073.8568
 Red. masses --      1.4985                 4.3816                 2.8455
 Frc consts  --      0.9568                 2.8634                 1.9333
 IR Inten    --      0.1616                37.0945                 6.5911

                     52                     53                     54
                      A                      A                      A
 Frequencies --   1079.3270              1080.6749              1147.8561
 Red. masses --      1.5057                 1.5447                 1.8877
 Frc consts  --      1.0335                 1.0629                 1.4654
 IR Inten    --      1.4251                 3.6358                69.4502

                     55                     56                     57
                      A                      A                      A
 Frequencies --   1154.6086              1156.1396              1164.7256
 Red. masses --      2.6537                 1.3399                 1.8582
 Frc consts  --      2.0843                 1.0552                 1.4852
 IR Inten    --     13.4447                 7.8786                 5.9797

                     58                     59                     60
                      A                      A                      A
 Frequencies --   1173.7216              1178.4234              1193.1136
 Red. masses --      1.7409                 1.8794                 1.9541
 Frc consts  --      1.4130                 1.5377                 1.6389
 IR Inten    --      1.0267                20.8941                14.5629

                     61                     62                     63
                      A                      A                      A
 Frequencies --   1215.4693              1239.2710              1246.3023
 Red. masses --      1.4519                 2.0637                 1.3037
 Frc consts  --      1.2638                 1.8674                 1.1931
 IR Inten    --      6.0449                85.8818                15.8298

                     64                     65                     66
                      A                      A                      A
 Frequencies --   1285.1975              1304.8468              1309.2348
 Red. masses --      3.4840                 1.3241                 1.2926
 Frc consts  --      3.3905                 1.3283                 1.3054
 IR Inten    --     72.6312                 3.5522                 2.5771

                     67                     68                     69
                      A                      A                      A
 Frequencies --   1329.3184              1352.0029              1371.6129
 Red. masses --      1.6228                 2.6896                 3.7670
 Frc consts  --      1.6896                 2.8966                 4.1755
 IR Inten    --      1.9616                11.1219                38.3692

                     70                     71                     72
                      A                      A                      A
 Frequencies --   1383.6246              1396.6104              1414.1733
 Red. masses --      1.4799                 1.4220                 6.4867
 Frc consts  --      1.6692                 1.6342                 7.6433
 IR Inten    --     44.4135                 3.5655               165.0929

                     73                     74                     75
                      A                      A                      A
 Frequencies --   1431.3181              1440.5031              1443.8491
 Red. masses --      1.5235                 3.5576                 1.3144
 Frc consts  --      1.8389                 4.3494                 1.6145
 IR Inten    --      5.5069                73.6199                16.6242

                     76                     77                     78
                      A                      A                      A
 Frequencies --   1446.8125              1463.6060              1466.5795
 Red. masses --      1.3718                 2.1205                 2.4538
 Frc consts  --      1.6918                 2.6763                 3.1095
 IR Inten    --      7.7628                 5.9997                 5.0207

                     79                     80                     81
                      A                      A                      A
 Frequencies --   1487.8177              1506.4911              1509.4583
 Red. masses --      1.9498                 1.1756                 1.0481
 Frc consts  --      2.5429                 1.5720                 1.4070
 IR Inten    --     18.5001                30.7726                 3.7215

                     82                     83                     84
                      A                      A                      A
 Frequencies --   1512.1337              1515.5051              1521.0603
 Red. masses --      1.1106                 1.0741                 1.3477
 Frc consts  --      1.4962                 1.4535                 1.8371
 IR Inten    --     23.0224                 5.5060                12.7065

                     85                     86                     87
                      A                      A                      A
 Frequencies --   1530.0131              1534.2203              1540.1936
 Red. masses --      1.0665                 1.0928                 1.1340
 Frc consts  --      1.4710                 1.5156                 1.5849
 IR Inten    --     28.7147                10.6162                14.6555

                     88                     89                     90
                      A                      A                      A
 Frequencies --   1543.7777              1548.3373              1550.4973
 Red. masses --      1.0796                 1.3147                 1.4989
 Frc consts  --      1.5160                 1.8569                 2.1231
 IR Inten    --      3.0785                46.4008                46.5494

                     91                     92                     93
                      A                      A                      A
 Frequencies --   1626.8136              1644.3194              1670.5900
 Red. masses --      5.6980                 6.8395                 6.1607
 Frc consts  --      8.8849                10.8955                10.1303
 IR Inten    --    120.7627                 2.3947                 0.6157

                     94                     95                     96
                      A                      A                      A
 Frequencies --   2917.4340              2936.1212              3026.4774
 Red. masses --      1.0739                 1.0738                 1.0857
 Frc consts  --      5.3854                 5.4543                 5.8591
 IR Inten    --     74.3959                95.1081                27.8740

                     97                     98                     99
                      A                      A                      A
 Frequencies --   3042.2303              3044.1364              3053.9033
 Red. masses --      1.0428                 1.0592                 1.0368
 Frc consts  --      5.6862                 5.7831                 5.6972
 IR Inten    --     19.9092                18.6332                21.2541

                    100                    101                    102
                      A                      A                      A
 Frequencies --   3055.8965              3059.8665              3081.9540
 Red. masses --      1.0394                 1.0821                 1.1017
 Frc consts  --      5.7191                 5.9695                 6.1656
 IR Inten    --     59.8252                61.1975                 7.1142

                    103                    104                    105
                      A                      A                      A
 Frequencies --   3109.3640              3109.9902              3115.3625
 Red. masses --      1.0994                 1.1030                 1.1008
 Frc consts  --      6.2628                 6.2854                 6.2950
 IR Inten    --     13.3862                64.1216                47.3866

                    106                    107                    108
                      A                      A                      A
 Frequencies --   3122.8121              3137.6755              3178.9045
 Red. masses --      1.1002                 1.1030                 1.1019
 Frc consts  --      6.3215                 6.3980                 6.5606
 IR Inten    --     19.9164                17.3304                 3.9377

                    109                    110                    111
                      A                      A                      A
 Frequencies --   3184.0656              3202.7005              3215.7378
 Red. masses --      1.0888                 1.0899                 1.0935
 Frc consts  --      6.5038                 6.5866                 6.6626
 IR Inten    --     14.8198                 5.1566                 8.2589

                    112                    113                    114
                      A                      A                      A
 Frequencies --   3274.1114              3295.6626              3493.6793
 Red. masses --      1.0967                 1.0976                 1.0734
 Frc consts  --      6.9267                 7.0241                 7.7190
 IR Inten    --      3.1167                 1.3094                 0.4366

 - Thermochemistry -
 -------------------
 Temperature   298.150 Kelvin.  Pressure   1.00000 Atm.
 Atom     1 has atomic number  6 and mass  12.00000

 Molecular mass:   259.16846 amu.
 Principal axes and moments of inertia in atomic units:
                           1         2         3
     Eigenvalues --  2727.84183********************
           X            0.99999  -0.00524   0.00043
           Y            0.00525   0.99997  -0.00628
           Z           -0.00040   0.00628   0.99998
 This molecule is an asymmetric top.
 Rotational symmetry number  1.
 Warning -- assumption of classical behavior for rotation
           may cause significant error
 Rotational temperatures (Kelvin)      0.03175     0.00730     0.00659
 Rotational constants (GHZ):           0.66160     0.15206     0.13733
 Zero-point vibrational energy     902519.7 (Joules/Mol)
                                  215.70738 (Kcal/Mol)
 Warning -- explicit consideration of  27 degrees of freedom as
           vibrations may cause significant error
 Vibrational temperatures:     23.67    36.82    41.53    56.42    83.13
          (Kelvin)             99.87   107.98   148.71   169.41   190.11
                              223.27   239.94   298.02   336.70   348.17
                              391.81   403.03   434.74   475.56   516.98
                              572.47   607.28   661.51   677.15   729.51
                              793.91   826.89   893.74   898.04   935.32
                              951.71  1042.76  1066.72  1085.75  1107.70
                             1127.03  1169.78  1195.13  1199.81  1229.26
                             1287.98  1321.10  1336.48  1366.81  1394.27
                             1433.74  1440.38  1485.26  1497.76  1515.28
                             1545.04  1552.91  1554.85  1651.51  1661.22
                             1663.43  1675.78  1688.72  1695.49  1716.62
                             1748.79  1783.03  1793.15  1849.11  1877.38
                             1883.70  1912.59  1945.23  1973.44  1990.73
                             2009.41  2034.68  2059.35  2072.56  2077.38
                             2081.64  2105.80  2110.08  2140.64  2167.50
                             2171.77  2175.62  2180.47  2188.47  2201.35
                             2207.40  2216.00  2221.15  2227.71  2230.82
                             2340.62  2365.81  2403.61  4197.54  4224.42
                             4354.43  4377.09  4379.83  4393.89  4396.75
                             4402.47  4434.24  4473.68  4474.58  4482.31
                             4493.03  4514.42  4573.73  4581.16  4607.97
                             4626.73  4710.72  4741.72  5026.63

 Zero-point correction=                           0.343752 (Hartree/Particle)
 Thermal correction to Energy=                    0.363311
 Thermal correction to Enthalpy=                  0.364255
 Thermal correction to Gibbs Free Energy=         0.292101
 Sum of electronic and zero-point Energies=           -823.413067
 Sum of electronic and thermal Energies=              -823.393507
 Sum of electronic and thermal Enthalpies=            -823.392563
 Sum of electronic and thermal Free Energies=         -823.464717

                     E (Thermal)             CV                S
                      KCal/Mol        Cal/Mol-Kelvin    Cal/Mol-Kelvin
 Total                  227.981             71.634            151.861
 Electronic               0.000              0.000              0.000
 Translational            0.889              2.981             42.557
 Rotational               0.889              2.981             34.408
 Vibrational            226.203             65.673             74.896
 Vibration     1          0.593              1.986              7.022
 Vibration     2          0.593              1.985              6.145
 Vibration     3          0.593              1.984              5.906
 Vibration     4          0.594              1.981              5.299
 Vibration     5          0.596              1.974              4.532
 Vibration     6          0.598              1.969              4.170
 Vibration     7          0.599              1.966              4.016
 Vibration     8          0.605              1.947              3.390
 Vibration     9          0.608              1.935              3.137
 Vibration    10          0.612              1.921              2.915
 Vibration    11          0.620              1.897              2.608
 Vibration    12          0.624              1.883              2.472
 Vibration    13          0.641              1.830              2.069
 Vibration    14          0.654              1.789              1.848
 Vibration    15          0.658              1.776              1.788
 Vibration    16          0.675              1.724              1.581
 Vibration    17          0.680              1.710              1.533
 Vibration    18          0.694              1.670              1.405
 Vibration    19          0.713              1.615              1.257
 Vibration    20          0.734              1.556              1.125
 Vibration    21          0.764              1.475              0.970
 Vibration    22          0.784              1.422              0.885
 Vibration    23          0.818              1.339              0.767
 Vibration    24          0.828              1.315              0.736
 Vibration    25          0.862              1.234              0.641
 Vibration    26          0.907              1.136              0.540
 Vibration    27          0.931              1.086              0.495

 Optimization completed on the basis of negligible forces.
    -- Stationary point found.
 Normal termination of Gaussian 16 at Wed Dec 30 15:59:22 2020.

 ----------------------------------------------------------------------
 # B3LYP/6-311++G(d,p) empiricaldispersion=gd3bj scf=xqc pop=npa geom=c
 heck
 ----------------------------------------------------------------------

 ---------------------------------------
 CID_116793132_JID_9497_Energie_neutraal
 ---------------------------------------
 Structure from the checkpoint file:  "JID_9497.chk"
 Charge =  0 Multiplicity = 1

 SCF Done:  E(RB3LYP) =  -823.978783253     A.U. after   15 cycles
 Normal termination of Gaussian 16 at Wed Dec 30 16:06:22 2020.

 ----------------------------------------------------------------------
 # B3LYP/6-311++G(d,p) empiricaldispersion=gd3bj scf=xqc pop=npa geom=c
 heck
 ----------------------------------------------------------------------

 -------------------------------------
 CID_116793132_JID_9497_Energie_kation
 -------------------------------------
 Structure from the checkpoint file:  "JID_9497.chk"
 Charge =  1 Multiplicity = 2

 SCF Done:  E(UB3LYP) =  -823.698074867     A.U. after   27 cycles
 Normal termination of Gaussian 16 at Wed Dec 30 16:23:24 2020.
 Gaussian 16:  ES64L-G16RevA.03 25-Dec-2016

 ----------------------------------------------------------------------
 # B3LYP/6-311++G(d,p) empiricaldispersion=gd3bj scf=xqc pop=npa geom=c
 heck
 ----------------------------------------------------------------------

 ------------------------------------
 CID_116793132_JID_9497_Energie_anion
 ------------------------------------
 Structure from the checkpoint file:  "JID_9497.chk"
 Charge = -1 Multiplicity = 2

                         Standard orientation:
 ---------------------------------------------------------------------
 Center     Atomic      Atomic             Coordinates (Angstroms)
 Number     Number       Type             X           Y           Z
 ---------------------------------------------------------------------
      1          6           0       -5.179753    2.662196    0.024905
      2          6           0       -5.707533    1.323836    0.551707
      3          6           0       -5.140543    0.106412   -0.181070
      4          7           0       -3.697967   -0.014347    0.004865
      5          6           0       -3.131172   -1.194363   -0.641904
      6          6           0       -1.632134   -1.267017   -0.451516
      7          6           0       -1.060274   -0.935959    0.783610
      8          6           0        0.315962   -1.016130    1.008121
      9          6           0        1.120750   -1.446116   -0.057150
     10          6           0        0.580663   -1.780554   -1.293479
     11          6           0       -0.797457   -1.687280   -1.489459
     12          8           0        2.493578   -1.583644    0.130721
     13          6           0        3.227689   -0.432931    0.023809
     14          6           0        2.841309    0.827986   -0.398941
     15          7           0        3.960748    1.606356   -0.304965
     16          7           0        5.035508    0.922261    0.133093
     17          6           0        4.596679   -0.321310    0.345063
     18          6           0        4.107859    2.984869   -0.720837
     19          6           0        0.927164   -0.669249    2.340366
     20          1           0       -4.102824    2.769955    0.199680
     21          1           0       -5.671889    3.503895    0.523941
     22          1           0       -5.359414    2.762021   -1.053079
     23          1           0       -5.475317    1.228414    1.619373
     24          1           0       -6.800851    1.302699    0.457041
     25          1           0       -5.600338   -0.805688    0.221288
     26          1           0       -5.427876    0.154056   -1.251167
     27          1           0       -3.234878    0.810450   -0.372521
     28          1           0       -3.364462   -1.251579   -1.722578
     29          1           0       -3.606895   -2.074421   -0.184553
     30          1           0       -1.714939   -0.601456    1.583012
     31          1           0        1.246062   -2.106366   -2.086501
     32          1           0       -1.223634   -1.942939   -2.456343
     33          1           0        1.891380    1.210002   -0.738295
     34          1           0        5.260205   -1.086898    0.721535
     35          1           0        4.991866    3.386288   -0.224447
     36          1           0        4.236545    3.063594   -1.806769
     37          1           0        3.226507    3.558929   -0.420920
     38          1           0        0.150114   -0.473642    3.084510
     39          1           0        1.563215   -1.483392    2.704101
     40          1           0        1.565528    0.219014    2.266632
 ---------------------------------------------------------------------

 SCF Done:  E(UB3LYP) =  -823.968364399     A.U. after   33 cycles
 SCF Done:  E(UB3LYP) =  -823.968364399     a.u. after    1 cycles

 The electronic state is 2-A.
 Alpha  occ. eigenvalues --  -19.07852 -14.30596 -14.24698 -14.20997 -10.14622
 Alpha  occ. eigenvalues --  -10.14351 -10.12278 -10.11601 -10.11138 -10.10370
 Alpha  occ. eigenvalues --  -10.10307 -10.10289 -10.09639 -10.09338 -10.09170
 Alpha  occ. eigenvalues --  -10.08585 -10.08527 -10.07910 -10.07017  -0.99934
 Alpha  occ. eigenvalues --   -0.96579  -0.82459  -0.77810  -0.75767  -0.70759
 Alpha  occ. eigenvalues --   -0.69790  -0.68913  -0.66671  -0.62176  -0.60832
 Alpha  occ. eigenvalues --   -0.59497  -0.56725  -0.52911  -0.52314  -0.50386
 Alpha  occ. eigenvalues --   -0.49450  -0.48137  -0.46111  -0.42462  -0.41688
 Alpha  occ. eigenvalues --   -0.40559  -0.39255  -0.38636  -0.37629  -0.36603
 Alpha  occ. eigenvalues --   -0.35628  -0.35032  -0.34370  -0.33888  -0.33601
 Alpha  occ. eigenvalues --   -0.32874  -0.32274  -0.32091  -0.31517  -0.30986
 Alpha  occ. eigenvalues --   -0.30496  -0.29638  -0.28342  -0.27581  -0.25966
 Alpha  occ. eigenvalues --   -0.25383  -0.25171  -0.25010  -0.24555  -0.21354
 Alpha  occ. eigenvalues --   -0.17196  -0.16938  -0.15866  -0.14302  -0.13774
 Alpha  occ. eigenvalues --    0.03824
 Alpha virt. eigenvalues --    0.05393   0.06283   0.06545   0.06882   0.07023
 Alpha virt. eigenvalues --    0.07310   0.07603   0.08026   0.08228   0.08990
 Alpha virt. eigenvalues --    0.09166   0.09729   0.09876   0.10407   0.10738

  Beta  occ. eigenvalues --  -19.07853 -14.30595 -14.24693 -14.20979 -10.14615
  Beta  occ. eigenvalues --  -10.14350 -10.12230 -10.11586 -10.11123 -10.10369
  Beta  occ. eigenvalues --  -10.10291 -10.10289 -10.09638 -10.09330 -10.09163
  Beta  occ. eigenvalues --  -10.08569 -10.08518 -10.07898 -10.06983  -0.99932
  Beta  occ. eigenvalues --   -0.96573  -0.82433  -0.77796  -0.75751  -0.70742
  Beta  occ. eigenvalues --   -0.69774  -0.68889  -0.66645  -0.62135  -0.60804
  Beta  occ. eigenvalues --   -0.59453  -0.56672  -0.52886  -0.52294  -0.50360
  Beta  occ. eigenvalues --   -0.49384  -0.48111  -0.46085  -0.42429  -0.41667
  Beta  occ. eigenvalues --   -0.40532  -0.39230  -0.38607  -0.37601  -0.36566
  Beta  occ. eigenvalues --   -0.35607  -0.35013  -0.34345  -0.33861  -0.33588
  Beta  occ. eigenvalues --   -0.32854  -0.32233  -0.32063  -0.31472  -0.30959
  Beta  occ. eigenvalues --   -0.30472  -0.29615  -0.28326  -0.27554  -0.25942
  Beta  occ. eigenvalues --   -0.25350  -0.25152  -0.24978  -0.24526  -0.21343
  Beta  occ. eigenvalues --   -0.17180  -0.16902  -0.15842  -0.14264  -0.13765
  Beta virt. eigenvalues --    0.05735   0.06234   0.06594   0.06825   0.07017
  Beta virt. eigenvalues --    0.07221   0.07619   0.07873   0.08105   0.08370
  Beta virt. eigenvalues --    0.09233   0.09526   0.09785   0.10235   0.10738

 Mulliken charges and spin densities:
               1          2
     1  C    0.640487  -1.125021
     2  C   -0.581146   0.242445
     3  C    0.366507  -0.559081
     4  N   -0.040145   0.097443
     5  C    0.680485  -1.723060
     6  C    0.963623   0.128034
     7  C   -0.688519   0.409878
     8  C   -0.055180   0.916299
     9  C   -0.974987  -0.092968
    10  C    0.595291  -0.642724
    11  C   -0.492867   0.129383
    12  O   -0.080447  -0.005677
    13  C   -0.064370   0.185899
    14  C    0.051035  -0.488122
    15  N    0.110707   0.140464
    16  N   -0.323593   0.120248
    17  C   -0.325785  -0.012519
    18  C    1.066237  -1.354648
    19  C   -0.426231  -0.144623
    20  H   -0.243320   0.384657
    21  H   -0.274796   0.417800
    22  H   -0.138715   0.279013
    23  H    0.087328   0.053992
    24  H   -0.097683   0.221837
    25  H   -0.075745   0.211451
    26  H   -0.107108   0.229339
    27  H    0.276230  -0.122626
    28  H   -0.067045   0.230065
    29  H    0.020764   0.131627
    30  H    0.257936  -0.017150
    31  H    0.040037   0.128109
    32  H   -0.315107   0.479577
    33  H   -0.182345   0.401359
    34  H    0.108425   0.027045
    35  H   -0.091343   0.250572
    36  H   -0.275547   0.450048
    37  H   -0.544595   0.715169
    38  H   -0.037500   0.172284
    39  H    0.118585   0.058575
    40  H    0.120443   0.075608
 Sum of Mulliken charges =  -1.00000   1.00000

 Dipole moment (field-independent basis, Debye):
    X=              1.9339    Y=             -6.7496    Z=              2.1425  Tot=              7.3408
 Quadrupole moment (field-independent basis, Debye-Ang):
   XX=           -229.9038   YY=           -175.2833   ZZ=           -147.3404
   XY=             -1.1882   XZ=             -1.1877   YZ=              2.7843

 Summary of Natural Population Analysis:

                                       Natural Population
                Natural  -----------------------------------------------
    Atom  No    Charge         Core      Valence    Rydberg      Total
 -----------------------------------------------------------------------
      C    1   -0.28795      0.99967     2.28375    0.00453     3.28795
      C    2   -0.19201      0.99964     2.18498    0.00740     3.19201
      C    3   -0.08080      0.99963     2.07205    0.00911     3.08080
      N    4   -0.33840      0.99974     2.82816    0.01051     3.83840
      C    5   -0.08746      0.99959     2.07816    0.00971     3.08746
      C    6   -0.02065      0.99951     2.01026    0.01089     3.02065
      C    7   -0.09191      0.99948     2.08277    0.00966     3.09191
      C    8   -0.02840      0.99946     2.01995    0.00898     3.02840
      C    9    0.14324      0.99930     1.84380    0.01367     2.85676
      C   10   -0.11156      0.99950     2.10210    0.00995     3.11156
      C   11   -0.09896      0.99952     2.08971    0.00973     3.09896
      O   12   -0.27073      0.99984     3.26199    0.00890     4.27073
      C   13    0.10320      0.99934     1.88323    0.01424     2.89680
      C   14   -0.04722      0.99949     2.03690    0.01083     3.04722
      N   15   -0.10218      0.99968     2.58958    0.01291     3.60218
      N   16   -0.14744      0.99974     2.63627    0.01144     3.64744
      C   17   -0.03711      0.99959     2.02420    0.01332     3.03711
      C   18   -0.17305      0.99964     2.16515    0.00826     3.17305
      C   19   -0.29450      0.99963     2.29014    0.00473     3.29450
      H   20    0.09781      0.00000     0.40073    0.00146     0.40219
      H   21    0.09957      0.00000     0.39919    0.00124     0.40043
      H   22    0.09668      0.00000     0.40175    0.00156     0.40332
      H   23    0.09598      0.00000     0.40250    0.00153     0.40402
      H   24    0.09424      0.00000     0.40438    0.00138     0.40576
      H   25    0.08981      0.00000     0.40832    0.00187     0.41019
      H   26    0.07677      0.00000     0.42103    0.00220     0.42323
      H   27    0.17291      0.00000     0.32192    0.00517     0.32709
      H   28    0.08360      0.00000     0.41439    0.00201     0.41640
      H   29    0.09521      0.00000     0.40328    0.00151     0.40479
      H   30    0.10923      0.00000     0.38934    0.00143     0.39077
      H   31    0.10678      0.00000     0.39232    0.00090     0.39322
      H   32    0.10181      0.00000     0.39710    0.00110     0.39819
      H   33    0.11513      0.00000     0.38317    0.00169     0.38487
      H   34    0.09916      0.00000     0.39998    0.00086     0.40084
      H   35    0.10726      0.00000     0.39109    0.00166     0.39274
      H   36    0.09818      0.00000     0.40035    0.00147     0.40182
      H   37    0.10454      0.00000     0.39294    0.00252     0.39546
      H   38    0.10267      0.00000     0.39647    0.00085     0.39733
      H   39    0.10624      0.00000     0.39274    0.00103     0.39376
      H   40    0.11031      0.00000     0.38849    0.00120     0.38969
 =======================================================================
   * Total *   -0.00000     18.99198    50.78460    0.22342    70.00000

 Normal termination of Gaussian 16 at Wed Dec 30 16:44:54 2020.
