 Gaussian 16, Revision A.03,

 -----------------------------------------------------------
 # opt freq B3LYP/6-31G(d) empiricaldispersion=gd3bj scf=xqc
 -----------------------------------------------------------

 ------------------------------
 CID_65264190_JID_6008_neutraal
 ------------------------------
 Symbolic Z-matrix:
 Charge =  0 Multiplicity = 1

 SCF Done:  E(RB3LYP) =  -1138.94894443     A.U. after   15 cycles
 SCF Done:  E(RB3LYP) =  -1138.95689040     A.U. after   12 cycles
 SCF Done:  E(RB3LYP) =  -1138.95828063     A.U. after   13 cycles
 SCF Done:  E(RB3LYP) =  -1138.95839908     A.U. after   12 cycles
 SCF Done:  E(RB3LYP) =  -1138.95946505     A.U. after   12 cycles
 SCF Done:  E(RB3LYP) =  -1138.96006111     A.U. after   13 cycles
 SCF Done:  E(RB3LYP) =  -1138.96118112     A.U. after   12 cycles
 SCF Done:  E(RB3LYP) =  -1138.96183158     A.U. after   13 cycles
 SCF Done:  E(RB3LYP) =  -1138.96227107     A.U. after   12 cycles
 SCF Done:  E(RB3LYP) =  -1138.96247815     A.U. after   12 cycles
 SCF Done:  E(RB3LYP) =  -1138.96300978     A.U. after   10 cycles
 SCF Done:  E(RB3LYP) =  -1138.96301484     A.U. after   10 cycles
 SCF Done:  E(RB3LYP) =  -1138.96301562     A.U. after    8 cycles
 SCF Done:  E(RB3LYP) =  -1138.96301567     A.U. after    7 cycles
 SCF Done:  E(RB3LYP) =  -1138.96301569     A.U. after    7 cycles
 Optimization completed.
    -- Stationary point found.
 Normal termination of Gaussian 16 at Thu Dec 10 21:15:54 2020.

 --------------------------------------------------------------------
 #N Geom=AllCheck Guess=TCheck SCRF=Check GenChk RB3LYP/6-31G(d) Freq
 --------------------------------------------------------------------

 Structure from the checkpoint file:  "JID_6008.chk"
 ------------------------------
 CID_65264190_JID_6008_neutraal
 ------------------------------
 Charge =  0 Multiplicity = 1

 SCF Done:  E(RB3LYP) =  -1138.96301569     A.U. after    1 cycles

  Exact polarizability: 190.002  14.697 128.082  -8.650   5.912  93.131
 Approx polarizability: 255.710  27.781 228.299 -20.869  13.920 154.829

                      1                      2                      3
                      A                      A                      A
 Frequencies --     21.2380                35.4399                43.8796
 Red. masses --      6.9909                 5.8955                 5.2825
 Frc consts  --      0.0019                 0.0044                 0.0060
 IR Inten    --      0.1705                 0.4623                 0.4224

                      4                      5                      6
                      A                      A                      A
 Frequencies --     57.0073                81.5499               114.4935
 Red. masses --      9.3176                 5.2795                 7.4353
 Frc consts  --      0.0178                 0.0207                 0.0574
 IR Inten    --      0.2212                 0.2097                 1.2529

                      7                      8                      9
                      A                      A                      A
 Frequencies --    118.8656               213.1459               215.5350
 Red. masses --      6.4069                 1.4371                 5.1772
 Frc consts  --      0.0533                 0.0385                 0.1417
 IR Inten    --      1.7143                 1.2962                 1.4115

                     10                     11                     12
                      A                      A                      A
 Frequencies --    245.0054               249.5234               272.0340
 Red. masses --      3.5341                 3.2568                 3.2974
 Frc consts  --      0.1250                 0.1195                 0.1438
 IR Inten    --      2.2827                11.4774                 1.0932

                     13                     14                     15
                      A                      A                      A
 Frequencies --    277.9342               284.5887               329.9028
 Red. masses --      2.4607                 1.0916                 3.1248
 Frc consts  --      0.1120                 0.0521                 0.2004
 IR Inten    --      3.5601                 0.3509                 0.2909

                     16                     17                     18
                      A                      A                      A
 Frequencies --    354.8877               403.9897               425.1236
 Red. masses --      2.7407                 7.3045                 4.2316
 Frc consts  --      0.2034                 0.7024                 0.4506
 IR Inten    --      3.5685                12.4427                 8.8996

                     19                     20                     21
                      A                      A                      A
 Frequencies --    445.1941               485.2081               510.3776
 Red. masses --      3.2692                 2.4306                 4.2235
 Frc consts  --      0.3818                 0.3372                 0.6482
 IR Inten    --     48.4111                 2.2753                 6.9109

                     22                     23                     24
                      A                      A                      A
 Frequencies --    535.4806               590.6019               609.8543
 Red. masses --      3.3835                 4.9931                 3.8123
 Frc consts  --      0.5716                 1.0262                 0.8354
 IR Inten    --      2.8286                31.3867                17.3559

                     25                     26                     27
                      A                      A                      A
 Frequencies --    616.0397               628.0311               672.7691
 Red. masses --      1.7269                 2.0988                 5.8659
 Frc consts  --      0.3861                 0.4877                 1.5643
 IR Inten    --     33.4195                51.1480                 8.6117

                     28                     29                     30
                      A                      A                      A
 Frequencies --    698.2039               705.8840               713.6146
 Red. masses --      1.8707                 1.9946                 1.4910
 Frc consts  --      0.5373                 0.5855                 0.4474
 IR Inten    --     32.4263                 1.0281                75.1632

                     31                     32                     33
                      A                      A                      A
 Frequencies --    718.0686               757.6363               782.0857
 Red. masses --      2.8796                 4.3498                 4.5696
 Frc consts  --      0.8748                 1.4711                 1.6468
 IR Inten    --     56.3265                40.0188                42.2465

                     34                     35                     36
                      A                      A                      A
 Frequencies --    802.8900               865.5288               882.6932
 Red. masses --      2.6549                 3.5859                 2.2916
 Frc consts  --      1.0084                 1.5827                 1.0520
 IR Inten    --     74.2222                18.4451                 9.4629

                     37                     38                     39
                      A                      A                      A
 Frequencies --    895.6830               897.8930               945.7562
 Red. masses --      1.3144                 4.4216                 1.6309
 Frc consts  --      0.6213                 2.1003                 0.8595
 IR Inten    --      2.6387                 5.4768                 1.2764

                     40                     41                     42
                      A                      A                      A
 Frequencies --    969.7085              1037.8269              1065.6698
 Red. masses --      2.0294                 1.3235                 1.8859
 Frc consts  --      1.1244                 0.8399                 1.2619
 IR Inten    --     23.3273                 0.9641                 4.1460

                     43                     44                     45
                      A                      A                      A
 Frequencies --   1093.9156              1145.5041              1176.4387
 Red. masses --      1.4460                 3.1466                 2.9923
 Frc consts  --      1.0195                 2.4327                 2.4400
 IR Inten    --      9.1008               145.5762                54.8330

                     46                     47                     48
                      A                      A                      A
 Frequencies --   1192.9595              1202.9364              1233.5505
 Red. masses --      1.9272                 3.2955                 1.7402
 Frc consts  --      1.6160                 2.8097                 1.5601
 IR Inten    --    134.2839               193.1707                14.7562

                     49                     50                     51
                      A                      A                      A
 Frequencies --   1269.7554              1275.9560              1318.7688
 Red. masses --      2.1544                 2.6959                 3.3763
 Frc consts  --      2.0465                 2.5859                 3.4597
 IR Inten    --     56.7812               195.9386                97.9476

                     52                     53                     54
                      A                      A                      A
 Frequencies --   1326.4852              1356.1335              1381.3279
 Red. masses --      1.5048                 1.9461                 2.0229
 Frc consts  --      1.5600                 2.1088                 2.2742
 IR Inten    --     28.1312                 9.2356                77.8995

                     55                     56                     57
                      A                      A                      A
 Frequencies --   1402.3910              1421.7440              1426.4562
 Red. masses --      1.6581                 1.2304                 2.5518
 Frc consts  --      1.9213                 1.4653                 3.0592
 IR Inten    --     26.3293                 8.9193                 3.6722

                     58                     59                     60
                      A                      A                      A
 Frequencies --   1448.1680              1500.4905              1513.9417
 Red. masses --      1.2724                 1.1073                 1.0609
 Frc consts  --      1.5722                 1.4689                 1.4327
 IR Inten    --      3.1136                 7.9556                 0.5737

                     61                     62                     63
                      A                      A                      A
 Frequencies --   1518.8761              1527.0345              1535.1804
 Red. masses --      1.0566                 1.1169                 1.0699
 Frc consts  --      1.4362                 1.5345                 1.4856
 IR Inten    --      4.1558                58.9568                11.1373

                     64                     65                     66
                      A                      A                      A
 Frequencies --   1539.4858              1555.0271              1589.3820
 Red. masses --      4.1439                 1.2098                 4.8395
 Frc consts  --      5.7864                 1.7235                 7.2028
 IR Inten    --     45.7057                 7.0342               274.9823

                     67                     68                     69
                      A                      A                      A
 Frequencies --   1790.2750              1842.2451              3012.6031
 Red. masses --      8.7196                 9.8162                 1.0719
 Frc consts  --     16.4659                19.6285                 5.7319
 IR Inten    --    376.8833               257.6000                40.9080

                     70                     71                     72
                      A                      A                      A
 Frequencies --   3059.7861              3065.0773              3104.6862
 Red. masses --      1.0369                 1.0386                 1.0882
 Frc consts  --      5.7197                 5.7487                 6.1798
 IR Inten    --     10.3120                20.4273                 6.8090

                     73                     74                     75
                      A                      A                      A
 Frequencies --   3127.0850              3132.4819              3158.6391
 Red. masses --      1.0997                 1.0988                 1.1034
 Frc consts  --      6.3357                 6.3527                 6.4863
 IR Inten    --     11.9286                48.0955                 5.2257

                     76                     77                     78
                      A                      A                      A
 Frequencies --   3160.9079              3238.6607              3287.1547
 Red. masses --      1.1034                 1.0915                 1.0983
 Frc consts  --      6.4957                 6.7455                 6.9922
 IR Inten    --     19.9270                 9.4522                 1.3806

                     79                     80                     81
                      A                      A                      A
 Frequencies --   3516.8237              3561.7392              3686.6544
 Red. masses --      1.0729                 1.0752                 1.0641
 Frc consts  --      7.8186                 8.0367                 8.5208
 IR Inten    --     23.2123                54.5619                59.6372

 - Thermochemistry -
 -------------------
 Temperature   298.150 Kelvin.  Pressure   1.00000 Atm.
 Atom     1 has atomic number  6 and mass  12.00000

 Molecular mass:   243.06776 amu.
 Principal axes and moments of inertia in atomic units:
                           1         2         3
     Eigenvalues --  1488.169938499.574529214.48370
           X            0.99998  -0.00433   0.00399
           Y            0.00433   0.99999  -0.00035
           Z           -0.00399   0.00036   0.99999
 This molecule is an asymmetric top.
 Rotational symmetry number  1.
 Warning -- assumption of classical behavior for rotation
           may cause significant error
 Rotational temperatures (Kelvin)      0.05820     0.01019     0.00940
 Rotational constants (GHZ):           1.21273     0.21233     0.19586
 Zero-point vibrational energy     599769.1 (Joules/Mol)
                                  143.34827 (Kcal/Mol)
 Warning -- explicit consideration of  25 degrees of freedom as
           vibrations may cause significant error
 Vibrational temperatures:     30.56    50.99    63.13    82.02   117.33
          (Kelvin)            164.73   171.02   306.67   310.11   352.51
                              359.01   391.40   399.89   409.46   474.66
                              510.60   581.25   611.66   640.54   698.11
                              734.32   770.44   849.74   877.44   886.34
                              903.60   967.96  1004.56  1015.61  1026.73
                             1033.14  1090.07  1125.25  1155.18  1245.30
                             1270.00  1288.69  1291.87  1360.73  1395.19
                             1493.20  1533.26  1573.90  1648.12  1692.63
                             1716.40  1730.76  1774.80  1826.89  1835.82
                             1897.41  1908.52  1951.17  1987.42  2017.73
                             2045.57  2052.35  2083.59  2158.87  2178.22
                             2185.32  2197.06  2208.78  2214.98  2237.34
                             2286.77  2575.81  2650.58  4334.46  4402.35
                             4409.96  4466.95  4499.18  4506.94  4544.58
                             4547.84  4659.71  4729.48  5059.92  5124.55
                             5304.27

 Zero-point correction=                           0.228440 (Hartree/Particle)
 Thermal correction to Energy=                    0.244577
 Thermal correction to Enthalpy=                  0.245521
 Thermal correction to Gibbs Free Energy=         0.182870
 Sum of electronic and zero-point Energies=          -1138.734576
 Sum of electronic and thermal Energies=             -1138.718439
 Sum of electronic and thermal Enthalpies=           -1138.717494
 Sum of electronic and thermal Free Energies=        -1138.780146

                     E (Thermal)             CV                S
                      KCal/Mol        Cal/Mol-Kelvin    Cal/Mol-Kelvin
 Total                  153.474             60.089            131.862
 Electronic               0.000              0.000              0.000
 Translational            0.889              2.981             42.365
 Rotational               0.889              2.981             33.121
 Vibrational            151.697             54.128             56.375
 Vibration     1          0.593              1.985              6.515
 Vibration     2          0.594              1.982              5.499
 Vibration     3          0.595              1.980              5.076
 Vibration     4          0.596              1.975              4.558
 Vibration     5          0.600              1.962              3.853
 Vibration     6          0.607              1.937              3.191
 Vibration     7          0.609              1.934              3.119
 Vibration     8          0.644              1.821              2.017
 Vibration     9          0.645              1.817              1.996
 Vibration    10          0.660              1.771              1.766
 Vibration    11          0.662              1.764              1.734
 Vibration    12          0.675              1.725              1.583
 Vibration    13          0.679              1.714              1.546
 Vibration    14          0.683              1.702              1.506
 Vibration    15          0.713              1.616              1.261
 Vibration    16          0.731              1.565              1.144
 Vibration    17          0.769              1.462              0.948
 Vibration    18          0.787              1.416              0.875
 Vibration    19          0.805              1.371              0.810
 Vibration    20          0.841              1.283              0.696
 Vibration    21          0.866              1.227              0.633
 Vibration    22          0.890              1.172              0.575
 Vibration    23          0.948              1.052              0.466
 Vibration    24          0.969              1.011              0.433
 Vibration    25          0.976              0.998              0.423

 Optimization completed.
    -- Stationary point found.
 Normal termination of Gaussian 16 at Thu Dec 10 21:24:43 2020.

 ----------------------------------------------------------------------
 # B3LYP/6-311++G(d,p) empiricaldispersion=gd3bj scf=xqc pop=npa geom=c
 heck
 ----------------------------------------------------------------------

 --------------------------------------
 CID_65264190_JID_6008_Energie_neutraal
 --------------------------------------
 Structure from the checkpoint file:  "JID_6008.chk"
 Charge =  0 Multiplicity = 1

 SCF Done:  E(RB3LYP) =  -1139.21634759     A.U. after   16 cycles
 Normal termination of Gaussian 16 at Thu Dec 10 21:28:47 2020.

 ----------------------------------------------------------------------
 # B3LYP/6-311++G(d,p) empiricaldispersion=gd3bj scf=xqc pop=npa geom=c
 heck
 ----------------------------------------------------------------------

 ------------------------------------
 CID_65264190_JID_6008_Energie_kation
 ------------------------------------
 Structure from the checkpoint file:  "JID_6008.chk"
 Charge =  1 Multiplicity = 2

 SCF Done:  E(UB3LYP) =  -1138.91268632     A.U. after   24 cycles
 Normal termination of Gaussian 16 at Thu Dec 10 21:36:44 2020.
 Gaussian 16:  ES64L-G16RevA.03 25-Dec-2016

 ----------------------------------------------------------------------
 # B3LYP/6-311++G(d,p) empiricaldispersion=gd3bj scf=xqc pop=npa geom=c
 heck
 ----------------------------------------------------------------------

 -----------------------------------
 CID_65264190_JID_6008_Energie_anion
 -----------------------------------
 Structure from the checkpoint file:  "JID_6008.chk"
 Charge = -1 Multiplicity = 2

                         Standard orientation:
 ---------------------------------------------------------------------
 Center     Atomic      Atomic             Coordinates (Angstroms)
 Number     Number       Type             X           Y           Z
 ---------------------------------------------------------------------
      1          6           0        2.356465   -2.017843    0.258068
      2          6           0        2.417490   -0.483736    0.172872
      3          6           0        2.051851    0.144092    1.542795
      4          6           0        3.841067   -0.019890   -0.143862
      5          8           0        4.131704    0.854648   -0.929297
      6          8           0        4.771534   -0.659601    0.603802
      7          7           0        1.600874   -0.025411   -0.960457
      8          6           0        0.170353   -0.006225   -0.770424
      9          6           0       -0.361149    1.319362   -0.222118
     10          8           0        0.344243    2.309532   -0.115821
     11          7           0       -1.701560    1.410580    0.127294
     12          6           0       -2.762729    0.520710    0.136233
     13          7           0       -3.907819    0.883433    0.646547
     14          6           0       -4.835940   -0.126000    0.531937
     15          6           0       -4.414060   -1.271803   -0.068054
     16         16           0       -2.743197   -1.109429   -0.542421
     17          1           0        3.001112   -2.394861    1.055075
     18          1           0        2.661038   -2.462383   -0.693294
     19          1           0        1.331038   -2.339721    0.470714
     20          1           0        2.737972   -0.203769    2.320446
     21          1           0        2.086205    1.234699    1.489576
     22          1           0        1.038558   -0.153637    1.834700
     23          1           0        5.627269   -0.257166    0.363764
     24          1           0        1.926421    0.896374   -1.244823
     25          1           0       -0.332664   -0.184314   -1.733653
     26          1           0       -0.135796   -0.829833   -0.118413
     27          1           0       -1.961189    2.326760    0.481891
     28          1           0       -5.834126    0.037818    0.920554
     29          1           0       -4.955088   -2.187962   -0.255650
 ---------------------------------------------------------------------

 SCF Done:  E(UB3LYP) =  -1139.21359375     A.U. after   33 cycles
 SCF Done:  E(UB3LYP) =  -1139.21359375     a.u. after    1 cycles

 The electronic state is 2-A.
 Alpha  occ. eigenvalues --  -88.76311 -19.07232 -19.02003 -18.97815 -14.24843
 Alpha  occ. eigenvalues --  -14.19449 -14.18746 -10.20775 -10.15571 -10.14083
 Alpha  occ. eigenvalues --  -10.12848 -10.10254 -10.08785 -10.07488 -10.06946
 Alpha  occ. eigenvalues --  -10.06640  -7.84970  -5.81278  -5.80925  -5.80532
 Alpha  occ. eigenvalues --   -1.01495  -0.93713  -0.92578  -0.86802  -0.81594
 Alpha  occ. eigenvalues --   -0.80317  -0.69421  -0.68330  -0.62485  -0.60539
 Alpha  occ. eigenvalues --   -0.59912  -0.55985  -0.51887  -0.48153  -0.46816
 Alpha  occ. eigenvalues --   -0.45400  -0.42338  -0.39794  -0.39413  -0.37926
 Alpha  occ. eigenvalues --   -0.36994  -0.36483  -0.35183  -0.34240  -0.33492
 Alpha  occ. eigenvalues --   -0.32752  -0.31572  -0.30409  -0.30244  -0.29655
 Alpha  occ. eigenvalues --   -0.28969  -0.28554  -0.27209  -0.26205  -0.25047
 Alpha  occ. eigenvalues --   -0.24576  -0.22977  -0.20599  -0.18618  -0.17210
 Alpha  occ. eigenvalues --   -0.17153  -0.15851  -0.12947  -0.11349   0.04518
 Alpha virt. eigenvalues --    0.05789   0.07335   0.08358   0.09019   0.09346
 Alpha virt. eigenvalues --    0.09646   0.09903   0.10840   0.11423   0.11578
 Alpha virt. eigenvalues --    0.12382   0.12583   0.13214   0.13376   0.14337

  Beta  occ. eigenvalues --  -88.76268 -19.07175 -19.01992 -18.97598 -14.24942
  Beta  occ. eigenvalues --  -14.19451 -14.18698 -10.20771 -10.15338 -10.13694
  Beta  occ. eigenvalues --  -10.12840 -10.10265 -10.08784 -10.07254 -10.06937
  Beta  occ. eigenvalues --  -10.06634  -7.84931  -5.81266  -5.80911  -5.80379
  Beta  occ. eigenvalues --   -1.01425  -0.93339  -0.92519  -0.86500  -0.81577
  Beta  occ. eigenvalues --   -0.80217  -0.69370  -0.68072  -0.62095  -0.60435
  Beta  occ. eigenvalues --   -0.59895  -0.55876  -0.51562  -0.48005  -0.46623
  Beta  occ. eigenvalues --   -0.45222  -0.42241  -0.39642  -0.39341  -0.37810
  Beta  occ. eigenvalues --   -0.36875  -0.36316  -0.35047  -0.34029  -0.33399
  Beta  occ. eigenvalues --   -0.32412  -0.31439  -0.30140  -0.29964  -0.29528
  Beta  occ. eigenvalues --   -0.28888  -0.28288  -0.26763  -0.26151  -0.24861
  Beta  occ. eigenvalues --   -0.24424  -0.22938  -0.19706  -0.18570  -0.17089
  Beta  occ. eigenvalues --   -0.16449  -0.15691  -0.12894  -0.10331
  Beta virt. eigenvalues --    0.07061   0.07511   0.08704   0.08998   0.09241
  Beta virt. eigenvalues --    0.09379   0.09700   0.09890   0.11123   0.11588
  Beta virt. eigenvalues --    0.11669   0.12490   0.13165   0.13226   0.13405

 Mulliken charges and spin densities:
               1          2
     1  C   -0.285942  -0.269232
     2  C    0.226649  -0.723404
     3  C   -0.223955  -0.133183
     4  C   -0.059060   0.245765
     5  O   -0.275925  -0.001700
     6  O   -0.167234   0.028777
     7  N    0.052912   0.024048
     8  C   -0.190977   0.053720
     9  C   -0.086455   0.099760
    10  O   -0.341684   0.074536
    11  N   -0.120178  -0.045749
    12  C   -0.494703   0.188868
    13  N   -0.113412   0.031806
    14  C   -0.183750   0.023265
    15  C   -0.064417   0.169240
    16  S    0.124604   0.082572
    17  H    0.071919   0.084118
    18  H    0.118611   0.064282
    19  H    0.104512   0.020746
    20  H    0.089739   0.079201
    21  H    0.171818   0.031961
    22  H    0.157063   0.005203
    23  H   -0.590090   0.898147
    24  H    0.284606  -0.036131
    25  H    0.169662   0.020227
    26  H    0.010500  -0.019778
    27  H    0.304672   0.008573
    28  H    0.125364   0.001829
    29  H    0.185152  -0.007467
 Sum of Mulliken charges =  -1.00000   1.00000

 Dipole moment (field-independent basis, Debye):
    X=             -5.6900    Y=             -2.7594    Z=              0.0620  Tot=              6.3241
 Quadrupole moment (field-independent basis, Debye-Ang):
   XX=           -206.1247   YY=           -124.4720   ZZ=           -118.2976
   XY=              3.5067   XZ=              0.3053   YZ=              1.5873

 Summary of Natural Population Analysis:

                                       Natural Population
                Natural  -----------------------------------------------
    Atom  No    Charge         Core      Valence    Rydberg      Total
 -----------------------------------------------------------------------
      C    1   -0.28771      0.99963     2.28012    0.00796     3.28771
      C    2    0.02205      0.99954     1.96474    0.01367     2.97795
      C    3   -0.29777      0.99963     2.29062    0.00753     3.29777
      C    4    0.41433      0.99963     1.55878    0.02726     2.58567
      O    5   -0.30619      0.99987     3.30028    0.00604     4.30619
      O    6   -0.34647      0.99987     3.33892    0.00768     4.34647
      N    7   -0.34617      0.99972     2.83423    0.01222     3.84617
      C    8   -0.14241      0.99959     2.13232    0.01051     3.14241
      C    9    0.36494      0.99970     1.61326    0.02210     2.63506
      O   10   -0.30245      0.99988     3.29636    0.00621     4.30245
      N   11   -0.32619      0.99962     2.81721    0.00936     3.82619
      C   12    0.18559      0.99961     1.79659    0.01821     2.81441
      N   13   -0.27002      0.99965     2.75788    0.01250     3.77002
      C   14   -0.02333      0.99955     2.00890    0.01489     3.02333
      C   15   -0.18574      0.99955     2.17591    0.01028     3.18574
      S   16    0.16616      4.99948     2.81303    0.02133     7.83384
      H   17    0.10617      0.00000     0.39296    0.00087     0.39383
      H   18    0.10491      0.00000     0.39407    0.00102     0.39509
      H   19    0.09787      0.00000     0.40111    0.00102     0.40213
      H   20    0.10399      0.00000     0.39519    0.00083     0.39601
      H   21    0.11530      0.00000     0.38370    0.00100     0.38470
      H   22    0.09996      0.00000     0.39907    0.00097     0.40004
      H   23    0.24525      0.00000     0.22724    0.02751     0.25475
      H   24    0.19685      0.00000     0.30099    0.00216     0.30315
      H   25    0.10776      0.00000     0.39097    0.00127     0.39224
      H   26    0.10464      0.00000     0.39352    0.00184     0.39536
      H   27    0.20394      0.00000     0.29357    0.00249     0.29606
      H   28    0.09193      0.00000     0.40691    0.00116     0.40807
      H   29    0.10283      0.00000     0.39604    0.00113     0.39717
 =======================================================================
   * Total *    0.00000     19.99450    43.75449    0.25101    64.00000

 Normal termination of Gaussian 16 at Thu Dec 10 21:48:19 2020.
