 Gaussian 16, Revision A.03,

 -----------------------------------------------------------
 # opt freq B3LYP/6-31G(d) empiricaldispersion=gd3bj scf=xqc
 -----------------------------------------------------------

 -------------------------------
 CID_107857597_JID_4011_neutraal
 -------------------------------
 Symbolic Z-matrix:
 Charge =  0 Multiplicity = 1

 SCF Done:  E(RB3LYP) =  -940.186399674     A.U. after   15 cycles
 SCF Done:  E(RB3LYP) =  -940.192185171     A.U. after   12 cycles
 SCF Done:  E(RB3LYP) =  -940.193035651     A.U. after   12 cycles
 SCF Done:  E(RB3LYP) =  -940.193173447     A.U. after   11 cycles
 SCF Done:  E(RB3LYP) =  -940.193210310     A.U. after   10 cycles
 SCF Done:  E(RB3LYP) =  -940.193250111     A.U. after   10 cycles
 SCF Done:  E(RB3LYP) =  -940.193324035     A.U. after   11 cycles
 SCF Done:  E(RB3LYP) =  -940.193393800     A.U. after   12 cycles
 SCF Done:  E(RB3LYP) =  -940.193432450     A.U. after   12 cycles
 SCF Done:  E(RB3LYP) =  -940.193542051     A.U. after   10 cycles
 SCF Done:  E(RB3LYP) =  -940.194276708     A.U. after   10 cycles
 SCF Done:  E(RB3LYP) =  -940.194315729     A.U. after   10 cycles
 SCF Done:  E(RB3LYP) =  -940.194321189     A.U. after   10 cycles
 SCF Done:  E(RB3LYP) =  -940.194334699     A.U. after    9 cycles
 SCF Done:  E(RB3LYP) =  -940.194335199     A.U. after    7 cycles
 SCF Done:  E(RB3LYP) =  -940.194335231     A.U. after    7 cycles
 Optimization completed.
    -- Stationary point found.
 Normal termination of Gaussian 16 at Thu Dec 10 09:28:38 2020.

 --------------------------------------------------------------------
 #N Geom=AllCheck Guess=TCheck SCRF=Check GenChk RB3LYP/6-31G(d) Freq
 --------------------------------------------------------------------

 Structure from the checkpoint file:  "JID_4011.chk"
 -------------------------------
 CID_107857597_JID_4011_neutraal
 -------------------------------
 Charge =  0 Multiplicity = 1

 SCF Done:  E(RB3LYP) =  -940.194335231     A.U. after    1 cycles

  Exact polarizability: 195.886   3.159 134.782  -3.067   3.158 115.672
 Approx polarizability: 238.167  10.634 212.850  -4.636   9.988 175.038

                      1                      2                      3
                      A                      A                      A
 Frequencies --     25.2378                41.9548                72.1926
 Red. masses --      3.9038                 3.0174                 3.0719
 Frc consts  --      0.0015                 0.0031                 0.0094
 IR Inten    --      0.6888                 0.0175                 0.4983

                      4                      5                      6
                      A                      A                      A
 Frequencies --     74.1085                80.7798                96.9513
 Red. masses --      4.0511                 2.8007                 3.0786
 Frc consts  --      0.0131                 0.0108                 0.0170
 IR Inten    --      0.1264                 0.1056                 0.7849

                      7                      8                      9
                      A                      A                      A
 Frequencies --    133.6476               164.1278               195.5908
 Red. masses --      1.7521                 3.3132                 2.4403
 Frc consts  --      0.0184                 0.0526                 0.0550
 IR Inten    --      0.2306                 1.6018                 2.1825

                     10                     11                     12
                      A                      A                      A
 Frequencies --    229.3938               230.9504               240.6768
 Red. masses --      1.0957                 1.5074                 1.3542
 Frc consts  --      0.0340                 0.0474                 0.0462
 IR Inten    --      0.0127                 0.1905                 0.6025

                     13                     14                     15
                      A                      A                      A
 Frequencies --    245.5201               258.9699               285.8817
 Red. masses --      1.3471                 2.0143                 2.2495
 Frc consts  --      0.0478                 0.0796                 0.1083
 IR Inten    --      0.7945                 0.8333                 0.3010

                     16                     17                     18
                      A                      A                      A
 Frequencies --    305.8171               330.8218               365.1522
 Red. masses --      2.0027                 3.4616                 2.7098
 Frc consts  --      0.1104                 0.2232                 0.2129
 IR Inten    --      0.0853                 2.0700                 1.4679

                     19                     20                     21
                      A                      A                      A
 Frequencies --    381.3080               428.6304               454.6727
 Red. masses --      2.3658                 2.9920                 2.7027
 Frc consts  --      0.2027                 0.3239                 0.3292
 IR Inten    --      2.0343                 0.0638                 5.4270

                     22                     23                     24
                      A                      A                      A
 Frequencies --    494.7339               533.5442               549.9542
 Red. masses --      3.2915                 1.9943                 2.4246
 Frc consts  --      0.4747                 0.3345                 0.4321
 IR Inten    --     14.4937                52.6532                15.8421

                     25                     26                     27
                      A                      A                      A
 Frequencies --    583.6283               634.0309               661.5592
 Red. masses --      2.9076                 5.5842                 4.2465
 Frc consts  --      0.5835                 1.3226                 1.0950
 IR Inten    --      3.1122                39.5762                25.4512

                     28                     29                     30
                      A                      A                      A
 Frequencies --    687.3052               754.6056               775.0184
 Red. masses --      3.0651                 4.7347                 1.6031
 Frc consts  --      0.8531                 1.5885                 0.5673
 IR Inten    --     19.1579                 6.4511                 2.5198

                     31                     32                     33
                      A                      A                      A
 Frequencies --    801.9785               850.0439               861.1938
 Red. masses --      1.2723                 2.4053                 1.7868
 Frc consts  --      0.4821                 1.0240                 0.7808
 IR Inten    --      9.6434                10.2569                 3.8346

                     34                     35                     36
                      A                      A                      A
 Frequencies --    907.3788               931.8377               943.5166
 Red. masses --      2.2736                 1.7082                 1.2740
 Frc consts  --      1.1029                 0.8739                 0.6682
 IR Inten    --      8.5037                 7.0329                 2.9951

                     37                     38                     39
                      A                      A                      A
 Frequencies --    950.3726               977.1484              1011.4363
 Red. masses --      1.4098                 1.4460                 1.9971
 Frc consts  --      0.7502                 0.8135                 1.2037
 IR Inten    --      4.0890                 3.0611                 1.7472

                     40                     41                     42
                      A                      A                      A
 Frequencies --   1020.1060              1036.4196              1044.0669
 Red. masses --      1.9802                 1.4117                 1.8544
 Frc consts  --      1.2141                 0.8934                 1.1910
 IR Inten    --     13.5295                 5.4587                 5.6943

                     43                     44                     45
                      A                      A                      A
 Frequencies --   1066.2615              1072.6863              1139.0598
 Red. masses --      2.7859                 2.6874                 1.4686
 Frc consts  --      1.8661                 1.8219                 1.1227
 IR Inten    --     30.4889                36.3666                14.8814

                     46                     47                     48
                      A                      A                      A
 Frequencies --   1147.4250              1159.4384              1185.8816
 Red. masses --      1.8821                 2.1496                 1.9937
 Frc consts  --      1.4599                 1.7026                 1.6519
 IR Inten    --      5.2969                 2.7629                38.4024

                     49                     50                     51
                      A                      A                      A
 Frequencies --   1197.1482              1206.8706              1213.0796
 Red. masses --      1.7524                 2.3050                 1.8236
 Frc consts  --      1.4797                 1.9780                 1.5811
 IR Inten    --      1.3532                 8.0398                 1.8956

                     52                     53                     54
                      A                      A                      A
 Frequencies --   1271.8285              1294.1349              1318.1256
 Red. masses --      1.3278                 1.2843                 1.1847
 Frc consts  --      1.2655                 1.2673                 1.2128
 IR Inten    --      6.9803                 1.1771                37.0300

                     55                     56                     57
                      A                      A                      A
 Frequencies --   1321.5013              1329.3812              1342.5743
 Red. masses --      1.3070                 2.2112                 1.6391
 Frc consts  --      1.3448                 2.3024                 1.7407
 IR Inten    --     27.7652                54.6032                94.4814

                     58                     59                     60
                      A                      A                      A
 Frequencies --   1355.6834              1368.9498              1370.6581
 Red. masses --      1.2438                 1.4145                 1.3965
 Frc consts  --      1.3468                 1.5618                 1.5458
 IR Inten    --     54.9158                 6.6997                 5.5770

                     61                     62                     63
                      A                      A                      A
 Frequencies --   1398.5651              1402.2271              1417.1087
 Red. masses --      1.3779                 1.4924                 1.4274
 Frc consts  --      1.5879                 1.7289                 1.6889
 IR Inten    --      1.3431                 4.6918                 0.7709

                     64                     65                     66
                      A                      A                      A
 Frequencies --   1425.6578              1442.9273              1446.2214
 Red. masses --      1.2625                 1.2489                 1.2816
 Frc consts  --      1.5118                 1.5321                 1.5793
 IR Inten    --      6.9242                 1.2382                 7.8285

                     67                     68                     69
                      A                      A                      A
 Frequencies --   1446.6107              1490.6884              1509.3381
 Red. masses --      1.2338                 1.4844                 1.0907
 Frc consts  --      1.5213                 1.9435                 1.4640
 IR Inten    --      6.0588                23.5952                 4.8371

                     70                     71                     72
                      A                      A                      A
 Frequencies --   1516.3711              1519.7196              1522.1498
 Red. masses --      1.0705                 1.0507                 1.0468
 Frc consts  --      1.4503                 1.4298                 1.4290
 IR Inten    --      1.4263                 3.2914                 0.4431

                     73                     74                     75
                      A                      A                      A
 Frequencies --   1523.8161              1531.2304              1535.0664
 Red. masses --      1.0615                 1.0624                 1.0422
 Frc consts  --      1.4522                 1.4676                 1.4470
 IR Inten    --      4.3524                 9.1511                 1.0604

                     76                     77                     78
                      A                      A                      A
 Frequencies --   1535.2277              1538.3144              1544.4179
 Red. masses --      1.0498                 1.0462                 1.0526
 Frc consts  --      1.4578                 1.4586                 1.4793
 IR Inten    --      4.4721                 1.6187                10.5722

                     79                     80                     81
                      A                      A                      A
 Frequencies --   1545.7547              1718.3144              2967.8062
 Red. masses --      1.0732                 8.1234                 1.0821
 Frc consts  --      1.5108                14.1317                 5.6155
 IR Inten    --      5.2071               604.9669                40.6476

                     82                     83                     84
                      A                      A                      A
 Frequencies --   3022.3001              3035.0854              3038.8927
 Red. masses --      1.0836                 1.0672                 1.0382
 Frc consts  --      5.8318                 5.7920                 5.6490
 IR Inten    --     18.9566                12.0303                19.6096

                     85                     86                     87
                      A                      A                      A
 Frequencies --   3044.3984              3049.6028              3050.4737
 Red. masses --      1.0396                 1.0659                 1.0415
 Frc consts  --      5.6770                 5.8408                 5.7099
 IR Inten    --     51.8575                 3.2162                20.1448

                     88                     89                     90
                      A                      A                      A
 Frequencies --   3051.4355              3060.8861              3074.2053
 Red. masses --      1.0389                 1.0699                 1.0638
 Frc consts  --      5.6994                 5.9058                 5.9235
 IR Inten    --     20.2139                42.5245                25.7873

                     91                     92                     93
                      A                      A                      A
 Frequencies --   3084.5229              3087.3057              3099.4647
 Red. masses --      1.0977                 1.1018                 1.1002
 Frc consts  --      6.1535                 6.1873                 6.2274
 IR Inten    --     14.9321                13.9370                12.3437

                     94                     95                     96
                      A                      A                      A
 Frequencies --   3106.6920              3115.5638              3115.9191
 Red. masses --      1.0993                 1.1023                 1.1020
 Frc consts  --      6.2513                 6.3039                 6.3040
 IR Inten    --     68.4429                34.2307                40.9273

                     97                     98                     99
                      A                      A                      A
 Frequencies --   3117.0835              3121.0851              3125.4780
 Red. masses --      1.1020                 1.1012                 1.1020
 Frc consts  --      6.3084                 6.3200                 6.3427
 IR Inten    --     63.3580                41.1248                33.2725

                    100                    101                    102
                      A                      A                      A
 Frequencies --   3150.2048              3151.4313              3576.5319
 Red. masses --      1.0988                 1.1023                 1.0746
 Frc consts  --      6.4247                 6.4500                 8.0989
 IR Inten    --     15.3239                12.6647                13.4567

 - Thermochemistry -
 -------------------
 Temperature   298.150 Kelvin.  Pressure   1.00000 Atm.
 Atom     1 has atomic number  6 and mass  12.00000

 Molecular mass:   214.15037 amu.
 Principal axes and moments of inertia in atomic units:
                           1         2         3
     Eigenvalues --  1396.882056831.450367271.66303
           X            1.00000  -0.00018   0.00023
           Y            0.00019   0.99942  -0.03392
           Z           -0.00023   0.03392   0.99942
 This molecule is an asymmetric top.
 Rotational symmetry number  1.
 Warning -- assumption of classical behavior for rotation
           may cause significant error
 Rotational temperatures (Kelvin)      0.06201     0.01268     0.01191
 Rotational constants (GHZ):           1.29198     0.26418     0.24819
 Zero-point vibrational energy     850957.9 (Joules/Mol)
                                  203.38382 (Kcal/Mol)
 Warning -- explicit consideration of  25 degrees of freedom as
           vibrations may cause significant error
 Vibrational temperatures:     36.31    60.36   103.87   106.63   116.22
          (Kelvin)            139.49   192.29   236.14   281.41   330.05
                              332.29   346.28   353.25   372.60   411.32
                              440.00   475.98   525.37   548.62   616.70
                              654.17   711.81   767.65   791.26   839.71
                              912.23   951.84   988.88  1085.71  1115.08
                             1153.87  1223.02  1239.07  1305.52  1340.71
                             1357.51  1367.37  1405.90  1455.23  1467.71
                             1491.18  1502.18  1534.11  1543.36  1638.85
                             1650.89  1668.17  1706.22  1722.43  1736.42
                             1745.35  1829.88  1861.97  1896.49  1901.35
                             1912.68  1931.66  1950.53  1969.61  1972.07
                             2012.22  2017.49  2038.90  2051.20  2076.05
                             2080.79  2081.35  2144.77  2171.60  2181.72
                             2186.54  2190.03  2192.43  2203.10  2208.62
                             2208.85  2213.29  2222.07  2224.00  2472.27
                             4270.01  4348.42  4366.81  4372.29  4380.21
                             4387.70  4388.95  4390.34  4403.93  4423.10
                             4437.94  4441.94  4459.44  4469.84  4482.60
                             4483.11  4484.79  4490.55  4496.87  4532.44
                             4534.21  5145.83

 Zero-point correction=                           0.324113 (Hartree/Particle)
 Thermal correction to Energy=                    0.340877
 Thermal correction to Enthalpy=                  0.341821
 Thermal correction to Gibbs Free Energy=         0.279041
 Sum of electronic and zero-point Energies=           -939.870222
 Sum of electronic and thermal Energies=              -939.853458
 Sum of electronic and thermal Enthalpies=            -939.852514
 Sum of electronic and thermal Free Energies=         -939.915294

                     E (Thermal)             CV                S
                      KCal/Mol        Cal/Mol-Kelvin    Cal/Mol-Kelvin
 Total                  213.904             62.184            132.133
 Electronic               0.000              0.000              0.000
 Translational            0.889              2.981             41.988
 Rotational               0.889              2.981             32.606
 Vibrational            212.126             56.223             57.539
 Vibration     1          0.593              1.985              6.172
 Vibration     2          0.595              1.980              5.165
 Vibration     3          0.598              1.967              4.093
 Vibration     4          0.599              1.966              4.041
 Vibration     5          0.600              1.962              3.872
 Vibration     6          0.603              1.951              3.515
 Vibration     7          0.613              1.920              2.893
 Vibration     8          0.623              1.887              2.502
 Vibration     9          0.636              1.846              2.174
 Vibration    10          0.652              1.796              1.884
 Vibration    11          0.653              1.794              1.872
 Vibration    12          0.658              1.778              1.798
 Vibration    13          0.660              1.770              1.763
 Vibration    14          0.668              1.748              1.669
 Vibration    15          0.684              1.700              1.498
 Vibration    16          0.696              1.663              1.385
 Vibration    17          0.713              1.614              1.256
 Vibration    18          0.738              1.544              1.100
 Vibration    19          0.751              1.510              1.034
 Vibration    20          0.790              1.408              0.863
 Vibration    21          0.813              1.351              0.782
 Vibration    22          0.850              1.262              0.671
 Vibration    23          0.889              1.176              0.579
 Vibration    24          0.905              1.140              0.544
 Vibration    25          0.941              1.067              0.479

 Optimization completed.
    -- Stationary point found.
 Normal termination of Gaussian 16 at Thu Dec 10 09:38:16 2020.

 ----------------------------------------------------------------------
 # B3LYP/6-311++G(d,p) empiricaldispersion=gd3bj scf=xqc pop=npa geom=c
 heck
 ----------------------------------------------------------------------

 ---------------------------------------
 CID_107857597_JID_4011_Energie_neutraal
 ---------------------------------------
 Structure from the checkpoint file:  "JID_4011.chk"
 Charge =  0 Multiplicity = 1

 SCF Done:  E(RB3LYP) =  -940.372915390     A.U. after   16 cycles
 Normal termination of Gaussian 16 at Thu Dec 10 09:43:30 2020.

 ----------------------------------------------------------------------
 # B3LYP/6-311++G(d,p) empiricaldispersion=gd3bj scf=xqc pop=npa geom=c
 heck
 ----------------------------------------------------------------------

 -------------------------------------
 CID_107857597_JID_4011_Energie_kation
 -------------------------------------
 Structure from the checkpoint file:  "JID_4011.chk"
 Charge =  1 Multiplicity = 2

 SCF Done:  E(UB3LYP) =  -940.089852756     A.U. after   25 cycles
 Normal termination of Gaussian 16 at Thu Dec 10 09:54:33 2020.
 Gaussian 16:  ES64L-G16RevA.03 25-Dec-2016

 ----------------------------------------------------------------------
 # B3LYP/6-311++G(d,p) empiricaldispersion=gd3bj scf=xqc pop=npa geom=c
 heck
 ----------------------------------------------------------------------

 ------------------------------------
 CID_107857597_JID_4011_Energie_anion
 ------------------------------------
 Structure from the checkpoint file:  "JID_4011.chk"
 Charge = -1 Multiplicity = 2

                         Standard orientation:
 ---------------------------------------------------------------------
 Center     Atomic      Atomic             Coordinates (Angstroms)
 Number     Number       Type             X           Y           Z
 ---------------------------------------------------------------------
      1          6           0       -4.873012   -0.316697    1.011097
      2          6           0       -3.495206    0.314116    1.220777
      3          6           0       -2.429147   -0.173325    0.228166
      4          6           0       -2.798021    0.036262   -1.255981
      5          6           0       -3.045195    1.494900   -1.647801
      6          7           0       -1.159957    0.463366    0.584432
      7          6           0        0.069235    0.015338    0.189693
      8          7           0        1.125993    0.733149    0.201893
      9          6           0        2.303030    0.021290   -0.282756
     10          6           0        2.051311   -1.505807   -0.179261
     11         16           0        0.236146   -1.716059   -0.327442
     12          6           0        3.573073    0.454294    0.471704
     13          6           0        4.807841   -0.303934   -0.031359
     14          6           0        3.778881    1.968512    0.359443
     15          1           0       -5.317625   -0.018553    0.055786
     16          1           0       -5.562182   -0.012159    1.805637
     17          1           0       -4.812500   -1.411581    1.023855
     18          1           0       -3.579054    1.408011    1.157333
     19          1           0       -3.131595    0.092664    2.230709
     20          1           0       -2.293854   -1.249753    0.391644
     21          1           0       -1.982399   -0.372759   -1.863642
     22          1           0       -3.684111   -0.567652   -1.487146
     23          1           0       -2.171401    2.119261   -1.427903
     24          1           0       -3.242946    1.578327   -2.721408
     25          1           0       -3.906082    1.921233   -1.120479
     26          1           0       -1.181562    1.470693    0.695801
     27          1           0        2.441078    0.280175   -1.347115
     28          1           0        2.549740   -2.070090   -0.969098
     29          1           0        2.371357   -1.893720    0.793497
     30          1           0        3.412106    0.205018    1.530920
     31          1           0        4.961069   -0.128009   -1.104181
     32          1           0        5.708978    0.035771    0.490906
     33          1           0        4.724523   -1.385446    0.122830
     34          1           0        2.894788    2.504203    0.712634
     35          1           0        4.647799    2.287791    0.946544
     36          1           0        3.956542    2.258226   -0.684661
 ---------------------------------------------------------------------

 SCF Done:  E(UB3LYP) =  -940.358559974     A.U. after   31 cycles

 The electronic state is 2-A.
 Alpha  occ. eigenvalues --  -88.75841 -14.23850 -14.18863 -10.16822 -10.12051
 Alpha  occ. eigenvalues --  -10.11300 -10.10895 -10.08411 -10.07770 -10.07493
 Alpha  occ. eigenvalues --  -10.07009 -10.06785 -10.06679 -10.06319  -7.84481
 Alpha  occ. eigenvalues --   -5.80837  -5.80510  -5.79888  -0.87852  -0.81421
 Alpha  occ. eigenvalues --   -0.72107  -0.69970  -0.68498  -0.65962  -0.61916
 Alpha  occ. eigenvalues --   -0.59574  -0.58758  -0.53946  -0.52603  -0.48963
 Alpha  occ. eigenvalues --   -0.47346  -0.46616  -0.40480  -0.39214  -0.38373
 Alpha  occ. eigenvalues --   -0.37732  -0.36122  -0.35470  -0.34283  -0.32676
 Alpha  occ. eigenvalues --   -0.31863  -0.30940  -0.30335  -0.29578  -0.29293
 Alpha  occ. eigenvalues --   -0.29088  -0.27995  -0.27656  -0.26978  -0.26416
 Alpha  occ. eigenvalues --   -0.25325  -0.24895  -0.24178  -0.23744  -0.23259
 Alpha  occ. eigenvalues --   -0.22031  -0.17012  -0.15384  -0.12646   0.04174
 Alpha virt. eigenvalues --    0.05468   0.06963   0.07174   0.07434   0.07953
 Alpha virt. eigenvalues --    0.08148   0.09255   0.09732   0.09935   0.10326
 Alpha virt. eigenvalues --    0.10487   0.10629   0.10915   0.11121   0.11418

  Beta  occ. eigenvalues --  -88.75834 -14.23844 -14.18863 -10.16815 -10.12051
  Beta  occ. eigenvalues --  -10.11292 -10.10869 -10.08405 -10.07748 -10.07483
  Beta  occ. eigenvalues --  -10.06979 -10.06744 -10.06643 -10.06308  -7.84474
  Beta  occ. eigenvalues --   -5.80818  -5.80506  -5.79883  -0.87836  -0.81410
  Beta  occ. eigenvalues --   -0.72085  -0.69945  -0.68462  -0.65920  -0.61882
  Beta  occ. eigenvalues --   -0.59532  -0.58707  -0.53875  -0.52545  -0.48913
  Beta  occ. eigenvalues --   -0.47309  -0.46578  -0.40451  -0.39186  -0.38342
  Beta  occ. eigenvalues --   -0.37701  -0.36099  -0.35438  -0.34254  -0.32638
  Beta  occ. eigenvalues --   -0.31829  -0.30910  -0.30302  -0.29544  -0.29270
  Beta  occ. eigenvalues --   -0.29045  -0.27948  -0.27614  -0.26925  -0.26382
  Beta  occ. eigenvalues --   -0.25293  -0.24868  -0.24148  -0.23712  -0.23229
  Beta  occ. eigenvalues --   -0.21999  -0.17002  -0.15366  -0.12634
  Beta virt. eigenvalues --    0.06054   0.06501   0.07484   0.07611   0.07828
  Beta virt. eigenvalues --    0.08314   0.08446   0.09491   0.09956   0.10199
  Beta virt. eigenvalues --    0.10699   0.10745   0.10922   0.11086   0.11276

 Mulliken charges and spin densities:
               1          2
     1  C    1.347965  -2.023625
     2  C   -1.395577   1.271190
     3  C    0.625104  -0.799191
     4  C   -0.347087   0.293412
     5  C    0.828620  -1.480327
     6  N    0.132474   0.009861
     7  C   -0.283892  -0.200955
     8  N   -0.097563   0.089255
     9  C    0.070432   0.135316
    10  C   -0.104211  -0.748904
    11  S    0.274186  -0.207340
    12  C   -0.700028   1.032317
    13  C    0.371645  -0.991092
    14  C   -0.136267  -0.477945
    15  H   -0.157063   0.308605
    16  H   -0.465510   0.615236
    17  H   -0.209646   0.352252
    18  H   -0.215614   0.353089
    19  H    0.020764   0.156263
    20  H    0.145381  -0.026344
    21  H    0.032033   0.056286
    22  H   -0.109781   0.273103
    23  H   -0.127228   0.276794
    24  H   -0.155414   0.305005
    25  H   -0.152860   0.306935
    26  H    0.141430   0.146380
    27  H    0.097134   0.090466
    28  H   -0.134041   0.332071
    29  H    0.024717   0.227269
    30  H    0.093544   0.076015
    31  H   -0.054905   0.196164
    32  H   -0.284639   0.436697
    33  H   -0.169362   0.304510
    34  H    0.076312   0.070214
    35  H   -0.006216   0.132819
    36  H    0.025164   0.108195
 Sum of Mulliken charges =  -1.00000   1.00000

 Dipole moment (field-independent basis, Debye):
    X=              3.0877    Y=             -0.7922    Z=             -0.3384  Tot=              3.2056
 Quadrupole moment (field-independent basis, Debye-Ang):
   XX=           -216.9621   YY=           -136.2352   ZZ=           -132.7652
   XY=              8.6780   XZ=              4.2594   YZ=              1.2744

 Summary of Natural Population Analysis:

                                       Natural Population
                Natural  -----------------------------------------------
    Atom  No    Charge         Core      Valence    Rydberg      Total
 -----------------------------------------------------------------------
      C    1   -0.28692      0.99966     2.28199    0.00527     3.28692
      C    2   -0.19310      0.99962     2.18343    0.01005     3.19310
      C    3   -0.00821      0.99957     1.99650    0.01214     3.00821
      C    4   -0.19912      0.99961     2.19106    0.00845     3.19912
      C    5   -0.29198      0.99966     2.28664    0.00567     3.29198
      N    6   -0.32106      0.99964     2.80936    0.01206     3.82106
      C    7    0.17527      0.99956     1.80597    0.01920     2.82473
      N    8   -0.29128      0.99962     2.77979    0.01188     3.79128
      C    9   -0.01601      0.99955     2.00198    0.01448     3.01601
      C   10   -0.24771      0.99958     2.23808    0.01004     3.24771
      S   11    0.08479      4.99957     2.89939    0.01625     7.91521
      C   12   -0.11290      0.99959     2.10197    0.01135     3.11290
      C   13   -0.28721      0.99965     2.28151    0.00605     3.28721
      C   14   -0.28412      0.99965     2.27948    0.00498     3.28412
      H   15    0.09912      0.00000     0.39949    0.00140     0.40088
      H   16    0.10303      0.00000     0.39567    0.00130     0.39697
      H   17    0.09602      0.00000     0.40289    0.00109     0.40398
      H   18    0.09654      0.00000     0.40198    0.00148     0.40346
      H   19    0.10176      0.00000     0.39711    0.00113     0.39824
      H   20    0.10048      0.00000     0.39737    0.00215     0.39952
      H   21    0.10178      0.00000     0.39684    0.00138     0.39822
      H   22    0.09910      0.00000     0.39984    0.00106     0.40090
      H   23    0.09692      0.00000     0.40184    0.00124     0.40308
      H   24    0.10171      0.00000     0.39745    0.00084     0.39829
      H   25    0.09912      0.00000     0.39959    0.00129     0.40088
      H   26    0.19339      0.00000     0.30350    0.00311     0.30661
      H   27    0.08968      0.00000     0.40877    0.00155     0.41032
      H   28    0.10973      0.00000     0.38885    0.00142     0.39027
      H   29    0.10012      0.00000     0.39844    0.00145     0.39988
      H   30    0.09358      0.00000     0.40460    0.00182     0.40642
      H   31    0.09682      0.00000     0.40214    0.00104     0.40318
      H   32    0.10047      0.00000     0.39858    0.00094     0.39953
      H   33    0.10017      0.00000     0.39867    0.00116     0.39983
      H   34    0.11036      0.00000     0.38828    0.00136     0.38964
      H   35    0.09520      0.00000     0.40400    0.00080     0.40480
      H   36    0.09446      0.00000     0.40463    0.00091     0.40554
 =======================================================================
   * Total *   -0.00000     17.99454    40.82765    0.17782    59.00000

 Normal termination of Gaussian 16 at Thu Dec 10 10:08:08 2020.
