 Gaussian 16, Revision A.03,

 -----------------------------------------------------------
 # opt freq B3LYP/6-31G(d) empiricaldispersion=gd3bj scf=xqc
 -----------------------------------------------------------

 ------------------------------
 CID_21707914_JID_1511_neutraal
 ------------------------------
 Symbolic Z-matrix:
 Charge =  0 Multiplicity = 1

 SCF Done:  E(RB3LYP) =  -428.808365347     A.U. after   14 cycles
 SCF Done:  E(RB3LYP) =  -428.809838606     A.U. after   11 cycles
 SCF Done:  E(RB3LYP) =  -428.810045036     A.U. after   10 cycles
 SCF Done:  E(RB3LYP) =  -428.810076896     A.U. after   10 cycles
 SCF Done:  E(RB3LYP) =  -428.810082078     A.U. after    9 cycles
 SCF Done:  E(RB3LYP) =  -428.810083749     A.U. after    9 cycles
 SCF Done:  E(RB3LYP) =  -428.810084687     A.U. after    8 cycles
 SCF Done:  E(RB3LYP) =  -428.810085078     A.U. after    7 cycles
 SCF Done:  E(RB3LYP) =  -428.810085151     A.U. after    7 cycles
 SCF Done:  E(RB3LYP) =  -428.810085158     A.U. after    7 cycles
 Optimization completed.
    -- Stationary point found.
 Normal termination of Gaussian 16 at Tue Dec  8 20:16:17 2020.

 --------------------------------------------------------------------
 #N Geom=AllCheck Guess=TCheck SCRF=Check GenChk RB3LYP/6-31G(d) Freq
 --------------------------------------------------------------------

 Structure from the checkpoint file:  "JID_1511.chk"
 ------------------------------
 CID_21707914_JID_1511_neutraal
 ------------------------------
 Charge =  0 Multiplicity = 1

 SCF Done:  E(RB3LYP) =  -428.810085158     A.U. after    1 cycles

  Exact polarizability: 125.169   7.708 101.756  -2.143   3.567  91.473
 Approx polarizability: 171.858  17.857 151.987  -2.128   6.145 138.252

                      1                      2                      3
                      A                      A                      A
 Frequencies --     42.2447                81.6765               221.2165
 Red. masses --      2.9731                 2.7356                 2.5807
 Frc consts  --      0.0031                 0.0108                 0.0744
 IR Inten    --      0.0114                 0.0148                 0.1613

                      4                      5                      6
                      A                      A                      A
 Frequencies --    244.2519               284.2237               302.7835
 Red. masses --      1.2333                 1.6262                 1.8779
 Frc consts  --      0.0434                 0.0774                 0.1014
 IR Inten    --      0.0230                 0.0455                 0.1135

                      7                      8                      9
                      A                      A                      A
 Frequencies --    319.3890               340.9971               368.0224
 Red. masses --      2.3930                 2.8340                 2.5285
 Frc consts  --      0.1438                 0.1942                 0.2018
 IR Inten    --      0.3519                 0.8482                 0.5924

                     10                     11                     12
                      A                      A                      A
 Frequencies --    393.1501               463.1449               500.0864
 Red. masses --      2.7593                 2.8356                 3.3836
 Frc consts  --      0.2513                 0.3584                 0.4986
 IR Inten    --      1.4046                 1.4208                 0.9546

                     13                     14                     15
                      A                      A                      A
 Frequencies --    617.8302               634.5671               662.4422
 Red. masses --      3.2889                 3.8426                 3.6229
 Frc consts  --      0.7397                 0.9116                 0.9367
 IR Inten    --      0.1096                 0.4184                 0.5174

                     16                     17                     18
                      A                      A                      A
 Frequencies --    685.4438               709.6285               768.0132
 Red. masses --      1.9240                 1.6930                 2.8088
 Frc consts  --      0.5326                 0.5023                 0.9761
 IR Inten    --      5.1903                22.2373                 8.2576

                     19                     20                     21
                      A                      A                      A
 Frequencies --    823.6899               837.3609               856.8022
 Red. masses --      1.9016                 1.6636                 2.6238
 Frc consts  --      0.7601                 0.6873                 1.1349
 IR Inten    --      1.0904                 3.8490                 6.3819

                     22                     23                     24
                      A                      A                      A
 Frequencies --    924.0871               936.4432               956.4239
 Red. masses --      1.8180                 1.3569                 1.5068
 Frc consts  --      0.9147                 0.7010                 0.8121
 IR Inten    --      0.5644                34.2956                 1.0155

                     25                     26                     27
                      A                      A                      A
 Frequencies --    963.9513               976.0575               984.9041
 Red. masses --      1.7847                 2.3103                 2.2048
 Frc consts  --      0.9771                 1.2968                 1.2601
 IR Inten    --      1.4558                 0.8563                 0.5829

                     28                     29                     30
                      A                      A                      A
 Frequencies --   1004.5135              1036.1014              1046.3967
 Red. masses --      1.9112                 2.8736                 1.1653
 Frc consts  --      1.1363                 1.8175                 0.7517
 IR Inten    --      1.2718                 0.3943                11.3972

                     31                     32                     33
                      A                      A                      A
 Frequencies --   1053.5515              1069.4814              1091.2382
 Red. masses --      1.9689                 2.1272                 2.1262
 Frc consts  --      1.2876                 1.4335                 1.4918
 IR Inten    --      1.2893                 0.1203                 0.5343

                     34                     35                     36
                      A                      A                      A
 Frequencies --   1095.5072              1127.7845              1161.2435
 Red. masses --      1.9138                 1.4419                 1.2155
 Frc consts  --      1.3532                 1.0805                 0.9658
 IR Inten    --      0.1383                 1.8375                 0.4322

                     37                     38                     39
                      A                      A                      A
 Frequencies --   1182.3319              1202.5324              1211.5636
 Red. masses --      1.4741                 1.5630                 1.2791
 Frc consts  --      1.2141                 1.3317                 1.1063
 IR Inten    --      3.4831                 1.3961                 4.0838

                     40                     41                     42
                      A                      A                      A
 Frequencies --   1268.7536              1291.9515              1314.5169
 Red. masses --      1.1815                 1.5292                 1.3738
 Frc consts  --      1.1205                 1.5039                 1.3986
 IR Inten    --      0.1447                 0.5484                 1.2886

                     43                     44                     45
                      A                      A                      A
 Frequencies --   1325.7119              1339.0993              1346.9476
 Red. masses --      1.2692                 1.2919                 1.2966
 Frc consts  --      1.3142                 1.3649                 1.3859
 IR Inten    --      0.4770                 1.6886                 1.3348

                     46                     47                     48
                      A                      A                      A
 Frequencies --   1350.3919              1364.2491              1374.4933
 Red. masses --      1.3430                 1.3052                 1.4641
 Frc consts  --      1.4429                 1.4312                 1.6297
 IR Inten    --      2.2994                 1.7453                 1.1469

                     49                     50                     51
                      A                      A                      A
 Frequencies --   1388.0382              1393.7769              1410.4850
 Red. masses --      1.3977                 1.4280                 1.7543
 Frc consts  --      1.5865                 1.6344                 2.0563
 IR Inten    --      1.8667                 0.7039                 0.1526

                     52                     53                     54
                      A                      A                      A
 Frequencies --   1440.6482              1481.2281              1518.2841
 Red. masses --      1.2393                 1.2118                 1.0654
 Frc consts  --      1.5154                 1.5665                 1.4470
 IR Inten    --      3.3989                 2.5023                 3.0304

                     55                     56                     57
                      A                      A                      A
 Frequencies --   1529.0822              1537.0036              1548.2015
 Red. masses --      1.0560                 1.0589                 1.0846
 Frc consts  --      1.4547                 1.4739                 1.5317
 IR Inten    --      2.0840                 5.1363                 6.4959

                     58                     59                     60
                      A                      A                      A
 Frequencies --   1697.4582              1727.5124              3042.7392
 Red. masses --      5.7705                 4.4659                 1.0859
 Frc consts  --      9.7963                 7.8524                 5.9234
 IR Inten    --      1.2283                 6.9820                 4.3429

                     61                     62                     63
                      A                      A                      A
 Frequencies --   3050.5750              3060.1778              3063.1733
 Red. masses --      1.0381                 1.0618                 1.0848
 Frc consts  --      5.6919                 5.8585                 5.9969
 IR Inten    --     17.4963                15.6090                27.9230

                     64                     65                     66
                      A                      A                      A
 Frequencies --   3069.3905              3078.7324              3090.9697
 Red. masses --      1.0686                 1.0770                 1.1026
 Frc consts  --      5.9316                 6.0149                 6.2069
 IR Inten    --     55.9189                75.7771                 5.7222

                     67                     68                     69
                      A                      A                      A
 Frequencies --   3092.3529              3110.9524              3115.0086
 Red. masses --      1.0885                 1.1044                 1.1012
 Frc consts  --      6.1329                 6.2973                 6.2955
 IR Inten    --     22.4473                49.1994                56.4168

                     70                     71                     72
                      A                      A                      A
 Frequencies --   3126.4167              3150.9671              3163.2759
 Red. masses --      1.1011                 1.0595                 1.0895
 Frc consts  --      6.3413                 6.1975                 6.4229
 IR Inten    --     21.6162                19.6136                13.2944

                     73                     74                     75
                      A                      A                      A
 Frequencies --   3178.3497              3201.7492              3232.7172
 Red. masses --      1.0853                 1.1020                 1.1155
 Frc consts  --      6.4595                 6.6557                 6.8681
 IR Inten    --     10.3996                39.0530                22.7306

 - Thermochemistry -
 -------------------
 Temperature   298.150 Kelvin.  Pressure   1.00000 Atm.
 Atom     1 has atomic number  6 and mass  12.00000

 Molecular mass:   148.12520 amu.
 Principal axes and moments of inertia in atomic units:
                           1         2         3
     Eigenvalues --  1070.444111752.070452065.48979
           X            0.99999   0.00081   0.00494
           Y           -0.00086   0.99995   0.00961
           Z           -0.00493  -0.00961   0.99994
 This molecule is an asymmetric top.
 Rotational symmetry number  1.
 Warning -- assumption of classical behavior for rotation
           may cause significant error
 Rotational temperatures (Kelvin)      0.08091     0.04944     0.04193
 Rotational constants (GHZ):           1.68597     1.03006     0.87376
 Zero-point vibrational energy     643928.6 (Joules/Mol)
                                  153.90263 (Kcal/Mol)
 Warning -- explicit consideration of  13 degrees of freedom as
           vibrations may cause significant error
 Vibrational temperatures:     60.78   117.51   318.28   351.42   408.93
          (Kelvin)            435.64   459.53   490.62   529.50   565.66
                              666.36   719.51   888.92   913.00   953.11
                              986.20  1021.00  1105.00  1185.11  1204.78
                             1232.75  1329.56  1347.33  1376.08  1386.91
                             1404.33  1417.06  1445.27  1490.72  1505.53
                             1515.83  1538.75  1570.05  1576.19  1622.63
                             1670.77  1701.11  1730.18  1743.17  1825.45
                             1858.83  1891.30  1907.40  1926.67  1937.96
                             1942.91  1962.85  1977.59  1997.08  2005.33
                             2029.37  2072.77  2131.16  2184.47  2200.01
                             2211.41  2227.52  2442.26  2485.50  4377.82
                             4389.10  4402.91  4407.22  4416.17  4429.61
                             4447.22  4449.21  4475.97  4481.80  4498.22
                             4533.54  4551.25  4572.94  4606.60  4651.16

 Zero-point correction=                           0.245259 (Hartree/Particle)
 Thermal correction to Energy=                    0.255144
 Thermal correction to Enthalpy=                  0.256088
 Thermal correction to Gibbs Free Energy=         0.210190
 Sum of electronic and zero-point Energies=           -428.564826
 Sum of electronic and thermal Energies=              -428.554942
 Sum of electronic and thermal Enthalpies=            -428.553997
 Sum of electronic and thermal Free Energies=         -428.599895

                     E (Thermal)             CV                S
                      KCal/Mol        Cal/Mol-Kelvin    Cal/Mol-Kelvin
 Total                  160.105             40.638             96.601
 Electronic               0.000              0.000              0.000
 Translational            0.889              2.981             40.889
 Rotational               0.889              2.981             29.739
 Vibrational            158.328             34.677             25.972
 Vibration     1          0.595              1.980              5.151
 Vibration     2          0.600              1.962              3.850
 Vibration     3          0.648              1.809              1.949
 Vibration     4          0.660              1.772              1.772
 Vibration     5          0.683              1.703              1.508
 Vibration     6          0.694              1.668              1.401
 Vibration     7          0.705              1.636              1.313
 Vibration     8          0.721              1.594              1.207
 Vibration     9          0.741              1.538              1.088
 Vibration    10          0.760              1.485              0.988
 Vibration    11          0.821              1.332              0.757
 Vibration    12          0.855              1.250              0.658
 Vibration    13          0.978              0.994              0.420

 Optimization completed.
    -- Stationary point found.
 Normal termination of Gaussian 16 at Tue Dec  8 20:23:29 2020.

 ----------------------------------------------------------------------
 # B3LYP/6-311++G(d,p) empiricaldispersion=gd3bj scf=xqc pop=npa geom=c
 heck
 ----------------------------------------------------------------------

 --------------------------------------
 CID_21707914_JID_1511_Energie_neutraal
 --------------------------------------
 Structure from the checkpoint file:  "JID_1511.chk"
 Charge =  0 Multiplicity = 1

 SCF Done:  E(RB3LYP) =  -428.924853131     A.U. after   13 cycles
 Normal termination of Gaussian 16 at Tue Dec  8 20:27:32 2020.

 ----------------------------------------------------------------------
 # B3LYP/6-311++G(d,p) empiricaldispersion=gd3bj scf=xqc pop=npa geom=c
 heck
 ----------------------------------------------------------------------

 ------------------------------------
 CID_21707914_JID_1511_Energie_kation
 ------------------------------------
 Structure from the checkpoint file:  "JID_1511.chk"
 Charge =  1 Multiplicity = 2

 SCF Done:  E(UB3LYP) =  -428.613761444     A.U. after   18 cycles
 Normal termination of Gaussian 16 at Tue Dec  8 20:33:52 2020.
 Gaussian 16:  ES64L-G16RevA.03 25-Dec-2016

 ----------------------------------------------------------------------
 # B3LYP/6-311++G(d,p) empiricaldispersion=gd3bj scf=xqc pop=npa geom=c
 heck
 ----------------------------------------------------------------------

 -----------------------------------
 CID_21707914_JID_1511_Energie_anion
 -----------------------------------
 Structure from the checkpoint file:  "JID_1511.chk"
 Charge = -1 Multiplicity = 2

                         Standard orientation:
 ---------------------------------------------------------------------
 Center     Atomic      Atomic             Coordinates (Angstroms)
 Number     Number       Type             X           Y           Z
 ---------------------------------------------------------------------
      1          6           0       -0.794740    2.236795   -0.044336
      2          6           0       -0.065051    1.051582   -0.686272
      3          6           0        1.408269    0.916946   -0.194560
      4          6           0        1.420579    0.498502    1.299784
      5          6           0        0.734220   -0.885111    1.449287
      6          6           0        0.251502   -1.369447    0.056863
      7          6           0       -0.782515   -0.343436   -0.521565
      8          6           0       -2.046291   -0.311348    0.292391
      9          6           0       -3.237533   -0.711297   -0.154110
     10          6           0        1.451107   -1.380934   -0.860053
     11          6           0        2.055889   -0.194581   -0.986467
     12          1           0       -0.874245    2.147788    1.043695
     13          1           0       -1.811858    2.329812   -0.438241
     14          1           0       -0.259766    3.169158   -0.260369
     15          1           0       -0.015494    1.258838   -1.761273
     16          1           0        1.927394    1.872388   -0.326134
     17          1           0        0.912416    1.255899    1.905824
     18          1           0        2.456148    0.458674    1.651589
     19          1           0       -0.110743   -0.833588    2.143886
     20          1           0        1.431811   -1.622491    1.858328
     21          1           0       -0.221960   -2.352452    0.136207
     22          1           0       -1.055711   -0.702536   -1.519774
     23          1           0       -1.969711    0.050117    1.316825
     24          1           0       -4.123824   -0.690037    0.474383
     25          1           0       -3.370492   -1.077110   -1.170565
     26          1           0        1.778347   -2.289430   -1.358733
     27          1           0        2.935074   -0.021062   -1.601420
 ---------------------------------------------------------------------

 SCF Done:  E(UB3LYP) =  -428.906831161     A.U. after   33 cycles
 SCF Done:  E(UB3LYP) =  -428.906831161     a.u. after    1 cycles

 The electronic state is 2-A.
 Alpha  occ. eigenvalues --  -10.07165 -10.07104 -10.07012 -10.06827 -10.06518
 Alpha  occ. eigenvalues --  -10.06173 -10.05911 -10.05689 -10.05542 -10.05457
 Alpha  occ. eigenvalues --  -10.05037  -0.76313  -0.68792  -0.66161  -0.63436
 Alpha  occ. eigenvalues --   -0.62389  -0.56971  -0.50536  -0.48989  -0.47483
 Alpha  occ. eigenvalues --   -0.44095  -0.40893  -0.38028  -0.37314  -0.34488
 Alpha  occ. eigenvalues --   -0.34190  -0.31248  -0.30387  -0.30303  -0.28802
 Alpha  occ. eigenvalues --   -0.27732  -0.26505  -0.25571  -0.24860  -0.24457
 Alpha  occ. eigenvalues --   -0.24215  -0.20222  -0.18817  -0.18399  -0.16002
 Alpha  occ. eigenvalues --   -0.13791   0.04788
 Alpha virt. eigenvalues --    0.07075   0.07430   0.07882   0.08912   0.09141
 Alpha virt. eigenvalues --    0.09431   0.09835   0.10185   0.10740   0.11384
 Alpha virt. eigenvalues --    0.11691   0.12558   0.13104   0.13308   0.13754

  Beta  occ. eigenvalues --  -10.07156 -10.07096 -10.07006 -10.06819 -10.06506
  Beta  occ. eigenvalues --  -10.06152 -10.05897 -10.05669 -10.05528 -10.05444
  Beta  occ. eigenvalues --  -10.05009  -0.76285  -0.68770  -0.66131  -0.63401
  Beta  occ. eigenvalues --   -0.62358  -0.56923  -0.50493  -0.48945  -0.47439
  Beta  occ. eigenvalues --   -0.44045  -0.40829  -0.37991  -0.37276  -0.34454
  Beta  occ. eigenvalues --   -0.34150  -0.31214  -0.30360  -0.30265  -0.28768
  Beta  occ. eigenvalues --   -0.27694  -0.26477  -0.25533  -0.24837  -0.24426
  Beta  occ. eigenvalues --   -0.24183  -0.20190  -0.18789  -0.18366  -0.15981
  Beta  occ. eigenvalues --   -0.13772
  Beta virt. eigenvalues --    0.06973   0.07889   0.08288   0.08527   0.09287
  Beta virt. eigenvalues --    0.09625   0.09937   0.10274   0.10761   0.11246
  Beta virt. eigenvalues --    0.11606   0.12187   0.13000   0.13564   0.13742

 Mulliken charges and spin densities:
               1          2
     1  C    1.244760  -1.924884
     2  C    0.083633  -0.164609
     3  C   -0.794706   1.048503
     4  C    0.964991  -1.507795
     5  C   -0.426306  -0.021122
     6  C    0.766606  -0.601190
     7  C    0.672468  -0.721401
     8  C   -2.057492   2.215878
     9  C    1.366157  -2.006966
    10  C   -0.001149  -0.374160
    11  C    0.298727  -0.707839
    12  H   -0.090870   0.235810
    13  H    0.067655   0.086961
    14  H   -0.275196   0.411642
    15  H   -0.261540   0.472667
    16  H   -0.387301   0.637128
    17  H    0.010830   0.121519
    18  H   -0.294964   0.452902
    19  H    0.010199   0.109547
    20  H   -0.139172   0.301355
    21  H    0.021950   0.215899
    22  H   -0.080041   0.298256
    23  H   -0.238418   0.411985
    24  H   -0.243694   0.372135
    25  H   -0.136585   0.250458
    26  H   -0.537292   0.690405
    27  H   -0.543250   0.696917
 Sum of Mulliken charges =  -1.00000   1.00000

 Dipole moment (field-independent basis, Debye):
    X=             -1.9813    Y=             -0.8095    Z=              1.0271  Tot=              2.3740
 Quadrupole moment (field-independent basis, Debye-Ang):
   XX=           -124.6755   YY=           -114.1719   ZZ=           -107.6613
   XY=             -1.9473   XZ=              3.4799   YZ=             -0.5899

 Summary of Natural Population Analysis:

                                       Natural Population
                Natural  -----------------------------------------------
    Atom  No    Charge         Core      Valence    Rydberg      Total
 -----------------------------------------------------------------------
      C    1   -0.28788      0.99964     2.28205    0.00619     3.28788
      C    2   -0.09922      0.99958     2.08787    0.01178     3.09922
      C    3   -0.12774      0.99958     2.11489    0.01328     3.12774
      C    4   -0.18935      0.99962     2.18067    0.00906     3.18935
      C    5   -0.18914      0.99962     2.18082    0.00870     3.18914
      C    6   -0.12224      0.99958     2.11068    0.01197     3.12224
      C    7   -0.12036      0.99954     2.10681    0.01400     3.12036
      C    8   -0.07900      0.99954     2.06679    0.01267     3.07900
      C    9   -0.19079      0.99955     2.18508    0.00616     3.19079
      C   10   -0.09368      0.99951     2.08219    0.01199     3.09368
      C   11   -0.08833      0.99951     2.07660    0.01221     3.08833
      H   12    0.09586      0.00000     0.40272    0.00142     0.40414
      H   13    0.10293      0.00000     0.39612    0.00095     0.39707
      H   14    0.10134      0.00000     0.39751    0.00115     0.39866
      H   15    0.09952      0.00000     0.39870    0.00178     0.40048
      H   16    0.10648      0.00000     0.39091    0.00261     0.39352
      H   17    0.09879      0.00000     0.39971    0.00150     0.40121
      H   18    0.10087      0.00000     0.39782    0.00130     0.39913
      H   19    0.09751      0.00000     0.40093    0.00156     0.40249
      H   20    0.10019      0.00000     0.39868    0.00113     0.39981
      H   21    0.10494      0.00000     0.39339    0.00167     0.39506
      H   22    0.10191      0.00000     0.39613    0.00196     0.39809
      H   23    0.09310      0.00000     0.40488    0.00201     0.40690
      H   24    0.09237      0.00000     0.40650    0.00113     0.40763
      H   25    0.08951      0.00000     0.40907    0.00142     0.41049
      H   26    0.10093      0.00000     0.39774    0.00133     0.39907
      H   27    0.10148      0.00000     0.39703    0.00149     0.39852
 =======================================================================
   * Total *   -0.00000     10.99525    29.86231    0.14244    41.00000

 Normal termination of Gaussian 16 at Tue Dec  8 20:45:43 2020.
