 Gaussian 16, Revision A.03,

 -----------------------------------------------------------
 # opt freq B3LYP/6-31G(d) empiricaldispersion=gd3bj scf=xqc
 -----------------------------------------------------------

 ------------------------------
 CID_15254205_JID_2494_neutraal
 ------------------------------
 Symbolic Z-matrix:
 Charge =  0 Multiplicity = 1

 SCF Done:  E(RB3LYP) =  -646.106294082     A.U. after   16 cycles
 SCF Done:  E(RB3LYP) =  -646.109163982     A.U. after   15 cycles
 SCF Done:  E(RB3LYP) =  -646.093708351     A.U. after   17 cycles
 SCF Done:  E(RB3LYP) =  -646.111475235     A.U. after   15 cycles
 SCF Done:  E(RB3LYP) =  -646.112288992     A.U. after   15 cycles
 SCF Done:  E(RB3LYP) =  -646.111829592     A.U. after   16 cycles
 SCF Done:  E(RB3LYP) =  -646.111150277     A.U. after   15 cycles
 SCF Done:  E(RB3LYP) =  -646.109071102     A.U. after   14 cycles
 SCF Done:  E(RB3LYP) =  -646.113036803     A.U. after   11 cycles
 SCF Done:  E(RB3LYP) =  -646.115058675     A.U. after   16 cycles
 SCF Done:  E(RB3LYP) =  -646.115656872     A.U. after   13 cycles
 SCF Done:  E(RB3LYP) =  -646.115717053     A.U. after   13 cycles
 SCF Done:  E(RB3LYP) =  -646.115722354     A.U. after   11 cycles
 SCF Done:  E(RB3LYP) =  -646.115724001     A.U. after    9 cycles
 SCF Done:  E(RB3LYP) =  -646.115724123     A.U. after    8 cycles
 Optimization completed.
    -- Stationary point found.
 Normal termination of Gaussian 16 at Wed Dec  9 17:29:43 2020.

 --------------------------------------------------------------------
 #N Geom=AllCheck Guess=TCheck SCRF=Check GenChk RB3LYP/6-31G(d) Freq
 --------------------------------------------------------------------

 Structure from the checkpoint file:  "JID_2494.chk"
 ------------------------------
 CID_15254205_JID_2494_neutraal
 ------------------------------
 Charge =  0 Multiplicity = 1

 SCF Done:  E(RB3LYP) =  -646.115724123     A.U. after    1 cycles

  Exact polarizability:  99.419  -1.859  82.224  -1.243   3.463  83.440
 Approx polarizability: 166.073   2.336 120.148  -4.007  11.464 135.697

                      1                      2                      3
                      A                      A                      A
 Frequencies --     49.0704                68.3490                90.1259
 Red. masses --      6.5166                 5.6962                 3.7946
 Frc consts  --      0.0092                 0.0157                 0.0182
 IR Inten    --      0.3139                 0.3277                 1.1462

                      4                      5                      6
                      A                      A                      A
 Frequencies --    113.4725               130.3477               167.7658
 Red. masses --      3.2359                 3.3308                 7.1914
 Frc consts  --      0.0245                 0.0333                 0.1193
 IR Inten    --      0.4304                 0.4593                 0.5108

                      7                      8                      9
                      A                      A                      A
 Frequencies --    181.6944               220.0262               238.5836
 Red. masses --      3.8344                 2.4298                 1.5214
 Frc consts  --      0.0746                 0.0693                 0.0510
 IR Inten    --      3.7161                 1.8710                 0.4266

                     10                     11                     12
                      A                      A                      A
 Frequencies --    267.9573               297.0009               333.5207
 Red. masses --      1.2466                 4.0311                 1.7883
 Frc consts  --      0.0527                 0.2095                 0.1172
 IR Inten    --      0.5561                 5.8536                 0.7456

                     13                     14                     15
                      A                      A                      A
 Frequencies --    359.1932               384.1065               459.7627
 Red. masses --      4.2381                 3.9132                 5.2301
 Frc consts  --      0.3222                 0.3402                 0.6514
 IR Inten    --      2.8438                 2.4763                 7.8295

                     16                     17                     18
                      A                      A                      A
 Frequencies --    517.8560               565.8056               602.4817
 Red. masses --      5.3531                 4.9562                 4.4333
 Frc consts  --      0.8458                 0.9348                 0.9481
 IR Inten    --      5.8564                 7.0898                 6.1262

                     19                     20                     21
                      A                      A                      A
 Frequencies --    649.3972               715.5126               767.8832
 Red. masses --      3.2506                 3.6807                 1.6098
 Frc consts  --      0.8077                 1.1103                 0.5592
 IR Inten    --      5.9322                 4.1272                 2.4592

                     22                     23                     24
                      A                      A                      A
 Frequencies --    813.2992               840.3648               854.9148
 Red. masses --      2.2204                 1.8025                 4.0841
 Frc consts  --      0.8653                 0.7500                 1.7587
 IR Inten    --     33.4161                10.8773                18.1483

                     25                     26                     27
                      A                      A                      A
 Frequencies --    895.7353               915.1525               962.2561
 Red. masses --      3.5729                 4.0248                 2.0902
 Frc consts  --      1.6890                 1.9860                 1.1403
 IR Inten    --      3.7148                 7.6563                 9.9990

                     28                     29                     30
                      A                      A                      A
 Frequencies --    994.0145              1056.3473              1079.9381
 Red. masses --      1.8208                 2.0646                 1.5963
 Frc consts  --      1.0600                 1.3573                 1.0969
 IR Inten    --      3.2861                 1.2484                 1.4011

                     31                     32                     33
                      A                      A                      A
 Frequencies --   1111.6178              1143.5525              1178.5805
 Red. masses --      1.9417                 1.7589                 2.1876
 Frc consts  --      1.4136                 1.3552                 1.7903
 IR Inten    --      4.3484                 4.5442                 0.3686

                     34                     35                     36
                      A                      A                      A
 Frequencies --   1190.7060              1281.9677              1311.6392
 Red. masses --      1.8457                 1.3726                 1.2645
 Frc consts  --      1.5418                 1.3291                 1.2817
 IR Inten    --      3.2235                 0.7608                 4.2661

                     37                     38                     39
                      A                      A                      A
 Frequencies --   1339.0046              1345.7840              1370.1987
 Red. masses --      1.2866                 1.1906                 1.5419
 Frc consts  --      1.3591                 1.2705                 1.7056
 IR Inten    --      9.6603                 5.6641                13.4302

                     40                     41                     42
                      A                      A                      A
 Frequencies --   1379.8012              1400.3999              1409.3014
 Red. masses --      1.4700                 1.6867                 1.5282
 Frc consts  --      1.6490                 1.9489                 1.7882
 IR Inten    --      2.2511                14.0518                11.1399

                     43                     44                     45
                      A                      A                      A
 Frequencies --   1426.0432              1441.6552              1448.7557
 Red. masses --      5.0213                 4.3211                 1.2368
 Frc consts  --      6.0163                 5.2914                 1.5295
 IR Inten    --     66.8676                67.4783                 0.2054

                     46                     47                     48
                      A                      A                      A
 Frequencies --   1452.9106              1504.3506              1523.4429
 Red. masses --      1.2563                 1.0859                 1.0563
 Frc consts  --      1.5625                 1.4479                 1.4444
 IR Inten    --     15.0499                12.2535                 6.4488

                     49                     50                     51
                      A                      A                      A
 Frequencies --   1532.4354              1537.3328              1541.4462
 Red. masses --      1.0571                 1.0486                 1.0605
 Frc consts  --      1.4626                 1.4601                 1.4846
 IR Inten    --      5.8178                20.1812                 9.4554

                     52                     53                     54
                      A                      A                      A
 Frequencies --   1544.3613              1666.2385              1678.5615
 Red. masses --      1.0542                12.5869                12.1134
 Frc consts  --      1.4814                20.5893                20.1090
 IR Inten    --      8.8480               226.4761               214.8588

                     55                     56                     57
                      A                      A                      A
 Frequencies --   3054.2246              3056.3830              3073.3834
 Red. masses --      1.0376                 1.0685                 1.0380
 Frc consts  --      5.7025                 5.8810                 5.7765
 IR Inten    --     17.6738                17.7947                17.7153

                     58                     59                     60
                      A                      A                      A
 Frequencies --   3084.4767              3095.2780              3107.3315
 Red. masses --      1.0663                 1.0839                 1.0842
 Frc consts  --      5.9774                 6.1182                 6.1676
 IR Inten    --     10.4639                 5.2950                 3.0761

                     61                     62                     63
                      A                      A                      A
 Frequencies --   3112.1272              3112.9500              3132.2169
 Red. masses --      1.0964                 1.0975                 1.1010
 Frc consts  --      6.2566                 6.2660                 6.3643
 IR Inten    --      6.2840                 7.0167                20.5098

                     64                     65                     66
                      A                      A                      A
 Frequencies --   3134.5683              3140.7925              3170.0487
 Red. masses --      1.1004                 1.1014                 1.1017
 Frc consts  --      6.3700                 6.4014                 6.5228
 IR Inten    --     32.6105                21.7406                 8.2231

 - Thermochemistry -
 -------------------
 Temperature   298.150 Kelvin.  Pressure   1.00000 Atm.
 Atom     1 has atomic number  6 and mass  12.00000

 Molecular mass:   176.07971 amu.
 Principal axes and moments of inertia in atomic units:
                           1         2         3
     Eigenvalues --  1664.323302249.264952502.73793
           X            0.99276  -0.11647  -0.02919
           Y            0.11817   0.99083   0.06548
           Z            0.02130  -0.06846   0.99743
 This molecule is an asymmetric top.
 Rotational symmetry number  1.
 Warning -- assumption of classical behavior for rotation
           may cause significant error
 Rotational temperatures (Kelvin)      0.05204     0.03851     0.03461
 Rotational constants (GHZ):           1.08437     0.80237     0.72111
 Zero-point vibrational energy     518137.4 (Joules/Mol)
                                  123.83780 (Kcal/Mol)
 Warning -- explicit consideration of  18 degrees of freedom as
           vibrations may cause significant error
 Vibrational temperatures:     70.60    98.34   129.67   163.26   187.54
          (Kelvin)            241.38   261.42   316.57   343.27   385.53
                              427.32   479.86   516.80   552.64   661.50
                              745.08   814.07   866.84   934.34  1029.46
                             1104.81  1170.16  1209.10  1230.03  1288.76
                             1316.70  1384.47  1430.17  1519.85  1553.79
                             1599.37  1645.32  1695.71  1713.16  1844.47
                             1887.16  1926.53  1936.28  1971.41  1985.23
                             2014.86  2027.67  2051.76  2074.22  2084.44
                             2090.41  2164.43  2191.89  2204.83  2211.88
                             2217.80  2221.99  2397.35  2415.08  4394.35
                             4397.45  4421.91  4437.87  4453.41  4470.76
                             4477.66  4478.84  4506.56  4509.94  4518.90
                             4560.99

 Zero-point correction=                           0.197348 (Hartree/Particle)
 Thermal correction to Energy=                    0.209926
 Thermal correction to Enthalpy=                  0.210870
 Thermal correction to Gibbs Free Energy=         0.158241
 Sum of electronic and zero-point Energies=           -645.918376
 Sum of electronic and thermal Energies=              -645.905798
 Sum of electronic and thermal Enthalpies=            -645.904854
 Sum of electronic and thermal Free Energies=         -645.957483

                     E (Thermal)             CV                S
                      KCal/Mol        Cal/Mol-Kelvin    Cal/Mol-Kelvin
 Total                  131.730             45.242            110.767
 Electronic               0.000              0.000              0.000
 Translational            0.889              2.981             41.404
 Rotational               0.889              2.981             30.617
 Vibrational            129.953             39.280             38.745
 Vibration     1          0.595              1.978              4.855
 Vibration     2          0.598              1.969              4.200
 Vibration     3          0.602              1.956              3.657
 Vibration     4          0.607              1.938              3.209
 Vibration     5          0.612              1.923              2.941
 Vibration     6          0.624              1.882              2.460
 Vibration     7          0.630              1.865              2.311
 Vibration     8          0.647              1.811              1.959
 Vibration     9          0.657              1.782              1.813
 Vibration    10          0.673              1.732              1.609
 Vibration    11          0.691              1.679              1.434
 Vibration    12          0.715              1.609              1.243
 Vibration    13          0.734              1.556              1.126
 Vibration    14          0.753              1.504              1.023
 Vibration    15          0.818              1.339              0.767
 Vibration    16          0.873              1.210              0.615
 Vibration    17          0.922              1.105              0.512
 Vibration    18          0.961              1.027              0.445

 Optimization completed.
    -- Stationary point found.
 Normal termination of Gaussian 16 at Wed Dec  9 17:35:23 2020.

 ----------------------------------------------------------------------
 # B3LYP/6-311++G(d,p) empiricaldispersion=gd3bj scf=xqc pop=npa geom=c
 heck
 ----------------------------------------------------------------------

 --------------------------------------
 CID_15254205_JID_2494_Energie_neutraal
 --------------------------------------
 Structure from the checkpoint file:  "JID_2494.chk"
 Charge =  0 Multiplicity = 1

 SCF Done:  E(RB3LYP) =  -646.311861537     A.U. after   15 cycles
 Normal termination of Gaussian 16 at Wed Dec  9 17:37:35 2020.

 ----------------------------------------------------------------------
 # B3LYP/6-311++G(d,p) empiricaldispersion=gd3bj scf=xqc pop=npa geom=c
 heck
 ----------------------------------------------------------------------

 ------------------------------------
 CID_15254205_JID_2494_Energie_kation
 ------------------------------------
 Structure from the checkpoint file:  "JID_2494.chk"
 Charge =  1 Multiplicity = 2

 SCF Done:  E(UB3LYP) =  -645.919053277     A.U. after   33 cycles
 SCF Done:  E(UB3LYP) =  -645.919053279     a.u. after    2 cycles
 Normal termination of Gaussian 16 at Wed Dec  9 17:49:32 2020.
 Gaussian 16:  ES64L-G16RevA.03 25-Dec-2016

 ----------------------------------------------------------------------
 # B3LYP/6-311++G(d,p) empiricaldispersion=gd3bj scf=xqc pop=npa geom=c
 heck
 ----------------------------------------------------------------------

 -----------------------------------
 CID_15254205_JID_2494_Energie_anion
 -----------------------------------
 Structure from the checkpoint file:  "JID_2494.chk"
 Charge = -1 Multiplicity = 2

                         Standard orientation:
 ---------------------------------------------------------------------
 Center     Atomic      Atomic             Coordinates (Angstroms)
 Number     Number       Type             X           Y           Z
 ---------------------------------------------------------------------
      1          6           0        2.589776   -1.836573    0.120755
      2          6           0        2.199528   -0.356296    0.053879
      3          6           0        0.797496   -0.138355   -0.514178
      4          6           0       -0.312518   -0.818948    0.296571
      5          6           0       -0.490904   -0.406162    1.758294
      6          6           0       -0.713949    1.078547    2.061528
      7          7           0       -1.625782   -0.796760   -0.494389
      8          8           0       -1.555764   -1.167996   -1.661390
      9          8           0       -2.650967   -0.489222    0.095314
     10          7           0        0.508633    1.353521   -0.688583
     11          8           0       -0.639168    1.653438   -0.997411
     12          8           0        1.433345    2.145356   -0.547386
     13          1           0        2.005549   -2.389195    0.864616
     14          1           0        3.643183   -1.931913    0.400225
     15          1           0        2.455981   -2.330773   -0.848590
     16          1           0        2.273552    0.105315    1.043924
     17          1           0        2.901763    0.182389   -0.586436
     18          1           0        0.731393   -0.522202   -1.536568
     19          1           0       -0.070132   -1.885682    0.268235
     20          1           0       -1.326612   -0.990401    2.153468
     21          1           0        0.405268   -0.758519    2.284797
     22          1           0       -1.580430    1.466456    1.523312
     23          1           0       -0.892702    1.202253    3.134277
     24          1           0        0.157095    1.689054    1.805422
 ---------------------------------------------------------------------

 SCF Done:  E(UB3LYP) =  -646.340442453     A.U. after   26 cycles

 The electronic state is 2-A.
 Alpha  occ. eigenvalues --  -18.96728 -18.96718 -18.95907 -18.95630 -14.33853
 Alpha  occ. eigenvalues --  -14.32283 -10.09276 -10.08735 -10.06825 -10.06152
 Alpha  occ. eigenvalues --  -10.05712 -10.03318  -1.04486  -1.03557  -0.87531
 Alpha  occ. eigenvalues --   -0.86628  -0.72340  -0.66612  -0.62162  -0.58950
 Alpha  occ. eigenvalues --   -0.51366  -0.50357  -0.46218  -0.41112  -0.39806
 Alpha  occ. eigenvalues --   -0.38748  -0.35619  -0.34737  -0.33881  -0.33485
 Alpha  occ. eigenvalues --   -0.32912  -0.31468  -0.30662  -0.30524  -0.27848
 Alpha  occ. eigenvalues --   -0.27059  -0.24940  -0.24493  -0.22892  -0.22627
 Alpha  occ. eigenvalues --   -0.20709  -0.14920  -0.14050  -0.13289  -0.12493
 Alpha  occ. eigenvalues --   -0.12052  -0.11188   0.04192
 Alpha virt. eigenvalues --    0.07301   0.08499   0.09294   0.10302   0.11099
 Alpha virt. eigenvalues --    0.11944   0.12461   0.13253   0.14358   0.14879
 Alpha virt. eigenvalues --    0.15380   0.16616   0.16695   0.18022   0.19118

  Beta  occ. eigenvalues --  -18.96515 -18.96336 -18.95505 -18.95327 -14.33243
  Beta  occ. eigenvalues --  -14.31516 -10.09287 -10.08759 -10.06824 -10.06150
  Beta  occ. eigenvalues --  -10.05712 -10.03320  -1.03645  -1.02545  -0.86959
  Beta  occ. eigenvalues --   -0.85943  -0.72219  -0.66545  -0.62003  -0.58499
  Beta  occ. eigenvalues --   -0.51106  -0.49967  -0.45568  -0.40365  -0.38821
  Beta  occ. eigenvalues --   -0.38171  -0.34541  -0.34153  -0.33313  -0.32773
  Beta  occ. eigenvalues --   -0.31860  -0.31209  -0.30198  -0.29696  -0.27547
  Beta  occ. eigenvalues --   -0.26948  -0.24871  -0.24466  -0.22838  -0.22443
  Beta  occ. eigenvalues --   -0.20498  -0.13188  -0.12725  -0.12181  -0.11862
  Beta  occ. eigenvalues --   -0.11528  -0.10819
  Beta virt. eigenvalues --    0.07364   0.09176   0.09908   0.10889   0.11568
  Beta virt. eigenvalues --    0.11810   0.12421   0.13337   0.13463   0.14326
  Beta virt. eigenvalues --    0.14904   0.15658   0.16603   0.16658   0.18042

 Mulliken charges and spin densities:
               1          2
     1  C   -0.634735  -0.005248
     2  C   -0.460364   0.017366
     3  C    0.004424  -0.093051
     4  C    0.311120  -0.000712
     5  C   -0.479228  -0.001967
     6  C   -0.660421  -0.034611
     7  N   -0.158946   0.190515
     8  O   -0.163988   0.086291
     9  O   -0.129671   0.144009
    10  N   -0.161886   0.223553
    11  O   -0.149952   0.128678
    12  O   -0.158698   0.160547
    13  H    0.125945   0.000314
    14  H    0.129547   0.000168
    15  H    0.139331  -0.000818
    16  H    0.166369   0.000139
    17  H    0.172567   0.015506
    18  H    0.210908   0.088819
    19  H    0.201696   0.039043
    20  H    0.146475   0.022215
    21  H    0.109586  -0.006092
    22  H    0.213765  -0.005240
    23  H    0.088799   0.005992
    24  H    0.137357   0.024583
 Sum of Mulliken charges =  -1.00000   1.00000

 Dipole moment (field-independent basis, Debye):
    X=              5.1677    Y=             -4.4211    Z=              4.5578  Tot=              8.1869
 Quadrupole moment (field-independent basis, Debye-Ang):
   XX=            -99.0510   YY=            -94.6561   ZZ=            -85.1543
   XY=             -8.4779   XZ=             -4.9982   YZ=              1.1931

 Summary of Natural Population Analysis:

                                       Natural Population
                Natural  -----------------------------------------------
    Atom  No    Charge         Core      Valence    Rydberg      Total
 -----------------------------------------------------------------------
      C    1   -0.28680      0.99967     2.28316    0.00398     3.28680
      C    2   -0.20113      0.99962     2.19321    0.00830     3.20113
      C    3   -0.04707      0.99950     2.03138    0.01619     3.04707
      C    4   -0.03788      0.99949     2.02169    0.01669     3.03788
      C    5   -0.19916      0.99961     2.19182    0.00773     3.19916
      C    6   -0.29280      0.99966     2.28807    0.00507     3.29280
      N    7    0.31864      0.99975     2.15367    0.02793     3.18136
      O    8   -0.21977      0.99989     3.21125    0.00863     4.21977
      O    9   -0.18234      0.99989     3.17479    0.00766     4.18234
      N   10    0.32128      0.99975     2.14666    0.03231     3.17872
      O   11   -0.19732      0.99990     3.18873    0.00870     4.19732
      O   12   -0.20114      0.99989     3.19391    0.00734     4.20114
      H   13    0.09328      0.00000     0.40565    0.00107     0.40672
      H   14    0.09468      0.00000     0.40446    0.00086     0.40532
      H   15    0.09680      0.00000     0.40227    0.00092     0.40320
      H   16    0.09954      0.00000     0.39921    0.00125     0.40046
      H   17    0.11042      0.00000     0.38834    0.00124     0.38958
      H   18    0.12229      0.00000     0.37634    0.00137     0.37771
      H   19    0.10524      0.00000     0.39354    0.00123     0.39476
      H   20    0.10639      0.00000     0.39229    0.00132     0.39361
      H   21    0.09029      0.00000     0.40857    0.00114     0.40971
      H   22    0.11645      0.00000     0.38249    0.00106     0.38355
      H   23    0.08743      0.00000     0.41164    0.00093     0.41257
      H   24    0.10268      0.00000     0.39623    0.00108     0.39732
 =======================================================================
   * Total *    0.00000     11.99664    34.83938    0.16398    47.00000

 Normal termination of Gaussian 16 at Wed Dec  9 17:54:35 2020.
