 Gaussian 16, Revision A.03,

 -----------------------------------------------------------
 # opt freq B3LYP/6-31G(d) empiricaldispersion=gd3bj scf=xqc
 -----------------------------------------------------------

 -----------------------------
 CID_6914292_JID_5596_neutraal
 -----------------------------
 Symbolic Z-matrix:
 Charge =  0 Multiplicity = 1

 SCF Done:  E(RB3LYP) =  -1071.13689272     A.U. after   15 cycles
 SCF Done:  E(RB3LYP) =  -1071.14328205     A.U. after   12 cycles
 SCF Done:  E(RB3LYP) =  -1071.14450337     A.U. after   13 cycles
 SCF Done:  E(RB3LYP) =  -1071.14478393     A.U. after   13 cycles
 SCF Done:  E(RB3LYP) =  -1071.14546383     A.U. after   13 cycles
 SCF Done:  E(RB3LYP) =  -1071.14556068     A.U. after   12 cycles
 SCF Done:  E(RB3LYP) =  -1071.14564805     A.U. after   11 cycles
 SCF Done:  E(RB3LYP) =  -1071.14569705     A.U. after   11 cycles
 SCF Done:  E(RB3LYP) =  -1071.14576055     A.U. after   11 cycles
 SCF Done:  E(RB3LYP) =  -1071.14595243     A.U. after   13 cycles
 SCF Done:  E(RB3LYP) =  -1071.14818512     A.U. after   12 cycles
 SCF Done:  E(RB3LYP) =  -1071.14818795     A.U. after   10 cycles
 SCF Done:  E(RB3LYP) =  -1071.14818934     A.U. after    9 cycles
 SCF Done:  E(RB3LYP) =  -1071.14819007     A.U. after    8 cycles
 SCF Done:  E(RB3LYP) =  -1071.14819093     A.U. after   10 cycles
 SCF Done:  E(RB3LYP) =  -1071.14819104     A.U. after    7 cycles
 Optimization completed.
    -- Stationary point found.
 Normal termination of Gaussian 16 at Thu Dec 10 17:12:27 2020.

 --------------------------------------------------------------------
 #N Geom=AllCheck Guess=TCheck SCRF=Check GenChk RB3LYP/6-31G(d) Freq
 --------------------------------------------------------------------

 Structure from the checkpoint file:  "JID_5596.chk"
 -----------------------------
 CID_6914292_JID_5596_neutraal
 -----------------------------
 Charge =  0 Multiplicity = 1

 SCF Done:  E(RB3LYP) =  -1071.14819104     A.U. after    1 cycles

  Exact polarizability: 160.443   2.106 129.530  -0.093  -1.420 117.527
 Approx polarizability: 195.662   2.839 205.590   0.203 -11.913 185.502

                      1                      2                      3
                      A                      A                      A
 Frequencies --     15.1610                34.9835                45.0347
 Red. masses --      4.2858                 6.0761                 4.1935
 Frc consts  --      0.0006                 0.0044                 0.0050
 IR Inten    --      0.3140                 0.0309                 0.0219

                      4                      5                      6
                      A                      A                      A
 Frequencies --     57.7889                91.6987                97.8447
 Red. masses --      6.3485                 4.2084                 3.4356
 Frc consts  --      0.0125                 0.0208                 0.0194
 IR Inten    --      2.4322                 1.5752                 1.0950

                      7                      8                      9
                      A                      A                      A
 Frequencies --    123.2078               152.6437               203.0496
 Red. masses --      3.8508                 6.1498                 3.5652
 Frc consts  --      0.0344                 0.0844                 0.0866
 IR Inten    --      0.2948                 3.0542                 0.8738

                     10                     11                     12
                      A                      A                      A
 Frequencies --    226.0395               232.9658               247.9658
 Red. masses --      1.7247                 1.4569                 1.8040
 Frc consts  --      0.0519                 0.0466                 0.0654
 IR Inten    --      5.9261                 8.1915                 9.1518

                     13                     14                     15
                      A                      A                      A
 Frequencies --    272.9657               291.3405               324.8889
 Red. masses --      2.2995                 2.3754                 4.0049
 Frc consts  --      0.1009                 0.1188                 0.2491
 IR Inten    --      0.7817                24.1722                 4.9579

                     16                     17                     18
                      A                      A                      A
 Frequencies --    359.2491               389.3792               395.2626
 Red. masses --      2.7594                 1.8996                 2.8412
 Frc consts  --      0.2098                 0.1697                 0.2615
 IR Inten    --      3.8625                 6.8463                14.8253

                     19                     20                     21
                      A                      A                      A
 Frequencies --    401.9745               436.0763               481.1063
 Red. masses --      2.6878                 2.6319                 2.8062
 Frc consts  --      0.2559                 0.2949                 0.3827
 IR Inten    --     10.1812               107.6171                 2.1984

                     22                     23                     24
                      A                      A                      A
 Frequencies --    483.9506               539.3097               577.9912
 Red. masses --      2.3965                 2.6962                 3.4702
 Frc consts  --      0.3307                 0.4620                 0.6830
 IR Inten    --      0.9062                12.1646                28.6522

                     25                     26                     27
                      A                      A                      A
 Frequencies --    621.8084               642.5278               691.1737
 Red. masses --      1.5860                 2.2110                 5.5735
 Frc consts  --      0.3613                 0.5378                 1.5687
 IR Inten    --     46.9759                11.6680                33.6642

                     28                     29                     30
                      A                      A                      A
 Frequencies --    722.5971               767.9041               796.1439
 Red. masses --      6.6923                 4.6813                 1.5003
 Frc consts  --      2.0588                 1.6264                 0.5603
 IR Inten    --    149.3624                31.6271                 0.3786

                     31                     32                     33
                      A                      A                      A
 Frequencies --    813.4532               825.3303               869.5160
 Red. masses --      2.7245                 3.1916                 1.8180
 Frc consts  --      1.0622                 1.2809                 0.8099
 IR Inten    --      2.0422                 2.9259                14.9681

                     34                     35                     36
                      A                      A                      A
 Frequencies --    871.8080               877.0397               889.3460
 Red. masses --      1.8447                 2.4196                 1.9827
 Frc consts  --      0.8261                 1.0966                 0.9239
 IR Inten    --     11.9757                 6.9368                 4.0822

                     37                     38                     39
                      A                      A                      A
 Frequencies --    937.1601               951.1458              1021.1076
 Red. masses --      1.8161                 1.3798                 1.7730
 Frc consts  --      0.9398                 0.7355                 1.0892
 IR Inten    --      0.8731                 4.6720                18.8722

                     40                     41                     42
                      A                      A                      A
 Frequencies --   1045.7266              1050.7976              1053.6032
 Red. masses --      1.7959                 1.6239                 2.2348
 Frc consts  --      1.1571                 1.0564                 1.4617
 IR Inten    --      1.0139                 2.4964                11.4593

                     43                     44                     45
                      A                      A                      A
 Frequencies --   1075.4436              1083.9216              1096.0301
 Red. masses --      2.0443                 1.4999                 1.8760
 Frc consts  --      1.3931                 1.0383                 1.3278
 IR Inten    --      2.4075                14.6879                 0.1213

                     46                     47                     48
                      A                      A                      A
 Frequencies --   1116.9698              1144.8074              1149.0357
 Red. masses --      2.7496                 1.0616                 2.1773
 Frc consts  --      2.0212                 0.8197                 1.6937
 IR Inten    --    119.6468                 0.3827                10.7203

                     49                     50                     51
                      A                      A                      A
 Frequencies --   1176.2707              1190.2959              1194.5068
 Red. masses --      1.5052                 1.9846                 2.5908
 Frc consts  --      1.2270                 1.6566                 2.1780
 IR Inten    --      5.0832                74.7562                 9.7234

                     52                     53                     54
                      A                      A                      A
 Frequencies --   1231.1877              1263.0794              1282.4914
 Red. masses --      1.3265                 1.2698                 1.3350
 Frc consts  --      1.1847                 1.1935                 1.2938
 IR Inten    --     32.3666                14.7450                10.5596

                     55                     56                     57
                      A                      A                      A
 Frequencies --   1304.3931              1311.1919              1341.9427
 Red. masses --      1.2526                 1.2494                 1.4833
 Frc consts  --      1.2557                 1.2656                 1.5738
 IR Inten    --      2.2029                10.5883                 8.9019

                     58                     59                     60
                      A                      A                      A
 Frequencies --   1346.5311              1360.7012              1371.0692
 Red. masses --      1.4628                 1.3434                 1.3626
 Frc consts  --      1.5627                 1.4655                 1.5092
 IR Inten    --      1.0897                 0.9461                 0.7671

                     61                     62                     63
                      A                      A                      A
 Frequencies --   1381.4623              1397.0786              1398.7555
 Red. masses --      1.7628                 1.4103                 1.5038
 Frc consts  --      1.9822                 1.6218                 1.7335
 IR Inten    --     82.3720                 3.6707                53.9155

                     64                     65                     66
                      A                      A                      A
 Frequencies --   1405.1865              1408.3266              1417.0393
 Red. masses --      1.4444                 1.4558                 1.6921
 Frc consts  --      1.6804                 1.7013                 2.0018
 IR Inten    --      0.6186                 1.6941                31.6341

                     67                     68                     69
                      A                      A                      A
 Frequencies --   1437.6358              1486.5307              1504.3612
 Red. masses --      1.2721                 1.0862                 1.0911
 Frc consts  --      1.5491                 1.4142                 1.4548
 IR Inten    --     27.2727                 3.0697                 2.6506

                     70                     71                     72
                      A                      A                      A
 Frequencies --   1508.1255              1511.3233              1524.8361
 Red. masses --      1.5320                 1.1111                 1.1123
 Frc consts  --      2.0530                 1.4952                 1.5237
 IR Inten    --     73.8143                 1.5762                19.0175

                     73                     74                     75
                      A                      A                      A
 Frequencies --   1525.1499              1527.7922              1539.9598
 Red. masses --      1.0920                 1.0608                 1.0820
 Frc consts  --      1.4966                 1.4588                 1.5119
 IR Inten    --      3.8169                14.6654                 0.9570

                     76                     77                     78
                      A                      A                      A
 Frequencies --   1540.8613              1777.1924              3024.3083
 Red. masses --      1.0738                 7.5277                 1.0715
 Frc consts  --      1.5021                14.0081                 5.7741
 IR Inten    --      4.0062               402.5407                11.4994

                     79                     80                     81
                      A                      A                      A
 Frequencies --   3028.1976              3033.7394              3036.0842
 Red. masses --      1.0695                 1.0645                 1.0624
 Frc consts  --      5.7782                 5.7725                 5.7700
 IR Inten    --     17.2380                18.1174                 8.6122

                     82                     83                     84
                      A                      A                      A
 Frequencies --   3042.4362              3062.3575              3063.4990
 Red. masses --      1.0625                 1.0653                 1.0463
 Frc consts  --      5.7945                 5.8861                 5.7853
 IR Inten    --     50.0602                 3.7460                10.4106

                     85                     86                     87
                      A                      A                      A
 Frequencies --   3070.4221              3081.8155              3082.7985
 Red. masses --      1.0663                 1.0946                 1.0949
 Frc consts  --      5.9227                 6.1250                 6.1310
 IR Inten    --     13.2343                61.6866                54.9946

                     88                     89                     90
                      A                      A                      A
 Frequencies --   3085.6708              3089.4260              3092.8453
 Red. masses --      1.0970                 1.1003                 1.1027
 Frc consts  --      6.1538                 6.1877                 6.2149
 IR Inten    --     28.5714                26.1932                71.1175

                     91                     92                     93
                      A                      A                      A
 Frequencies --   3121.6534              3131.9239              3148.9824
 Red. masses --      1.1060                 1.1018                 1.1017
 Frc consts  --      6.3502                 6.3676                 6.4368
 IR Inten    --      4.2475                24.8760                18.7628

                     94                     95                     96
                      A                      A                      A
 Frequencies --   3156.0227              3590.9664              3635.3796
 Red. masses --      1.0844                 1.0743                 1.0657
 Frc consts  --      6.3641                 8.1623                 8.2985
 IR Inten    --     20.4249                12.4603                36.1272

 - Thermochemistry -
 -------------------
 Temperature   298.150 Kelvin.  Pressure   1.00000 Atm.
 Atom     1 has atomic number  6 and mass  12.00000

 Molecular mass:   233.10857 amu.
 Principal axes and moments of inertia in atomic units:
                           1         2         3
     Eigenvalues --  1890.729587174.019107772.30795
           X            0.99988   0.01511   0.00308
           Y           -0.01528   0.99764   0.06696
           Z           -0.00206  -0.06700   0.99775
 This molecule is an asymmetric top.
 Rotational symmetry number  1.
 Warning -- assumption of classical behavior for rotation
           may cause significant error
 Rotational temperatures (Kelvin)      0.04581     0.01207     0.01114
 Rotational constants (GHZ):           0.95452     0.25157     0.23220
 Zero-point vibrational energy     770634.8 (Joules/Mol)
                                  184.18614 (Kcal/Mol)
 Warning -- explicit consideration of  24 degrees of freedom as
           vibrations may cause significant error
 Vibrational temperatures:     21.81    50.33    64.79    83.15   131.93
          (Kelvin)            140.78   177.27   219.62   292.14   325.22
                              335.19   356.77   392.74   419.17   467.44
                              516.88   560.23   568.69   578.35   627.42
                              692.20   696.30   775.95   831.60   894.64
                              924.45   994.44  1039.66  1104.84  1145.47
                             1170.38  1187.47  1251.04  1254.34  1261.86
                             1279.57  1348.36  1368.49  1469.15  1504.57
                             1511.86  1515.90  1547.32  1559.52  1576.94
                             1607.07  1647.12  1653.21  1692.39  1712.57
                             1718.63  1771.40  1817.29  1845.22  1876.73
                             1886.51  1930.76  1937.36  1957.75  1972.66
                             1987.62  2010.08  2012.50  2021.75  2026.27
                             2038.80  2068.44  2138.79  2164.44  2169.86
                             2174.46  2193.90  2194.35  2198.15  2215.66
                             2216.96  2556.98  4351.31  4356.90  4364.87
                             4368.25  4377.39  4406.05  4407.69  4417.65
                             4434.05  4435.46  4439.59  4444.99  4449.91
                             4491.36  4506.14  4530.68  4540.81  5166.60
                             5230.50

 Zero-point correction=                           0.293519 (Hartree/Particle)
 Thermal correction to Energy=                    0.310037
 Thermal correction to Enthalpy=                  0.310981
 Thermal correction to Gibbs Free Energy=         0.247322
 Sum of electronic and zero-point Energies=          -1070.854672
 Sum of electronic and thermal Energies=             -1070.838154
 Sum of electronic and thermal Enthalpies=           -1070.837210
 Sum of electronic and thermal Free Energies=        -1070.900869

                     E (Thermal)             CV                S
                      KCal/Mol        Cal/Mol-Kelvin    Cal/Mol-Kelvin
 Total                  194.551             61.516            133.983
 Electronic               0.000              0.000              0.000
 Translational            0.889              2.981             42.241
 Rotational               0.889              2.981             33.022
 Vibrational            192.774             55.554             58.721
 Vibration     1          0.593              1.986              7.184
 Vibration     2          0.594              1.982              5.525
 Vibration     3          0.595              1.979              5.024
 Vibration     4          0.596              1.974              4.531
 Vibration     5          0.602              1.955              3.623
 Vibration     6          0.603              1.951              3.497
 Vibration     7          0.610              1.930              3.049
 Vibration     8          0.619              1.900              2.639
 Vibration     9          0.639              1.836              2.105
 Vibration    10          0.650              1.801              1.910
 Vibration    11          0.654              1.790              1.856
 Vibration    12          0.662              1.766              1.745
 Vibration    13          0.676              1.723              1.577
 Vibration    14          0.687              1.690              1.466
 Vibration    15          0.709              1.626              1.285
 Vibration    16          0.734              1.556              1.125
 Vibration    17          0.757              1.493              1.003
 Vibration    18          0.762              1.480              0.980
 Vibration    19          0.768              1.466              0.955
 Vibration    20          0.797              1.392              0.839
 Vibration    21          0.837              1.292              0.707
 Vibration    22          0.840              1.286              0.699
 Vibration    23          0.894              1.163              0.567
 Vibration    24          0.935              1.079              0.489

                           ! Non-Optimized Parameters !
 Normal termination of Gaussian 16 at Thu Dec 10 17:25:06 2020.

 ----------------------------------------------------------------------
 # B3LYP/6-311++G(d,p) empiricaldispersion=gd3bj scf=xqc pop=npa geom=c
 heck
 ----------------------------------------------------------------------

 -------------------------------------
 CID_6914292_JID_5596_Energie_neutraal
 -------------------------------------
 Structure from the checkpoint file:  "JID_5596.chk"
 Charge =  0 Multiplicity = 1

 SCF Done:  E(RB3LYP) =  -1071.38231130     A.U. after   15 cycles
 Normal termination of Gaussian 16 at Thu Dec 10 17:31:56 2020.

 ----------------------------------------------------------------------
 # B3LYP/6-311++G(d,p) empiricaldispersion=gd3bj scf=xqc pop=npa geom=c
 heck
 ----------------------------------------------------------------------

 -----------------------------------
 CID_6914292_JID_5596_Energie_kation
 -----------------------------------
 Structure from the checkpoint file:  "JID_5596.chk"
 Charge =  1 Multiplicity = 2

 SCF Done:  E(UB3LYP) =  -1071.06056592     A.U. after   28 cycles
 Normal termination of Gaussian 16 at Thu Dec 10 17:52:50 2020.
 Gaussian 16:  ES64L-G16RevA.03 25-Dec-2016

 ----------------------------------------------------------------------
 # B3LYP/6-311++G(d,p) empiricaldispersion=gd3bj scf=xqc pop=npa geom=c
 heck
 ----------------------------------------------------------------------

 ----------------------------------
 CID_6914292_JID_5596_Energie_anion
 ----------------------------------
 Structure from the checkpoint file:  "JID_5596.chk"
 Charge = -1 Multiplicity = 2

                         Standard orientation:
 ---------------------------------------------------------------------
 Center     Atomic      Atomic             Coordinates (Angstroms)
 Number     Number       Type             X           Y           Z
 ---------------------------------------------------------------------
      1          6           0        1.121507    1.737552    1.265559
      2          6           0        1.225824    1.083491   -0.122678
      3          6           0        1.651963   -0.395989   -0.073546
      4         16           0        3.458872   -0.621642   -0.358143
      5          8           0        3.703534   -2.070653   -0.101881
      6          8           0        4.007093    0.256292    0.975046
      7          6           0       -0.031397    1.333107   -0.970514
      8          8           0       -0.003326    2.157684   -1.877175
      9          7           0       -1.174894    0.622774   -0.715928
     10          6           0       -1.529293   -0.251550    0.401393
     11          6           0       -2.565602    0.416826    1.327078
     12          6           0       -3.938676    0.552515    0.653766
     13          6           0       -4.447631   -0.804362    0.146342
     14          6           0       -3.428283   -1.472847   -0.787203
     15          6           0       -2.056505   -1.605123   -0.110559
     16          1           0        0.392337    1.232631    1.907532
     17          1           0        0.818005    2.784353    1.166154
     18          1           0        2.095927    1.708928    1.759721
     19          1           0        1.986622    1.638397   -0.683141
     20          1           0        1.441323   -0.895788    0.878556
     21          1           0        1.187190   -0.989080   -0.868448
     22          1           0        3.846962   -0.300091    1.764600
     23          1           0       -1.928316    0.904353   -1.331758
     24          1           0       -0.618399   -0.429073    0.970931
     25          1           0       -2.668100   -0.202289    2.229158
     26          1           0       -2.190342    1.395954    1.645899
     27          1           0       -3.870846    1.257668   -0.187198
     28          1           0       -4.655067    0.991008    1.358000
     29          1           0       -5.409713   -0.682543   -0.365262
     30          1           0       -4.629928   -1.463219    1.007765
     31          1           0       -3.331218   -0.882190   -1.709576
     32          1           0       -3.784971   -2.461603   -1.097869
     33          1           0       -1.324442   -2.044620   -0.797470
     34          1           0       -2.144575   -2.284260    0.748445
 ---------------------------------------------------------------------

 SCF Done:  E(UB3LYP) =  -1071.37798005     A.U. after   32 cycles

 The electronic state is 2-A.
 Alpha  occ. eigenvalues --  -88.89793 -19.06750 -19.01718 -19.00107 -14.24892
 Alpha  occ. eigenvalues --  -10.18822 -10.12833 -10.11910 -10.11194 -10.08249
 Alpha  occ. eigenvalues --  -10.08204 -10.08099 -10.08048 -10.07911 -10.07791
 Alpha  occ. eigenvalues --   -7.97113  -5.93538  -5.93218  -5.92640  -0.99032
 Alpha  occ. eigenvalues --   -0.95349  -0.91578  -0.84140  -0.74220  -0.73175
 Alpha  occ. eigenvalues --   -0.66130  -0.65859  -0.64958  -0.57653  -0.54822
 Alpha  occ. eigenvalues --   -0.53645  -0.52941  -0.50403  -0.46931  -0.43171
 Alpha  occ. eigenvalues --   -0.40448  -0.40019  -0.39080  -0.38275  -0.37695
 Alpha  occ. eigenvalues --   -0.36875  -0.35820  -0.34696  -0.34236  -0.33618
 Alpha  occ. eigenvalues --   -0.31875  -0.30476  -0.30261  -0.29855  -0.29530
 Alpha  occ. eigenvalues --   -0.29029  -0.28115  -0.27520  -0.26848  -0.26319
 Alpha  occ. eigenvalues --   -0.24607  -0.23866  -0.22716  -0.22331  -0.21679
 Alpha  occ. eigenvalues --   -0.17597  -0.16855  -0.16072   0.03654
 Alpha virt. eigenvalues --    0.05420   0.06728   0.07040   0.07680   0.08503
 Alpha virt. eigenvalues --    0.08907   0.09474   0.09570   0.09789   0.10161
 Alpha virt. eigenvalues --    0.10379   0.10703   0.11375   0.11864   0.12555

  Beta  occ. eigenvalues --  -88.89772 -19.06672 -19.01670 -19.00102 -14.24887
  Beta  occ. eigenvalues --  -10.18820 -10.12830 -10.11895 -10.11192 -10.08229
  Beta  occ. eigenvalues --  -10.08189 -10.08084 -10.08023 -10.07878 -10.07766
  Beta  occ. eigenvalues --   -7.97093  -5.93481  -5.93201  -5.92623  -0.98892
  Beta  occ. eigenvalues --   -0.95341  -0.91436  -0.84129  -0.74188  -0.73140
  Beta  occ. eigenvalues --   -0.66090  -0.65823  -0.64886  -0.57570  -0.54751
  Beta  occ. eigenvalues --   -0.53598  -0.52885  -0.50368  -0.46882  -0.43049
  Beta  occ. eigenvalues --   -0.40391  -0.39980  -0.39014  -0.38242  -0.37642
  Beta  occ. eigenvalues --   -0.36833  -0.35789  -0.34630  -0.34191  -0.33570
  Beta  occ. eigenvalues --   -0.31835  -0.30441  -0.30226  -0.29814  -0.29487
  Beta  occ. eigenvalues --   -0.28981  -0.28065  -0.27480  -0.26805  -0.26279
  Beta  occ. eigenvalues --   -0.24518  -0.23821  -0.22679  -0.22292  -0.21499
  Beta  occ. eigenvalues --   -0.17552  -0.16825  -0.16022
  Beta virt. eigenvalues --    0.05936   0.06758   0.07315   0.07587   0.07938
  Beta virt. eigenvalues --    0.08876   0.09334   0.09659   0.09796   0.09884
  Beta virt. eigenvalues --    0.10458   0.10633   0.11128   0.11573   0.12161

 Mulliken charges and spin densities:
               1          2
     1  C    0.608640  -1.084883
     2  C   -0.606998   0.989268
     3  C   -0.780075  -0.273585
     4  S    1.149390  -0.607118
     5  O   -0.416830   0.020182
     6  O   -0.144270  -0.068687
     7  C    0.043858  -0.306136
     8  O   -0.315089   0.003185
     9  N   -0.046022   0.021125
    10  C   -0.398810   0.605372
    11  C    0.104561  -0.645064
    12  C   -0.129108  -0.128750
    13  C    0.853818  -1.405779
    14  C   -0.412518   0.262618
    15  C    0.156800  -0.694126
    16  H   -0.521490   0.689559
    17  H    0.030201   0.131576
    18  H   -0.098561   0.273729
    19  H    0.189963   0.045196
    20  H   -0.096995   0.448476
    21  H    0.180267   0.026893
    22  H   -0.143646   0.441154
    23  H    0.431661  -0.139519
    24  H    0.770476  -0.597981
    25  H   -0.590367   0.765016
    26  H    0.227099  -0.069439
    27  H    0.043393   0.082937
    28  H   -0.338126   0.525900
    29  H   -0.344931   0.513337
    30  H    0.108202   0.033423
    31  H   -0.002837   0.126918
    32  H   -0.281796   0.468761
    33  H    0.125216   0.028277
    34  H   -0.355076   0.518166
 Sum of Mulliken charges =  -1.00000   1.00000

 Dipole moment (field-independent basis, Debye):
    X=              0.4462    Y=              1.6073    Z=             -3.8176  Tot=              4.1661
 Quadrupole moment (field-independent basis, Debye-Ang):
   XX=           -192.2940   YY=           -144.7178   ZZ=           -144.2533
   XY=             -0.7731   XZ=             -0.9918   YZ=              5.2707

 Summary of Natural Population Analysis:

                                       Natural Population
                Natural  -----------------------------------------------
    Atom  No    Charge         Core      Valence    Rydberg      Total
 -----------------------------------------------------------------------
      C    1   -0.28326      0.99964     2.27758    0.00605     3.28326
      C    2   -0.16393      0.99955     2.15259    0.01179     3.16393
      C    3   -0.28728      0.99957     2.27337    0.01434     3.28728
      S    4    0.72289      4.99950     2.21723    0.06039     7.27711
      O    5   -0.46047      0.99993     3.45371    0.00684     4.46047
      O    6   -0.43886      0.99992     3.43033    0.00861     4.43886
      C    7    0.35175      0.99963     1.62505    0.02357     2.64825
      O    8   -0.32655      0.99988     3.32110    0.00557     4.32655
      N    9   -0.32307      0.99965     2.81350    0.00992     3.82307
      C   10   -0.01661      0.99956     2.00373    0.01331     3.01661
      C   11   -0.19160      0.99960     2.18303    0.00896     3.19160
      C   12   -0.19211      0.99963     2.18369    0.00879     3.19211
      C   13   -0.19009      0.99963     2.18243    0.00803     3.19009
      C   14   -0.19218      0.99963     2.18386    0.00870     3.19218
      C   15   -0.19011      0.99960     2.18182    0.00868     3.19011
      H   16    0.09976      0.00000     0.39878    0.00146     0.40024
      H   17    0.10259      0.00000     0.39655    0.00086     0.39741
      H   18    0.11184      0.00000     0.38667    0.00150     0.38816
      H   19    0.11345      0.00000     0.38427    0.00228     0.38655
      H   20    0.11301      0.00000     0.38477    0.00222     0.38699
      H   21    0.11388      0.00000     0.38449    0.00163     0.38612
      H   22    0.24085      0.00000     0.25031    0.00884     0.25915
      H   23    0.19339      0.00000     0.30387    0.00274     0.30661
      H   24    0.10405      0.00000     0.39270    0.00324     0.39595
      H   25    0.10248      0.00000     0.39583    0.00169     0.39752
      H   26    0.10250      0.00000     0.39633    0.00117     0.39750
      H   27    0.08901      0.00000     0.40952    0.00147     0.41099
      H   28    0.10361      0.00000     0.39534    0.00105     0.39639
      H   29    0.09948      0.00000     0.39935    0.00117     0.40052
      H   30    0.09624      0.00000     0.40213    0.00163     0.40376
      H   31    0.08934      0.00000     0.40929    0.00137     0.41066
      H   32    0.10290      0.00000     0.39610    0.00100     0.39710
      H   33    0.10116      0.00000     0.39782    0.00102     0.39884
      H   34    0.10194      0.00000     0.39675    0.00131     0.39806
 =======================================================================
   * Total *    0.00000     18.99492    43.76390    0.24118    63.00000

 Normal termination of Gaussian 16 at Thu Dec 10 18:09:42 2020.
