 Gaussian 16, Revision A.03,

 -----------------------------------------------------------
 # opt freq B3LYP/6-31G(d) empiricaldispersion=gd3bj scf=xqc
 -----------------------------------------------------------

 -----------------------------
 CID_67681677_JID_862_neutraal
 -----------------------------
 Symbolic Z-matrix:
 Charge =  0 Multiplicity = 1

 SCF Done:  E(RB3LYP) =  -493.431966162     A.U. after   14 cycles
 SCF Done:  E(RB3LYP) =  -493.435626412     A.U. after   12 cycles
 SCF Done:  E(RB3LYP) =  -493.436311658     A.U. after   11 cycles
 SCF Done:  E(RB3LYP) =  -493.436654399     A.U. after   11 cycles
 SCF Done:  E(RB3LYP) =  -493.436814792     A.U. after   11 cycles
 SCF Done:  E(RB3LYP) =  -493.436907598     A.U. after   11 cycles
 SCF Done:  E(RB3LYP) =  -493.437018554     A.U. after   11 cycles
 SCF Done:  E(RB3LYP) =  -493.437068416     A.U. after   11 cycles
 SCF Done:  E(RB3LYP) =  -493.437094185     A.U. after   10 cycles
 SCF Done:  E(RB3LYP) =  -493.437108185     A.U. after   10 cycles
 SCF Done:  E(RB3LYP) =  -493.437116403     A.U. after   10 cycles
 SCF Done:  E(RB3LYP) =  -493.437116303     A.U. after    9 cycles
 SCF Done:  E(RB3LYP) =  -493.437118607     A.U. after    9 cycles
 Optimization completed.
    -- Stationary point found.
 Normal termination of Gaussian 16 at Tue Dec  8 12:42:16 2020.

 --------------------------------------------------------------------
 #N Geom=AllCheck Guess=TCheck SCRF=Check GenChk RB3LYP/6-31G(d) Freq
 --------------------------------------------------------------------

 Structure from the checkpoint file:  "JID_862.chk"
 -----------------------------
 CID_67681677_JID_862_neutraal
 -----------------------------
 Charge =  0 Multiplicity = 1

 SCF Done:  E(RB3LYP) =  -493.437118607     A.U. after    1 cycles

  Exact polarizability: 134.258   3.599  82.363   0.443  -0.531  37.868
 Approx polarizability: 187.489  13.271 146.078  -0.959  -0.527  56.226

                      1                      2                      3
                      A                      A                      A
 Frequencies --     70.9078               104.2437               133.7379
 Red. masses --      3.2195                 5.2056                 5.0713
 Frc consts  --      0.0095                 0.0333                 0.0534
 IR Inten    --      1.1237                 2.5513                 1.6896

                      4                      5                      6
                      A                      A                      A
 Frequencies --    153.4523               204.8610               244.8263
 Red. masses --      4.1127                 1.3506                 2.6343
 Frc consts  --      0.0571                 0.0334                 0.0930
 IR Inten    --      3.5926                 3.9478                 4.2084

                      7                      8                      9
                      A                      A                      A
 Frequencies --    315.9018               355.7534               454.2586
 Red. masses --      2.9938                 6.0986                 2.4780
 Frc consts  --      0.1760                 0.4548                 0.3013
 IR Inten    --     13.3567                14.2344                28.2100

                     10                     11                     12
                      A                      A                      A
 Frequencies --    494.6118               543.3920               550.4500
 Red. masses --      1.8883                 2.2039                 1.3824
 Frc consts  --      0.2722                 0.3834                 0.2468
 IR Inten    --     30.2787                39.7241               147.2920

                     13                     14                     15
                      A                      A                      A
 Frequencies --    585.6314               629.5085               677.1930
 Red. masses --      3.0330                 2.7047                 3.2680
 Frc consts  --      0.6129                 0.6315                 0.8830
 IR Inten    --    122.8927                 6.6894                 9.1435

                     16                     17                     18
                      A                      A                      A
 Frequencies --    701.1531               731.8154               750.0908
 Red. masses --      3.4967                 2.1678                 3.2888
 Frc consts  --      1.0128                 0.6840                 1.0902
 IR Inten    --     17.2297                23.6243                95.4631

                     19                     20                     21
                      A                      A                      A
 Frequencies --    758.7023               868.6391               980.5006
 Red. masses --      1.7072                 1.3557                 4.5464
 Frc consts  --      0.5790                 0.6027                 2.5752
 IR Inten    --     38.8541                 3.2285                22.6856

                     22                     23                     24
                      A                      A                      A
 Frequencies --   1008.9047              1074.4651              1100.6421
 Red. masses --      3.9603                 1.3300                 1.8535
 Frc consts  --      2.3751                 0.9047                 1.3229
 IR Inten    --      0.4994                66.7334                28.0949

                     25                     26                     27
                      A                      A                      A
 Frequencies --   1140.6881              1159.7301              1177.9505
 Red. masses --      3.4761                 1.4442                 1.5221
 Frc consts  --      2.6649                 1.1444                 1.2444
 IR Inten    --    344.4067                90.1063                 1.9755

                     28                     29                     30
                      A                      A                      A
 Frequencies --   1236.9468              1278.6040              1327.1209
 Red. masses --      1.6220                 1.4654                 2.6012
 Frc consts  --      1.4622                 1.4115                 2.6992
 IR Inten    --    132.0252                10.7071                 2.5587

                     31                     32                     33
                      A                      A                      A
 Frequencies --   1405.5891              1444.6857              1460.7304
 Red. masses --      3.2147                 2.6865                 4.1811
 Frc consts  --      3.7420                 3.3036                 5.2563
 IR Inten    --     10.4389                 6.3572               224.2967

                     34                     35                     36
                      A                      A                      A
 Frequencies --   1480.7839              1515.9708              1524.1251
 Red. masses --      1.2891                 1.0758                 1.9789
 Frc consts  --      1.6654                 1.4567                 2.7085
 IR Inten    --     12.5448                13.7172                85.9360

                     37                     38                     39
                      A                      A                      A
 Frequencies --   1548.5811              1596.0576              1646.8546
 Red. masses --      1.0940                 4.1480                 4.4902
 Frc consts  --      1.5457                 6.2257                 7.1751
 IR Inten    --      0.6860               334.0537                97.4207

                     40                     41                     42
                      A                      A                      A
 Frequencies --   1788.7462              3005.7338              3102.0877
 Red. masses --      8.8294                 1.0539                 1.0822
 Frc consts  --     16.6448                 5.6099                 6.1354
 IR Inten    --    506.9344                83.3149                32.1863

                     43                     44                     45
                      A                      A                      A
 Frequencies --   3148.4792              3270.1795              3283.7269
 Red. masses --      1.1032                 1.0915                 1.1004
 Frc consts  --      6.4434                 6.8772                 6.9911
 IR Inten    --     19.6502                 5.5387                 1.5346

                     46                     47                     48
                      A                      A                      A
 Frequencies --   3549.4020              3651.2230              3707.1337
 Red. masses --      1.0750                 1.0798                 1.0641
 Frc consts  --      7.9795                 8.4817                 8.6160
 IR Inten    --      5.2387                75.4300                82.5078

 - Thermochemistry -
 -------------------
 Temperature   298.150 Kelvin.  Pressure   1.00000 Atm.
 Atom     1 has atomic number  6 and mass  12.00000

 Molecular mass:   140.05858 amu.
 Principal axes and moments of inertia in atomic units:
                           1         2         3
     Eigenvalues --   445.543082548.938902980.28044
           X            0.99999  -0.00389   0.00247
           Y            0.00390   0.99998  -0.00462
           Z           -0.00245   0.00463   0.99999
 This molecule is an asymmetric top.
 Rotational symmetry number  1.
 Warning -- assumption of classical behavior for rotation
           may cause significant error
 Rotational temperatures (Kelvin)      0.19440     0.03398     0.02906
 Rotational constants (GHZ):           4.05065     0.70804     0.60556
 Zero-point vibrational energy     376493.4 (Joules/Mol)
                                   89.98407 (Kcal/Mol)
 Warning -- explicit consideration of  13 degrees of freedom as
           vibrations may cause significant error
 Vibrational temperatures:    102.02   149.98   192.42   220.78   294.75
          (Kelvin)            352.25   454.51   511.85   653.58   711.64
                              781.82   791.97   842.59   905.72   974.33
                             1008.80  1052.92  1079.21  1091.60  1249.78
                             1410.72  1451.59  1545.92  1583.58  1641.20
                             1668.59  1694.81  1779.69  1839.63  1909.43
                             2022.33  2078.58  2101.67  2130.52  2181.14
                             2192.88  2228.06  2296.37  2369.46  2573.61
                             4324.58  4463.21  4529.96  4705.06  4724.55
                             5106.80  5253.30  5333.74

 Zero-point correction=                           0.143399 (Hartree/Particle)
 Thermal correction to Energy=                    0.152895
 Thermal correction to Enthalpy=                  0.153839
 Thermal correction to Gibbs Free Energy=         0.108540
 Sum of electronic and zero-point Energies=           -493.293720
 Sum of electronic and thermal Energies=              -493.284223
 Sum of electronic and thermal Enthalpies=            -493.283279
 Sum of electronic and thermal Free Energies=         -493.328579

                     E (Thermal)             CV                S
                      KCal/Mol        Cal/Mol-Kelvin    Cal/Mol-Kelvin
 Total                   95.943             35.128             95.341
 Electronic               0.000              0.000              0.000
 Translational            0.889              2.981             40.722
 Rotational               0.889              2.981             29.605
 Vibrational             94.166             29.166             25.014
 Vibration     1          0.598              1.968              4.128
 Vibration     2          0.605              1.946              3.373
 Vibration     3          0.613              1.920              2.892
 Vibration     4          0.619              1.899              2.629
 Vibration     5          0.640              1.833              2.089
 Vibration     6          0.660              1.771              1.768
 Vibration     7          0.703              1.643              1.331
 Vibration     8          0.731              1.563              1.141
 Vibration     9          0.813              1.351              0.783
 Vibration    10          0.850              1.262              0.672
 Vibration    11          0.899              1.154              0.558
 Vibration    12          0.906              1.139              0.543
 Vibration    13          0.943              1.062              0.475

                           ! Non-Optimized Parameters !
 Normal termination of Gaussian 16 at Tue Dec  8 12:50:24 2020.

 ----------------------------------------------------------------------
 # B3LYP/6-311++G(d,p) empiricaldispersion=gd3bj scf=xqc pop=npa geom=c
 heck
 ----------------------------------------------------------------------

 -------------------------------------
 CID_67681677_JID_862_Energie_neutraal
 -------------------------------------
 Structure from the checkpoint file:  "JID_862.chk"
 Charge =  0 Multiplicity = 1

 SCF Done:  E(RB3LYP) =  -493.594422073     A.U. after   14 cycles
 Normal termination of Gaussian 16 at Tue Dec  8 12:51:43 2020.

 ----------------------------------------------------------------------
 # B3LYP/6-311++G(d,p) empiricaldispersion=gd3bj scf=xqc pop=npa geom=c
 heck
 ----------------------------------------------------------------------

 -----------------------------------
 CID_67681677_JID_862_Energie_kation
 -----------------------------------
 Structure from the checkpoint file:  "JID_862.chk"
 Charge =  1 Multiplicity = 2

 SCF Done:  E(UB3LYP) =  -493.317701247     A.U. after   21 cycles
 Normal termination of Gaussian 16 at Tue Dec  8 13:04:44 2020.
 Gaussian 16:  ES64L-G16RevA.03 25-Dec-2016

 ----------------------------------------------------------------------
 # B3LYP/6-311++G(d,p) empiricaldispersion=gd3bj scf=xqc pop=npa geom=c
 heck
 ----------------------------------------------------------------------

 ----------------------------------
 CID_67681677_JID_862_Energie_anion
 ----------------------------------
 Structure from the checkpoint file:  "JID_862.chk"
 Charge = -1 Multiplicity = 2

                         Standard orientation:
 ---------------------------------------------------------------------
 Center     Atomic      Atomic             Coordinates (Angstroms)
 Number     Number       Type             X           Y           Z
 ---------------------------------------------------------------------
      1          6           0        3.749649   -0.057722    0.040412
      2          7           0        2.515474   -0.817802   -0.095020
      3          6           0        1.326983   -0.106146   -0.026070
      4          6           0        1.089290    1.271991   -0.012887
      5          6           0       -0.312530    1.453641   -0.003157
      6          6           0       -0.904985    0.200159   -0.002750
      7          7           0        0.121009   -0.739114   -0.016604
      8          6           0       -2.266603   -0.271756    0.007247
      9          8           0       -2.586997   -1.453855    0.003409
     10          8           0       -3.186115    0.731391    0.019080
     11          1           0        3.820866    0.498119    0.988685
     12          1           0        3.821454    0.659772   -0.782696
     13          1           0        4.596148   -0.744464   -0.033725
     14          1           0        2.507556   -1.663506    0.464896
     15          1           0        1.845680    2.042474    0.000876
     16          1           0       -0.846523    2.392742    0.017578
     17          1           0       -0.055577   -1.730684   -0.091849
     18          1           0       -4.050915    0.282671    0.020924
 ---------------------------------------------------------------------

 SCF Done:  E(UB3LYP) =  -493.582988822     A.U. after   32 cycles

 The electronic state is 2-A.
 Alpha  occ. eigenvalues --  -19.05977 -18.99055 -14.24129 -14.21321 -10.18214
 Alpha  occ. eigenvalues --  -10.12806 -10.08355 -10.08085 -10.05883 -10.04753
 Alpha  occ. eigenvalues --   -0.99461  -0.90253  -0.88102  -0.80514  -0.67315
 Alpha  occ. eigenvalues --   -0.63754  -0.57627  -0.52727  -0.48276  -0.47385
 Alpha  occ. eigenvalues --   -0.43786  -0.38776  -0.37443  -0.34886  -0.34089
 Alpha  occ. eigenvalues --   -0.33174  -0.32309  -0.30778  -0.29242  -0.28811
 Alpha  occ. eigenvalues --   -0.28260  -0.26982  -0.21593  -0.17881  -0.17313
 Alpha  occ. eigenvalues --   -0.14678  -0.08478   0.04977
 Alpha virt. eigenvalues --    0.07100   0.07336   0.08287   0.09349   0.10845
 Alpha virt. eigenvalues --    0.10973   0.12815   0.13135   0.14779   0.15019
 Alpha virt. eigenvalues --    0.15966   0.16565   0.16934   0.17883   0.18713

  Beta  occ. eigenvalues --  -19.05955 -18.98975 -14.24092 -14.21256 -10.18100
  Beta  occ. eigenvalues --  -10.12758 -10.08361 -10.08028 -10.05803 -10.04759
  Beta  occ. eigenvalues --   -0.99358  -0.90137  -0.88020  -0.80421  -0.67216
  Beta  occ. eigenvalues --   -0.63625  -0.57472  -0.52543  -0.48213  -0.47307
  Beta  occ. eigenvalues --   -0.43661  -0.38648  -0.37335  -0.34669  -0.33848
  Beta  occ. eigenvalues --   -0.33121  -0.32168  -0.30715  -0.29099  -0.28728
  Beta  occ. eigenvalues --   -0.28180  -0.26898  -0.21270  -0.17668  -0.17242
  Beta  occ. eigenvalues --   -0.14440  -0.08226
  Beta virt. eigenvalues --    0.07239   0.08133   0.08175   0.09489   0.09988
  Beta virt. eigenvalues --    0.11507   0.11583   0.13446   0.13757   0.14803
  Beta virt. eigenvalues --    0.15150   0.16078   0.16570   0.17096   0.17993

 Mulliken charges and spin densities:
               1          2
     1  C    1.801163  -2.129967
     2  N   -0.269314   0.150229
     3  C   -0.125990  -0.029164
     4  C    0.069718  -0.200302
     5  C    0.593931  -0.208355
     6  C   -0.227564  -0.076965
     7  N   -0.340173   0.133147
     8  C    0.217567  -0.378838
     9  O   -0.388666   0.026906
    10  O   -0.216373   0.007541
    11  H   -0.246810   0.390477
    12  H   -0.411760   0.556879
    13  H   -1.156380   1.319059
    14  H   -0.625740   0.885461
    15  H   -0.150529   0.307924
    16  H    0.045922   0.119684
    17  H    0.195607   0.098550
    18  H    0.235391   0.027734
 Sum of Mulliken charges =  -1.00000   1.00000

 Dipole moment (field-independent basis, Debye):
    X=             -9.3045    Y=              3.9688    Z=             -1.2328  Tot=             10.1905
 Quadrupole moment (field-independent basis, Debye-Ang):
   XX=           -133.7685   YY=            -91.9176   ZZ=            -79.6781
   XY=              8.7672   XZ=             -2.8589   YZ=              3.0155

 Summary of Natural Population Analysis:

                                       Natural Population
                Natural  -----------------------------------------------
    Atom  No    Charge         Core      Valence    Rydberg      Total
 -----------------------------------------------------------------------
      C    1   -0.17716      0.99966     2.16815    0.00935     3.17716
      N    2   -0.31521      0.99969     2.80299    0.01254     3.81521
      C    3    0.20418      0.99954     1.78275    0.01353     2.79582
      C    4   -0.18375      0.99953     2.17446    0.00976     3.18375
      C    5   -0.08681      0.99954     2.07941    0.00786     3.08681
      C    6   -0.01707      0.99949     2.00386    0.01372     3.01707
      N    7   -0.26456      0.99963     2.75566    0.00927     3.76456
      C    8    0.38719      0.99961     1.58960    0.02360     2.61281
      O    9   -0.33047      0.99988     3.32423    0.00636     4.33047
      O   10   -0.34945      0.99988     3.34334    0.00623     4.34945
      H   11    0.08501      0.00000     0.41294    0.00205     0.41499
      H   12    0.09412      0.00000     0.40398    0.00190     0.40588
      H   13    0.10472      0.00000     0.38972    0.00556     0.39528
      H   14    0.19424      0.00000     0.28927    0.01649     0.30576
      H   15    0.10722      0.00000     0.39189    0.00090     0.39278
      H   16    0.10464      0.00000     0.39453    0.00084     0.39536
      H   17    0.20969      0.00000     0.28823    0.00208     0.29031
      H   18    0.23349      0.00000     0.26281    0.00371     0.26651
 =======================================================================
   * Total *   -0.00000      9.99645    26.85779    0.14575    37.00000

 Normal termination of Gaussian 16 at Tue Dec  8 13:17:15 2020.
