 Gaussian 16, Revision A.03,

 -----------------------------------------------------------
 # opt freq B3LYP/6-31G(d) empiricaldispersion=gd3bj scf=xqc
 -----------------------------------------------------------

 -------------------------------
 CID_101478681_JID_5384_neutraal
 -------------------------------
 Symbolic Z-matrix:
 Charge =  0 Multiplicity = 1

 SCF Done:  E(RB3LYP) =  -691.452269747     A.U. after   15 cycles
 SCF Done:  E(RB3LYP) =  -691.456204971     A.U. after   12 cycles
 SCF Done:  E(RB3LYP) =  -691.455592950     A.U. after   13 cycles
 SCF Done:  E(RB3LYP) =  -691.457990496     A.U. after   13 cycles
 SCF Done:  E(RB3LYP) =  -691.458579129     A.U. after   12 cycles
 SCF Done:  E(RB3LYP) =  -691.458677179     A.U. after   11 cycles
 SCF Done:  E(RB3LYP) =  -691.458767508     A.U. after   12 cycles
 SCF Done:  E(RB3LYP) =  -691.458794202     A.U. after   10 cycles
 SCF Done:  E(RB3LYP) =  -691.458815654     A.U. after   11 cycles
 SCF Done:  E(RB3LYP) =  -691.458826713     A.U. after   10 cycles
 SCF Done:  E(RB3LYP) =  -691.458912470     A.U. after   10 cycles
 SCF Done:  E(RB3LYP) =  -691.458913702     A.U. after    8 cycles
 SCF Done:  E(RB3LYP) =  -691.458913863     A.U. after    8 cycles
 SCF Done:  E(RB3LYP) =  -691.458913934     A.U. after    7 cycles
 SCF Done:  E(RB3LYP) =  -691.458913963     A.U. after    7 cycles
 Optimization completed.
    -- Stationary point found.
 Normal termination of Gaussian 16 at Thu Dec 10 16:02:57 2020.

 --------------------------------------------------------------------
 #N Geom=AllCheck Guess=TCheck SCRF=Check GenChk RB3LYP/6-31G(d) Freq
 --------------------------------------------------------------------

 Structure from the checkpoint file:  "JID_5384.chk"
 -------------------------------
 CID_101478681_JID_5384_neutraal
 -------------------------------
 Charge =  0 Multiplicity = 1

 SCF Done:  E(RB3LYP) =  -691.458913963     A.U. after    1 cycles

  Exact polarizability: 191.671  -3.676 143.427  -1.967   0.029  73.399
 Approx polarizability: 256.899  -9.126 246.497  -4.959   1.717 113.611

                      1                      2                      3
                      A                      A                      A
 Frequencies --     32.9511                56.8458               119.5520
 Red. masses --      5.4303                 3.6161                 3.0406
 Frc consts  --      0.0035                 0.0069                 0.0256
 IR Inten    --      2.6324                 0.4816                 0.0862

                      4                      5                      6
                      A                      A                      A
 Frequencies --    129.0846               149.9093               152.5742
 Red. masses --      2.0779                 2.0859                 1.5089
 Frc consts  --      0.0204                 0.0276                 0.0207
 IR Inten    --      1.7004                 0.1866                 0.8289

                      7                      8                      9
                      A                      A                      A
 Frequencies --    182.9177               203.6062               214.6220
 Red. masses --      3.7915                 1.1546                 2.1057
 Frc consts  --      0.0747                 0.0282                 0.0571
 IR Inten    --      1.9141                 0.4200                 0.1040

                     10                     11                     12
                      A                      A                      A
 Frequencies --    272.4088               297.7150               318.4563
 Red. masses --      3.6001                 4.2205                 4.3193
 Frc consts  --      0.1574                 0.2204                 0.2581
 IR Inten    --      0.2177                 2.6629                 0.5579

                     13                     14                     15
                      A                      A                      A
 Frequencies --    348.9213               373.7844               394.6633
 Red. masses --      4.5803                 3.3511                 5.1890
 Frc consts  --      0.3286                 0.2759                 0.4762
 IR Inten    --      4.1511                 6.0790                 7.4840

                     16                     17                     18
                      A                      A                      A
 Frequencies --    412.1472               470.8586               535.1122
 Red. masses --      7.6063                 6.0361                 3.3939
 Frc consts  --      0.7612                 0.7885                 0.5726
 IR Inten    --      5.8483                 8.3467                 0.2411

                     19                     20                     21
                      A                      A                      A
 Frequencies --    562.0482               603.1333               606.6714
 Red. masses --      4.1214                 1.6628                 2.0192
 Frc consts  --      0.7671                 0.3564                 0.4379
 IR Inten    --      2.3917                53.3767                38.7544

                     22                     23                     24
                      A                      A                      A
 Frequencies --    620.3046               637.2107               680.6689
 Red. masses --      3.4608                 2.3136                 4.2302
 Frc consts  --      0.7846                 0.5535                 1.1547
 IR Inten    --      5.9956                 2.1934                 2.2926

                     25                     26                     27
                      A                      A                      A
 Frequencies --    715.5746               769.6499               783.4211
 Red. masses --      4.3337                 8.9377                 4.2136
 Frc consts  --      1.3074                 3.1193                 1.5237
 IR Inten    --      1.9805                15.0281                 3.8124

                     28                     29                     30
                      A                      A                      A
 Frequencies --    831.4178               867.9716               876.9590
 Red. masses --      3.5985                 1.6886                 1.8014
 Frc consts  --      1.4656                 0.7495                 0.8162
 IR Inten    --     20.0638                 4.5787                11.8902

                     31                     32                     33
                      A                      A                      A
 Frequencies --    904.3157               931.6379               982.2263
 Red. masses --      1.5384                 2.3524                 3.7694
 Frc consts  --      0.7412                 1.2029                 2.1426
 IR Inten    --      1.3471                 0.7417                 7.4600

                     34                     35                     36
                      A                      A                      A
 Frequencies --   1016.7819              1024.7916              1054.9220
 Red. masses --      3.3762                 2.4522                 1.5256
 Frc consts  --      2.0565                 1.5173                 1.0003
 IR Inten    --      0.3205                 0.5629                 2.9546

                     37                     38                     39
                      A                      A                      A
 Frequencies --   1081.1912              1088.8918              1094.4902
 Red. masses --      1.6949                 4.2638                 2.6892
 Frc consts  --      1.1673                 2.9787                 1.8980
 IR Inten    --      0.3409                98.7068                 9.2401

                     40                     41                     42
                      A                      A                      A
 Frequencies --   1160.0234              1167.8827              1185.6167
 Red. masses --      1.6787                 2.1143                 1.2658
 Frc consts  --      1.3309                 1.6990                 1.0483
 IR Inten    --    106.8651               143.1292                 0.7837

                     43                     44                     45
                      A                      A                      A
 Frequencies --   1198.5059              1212.6324              1232.2282
 Red. masses --      1.3680                 1.6561                 1.6143
 Frc consts  --      1.1578                 1.4348                 1.4441
 IR Inten    --      4.7029                98.6064                31.0564

                     46                     47                     48
                      A                      A                      A
 Frequencies --   1256.1400              1265.6127              1302.3073
 Red. masses --      1.2803                 3.2703                 3.1851
 Frc consts  --      1.1903                 3.0863                 3.1827
 IR Inten    --      1.4192               167.5704               130.0350

                     49                     50                     51
                      A                      A                      A
 Frequencies --   1328.8848              1343.0027              1349.8701
 Red. masses --      1.4460                 1.7610                 2.4950
 Frc consts  --      1.5045                 1.8714                 2.6786
 IR Inten    --     11.6270                10.6038                20.1824

                     52                     53                     54
                      A                      A                      A
 Frequencies --   1363.7184              1418.7858              1443.9216
 Red. masses --      1.5619                 3.7020                 1.2281
 Frc consts  --      1.7114                 4.3906                 1.5085
 IR Inten    --      0.4792               130.4580                11.7350

                     55                     56                     57
                      A                      A                      A
 Frequencies --   1482.8991              1486.1169              1505.4650
 Red. masses --      1.5361                 1.7513                 1.2764
 Frc consts  --      1.9901                 2.2788                 1.7045
 IR Inten    --     16.7224                58.2104                 2.9144

                     58                     59                     60
                      A                      A                      A
 Frequencies --   1508.9840              1509.8440              1516.5632
 Red. masses --      1.0619                 1.1370                 1.0956
 Frc consts  --      1.4246                 1.5271                 1.4847
 IR Inten    --      6.4712                10.6843                15.0687

                     61                     62                     63
                      A                      A                      A
 Frequencies --   1519.9786              1526.0687              1534.3052
 Red. masses --      1.2082                 1.1249                 1.1574
 Frc consts  --      1.6447                 1.5435                 1.6053
 IR Inten    --      3.7389                57.8822                10.5661

                     64                     65                     66
                      A                      A                      A
 Frequencies --   1536.2900              1635.1797              1676.8802
 Red. masses --      1.6305                 4.9140                 6.7567
 Frc consts  --      2.2674                 7.7413                11.1942
 IR Inten    --     31.2271               116.9125               182.3205

                     67                     68                     69
                      A                      A                      A
 Frequencies --   1796.6419              3021.7224              3029.1026
 Red. masses --     10.8964                 1.0713                 1.0699
 Frc consts  --     20.7232                 5.7635                 5.7838
 IR Inten    --    262.9578                34.1872                27.5072

                     70                     71                     72
                      A                      A                      A
 Frequencies --   3062.5983              3075.2619              3083.1851
 Red. masses --      1.0661                 1.0373                 1.0285
 Frc consts  --      5.8915                 5.7798                 5.7605
 IR Inten    --     26.1824                11.2479                42.4800

                     73                     74                     75
                      A                      A                      A
 Frequencies --   3092.6745              3094.9980              3118.0946
 Red. masses --      1.0928                 1.0891                 1.1037
 Frc consts  --      6.1582                 6.1469                 6.3221
 IR Inten    --     28.8605                38.1873                47.2216

                     76                     77                     78
                      A                      A                      A
 Frequencies --   3133.4055              3154.6151              3162.9640
 Red. masses --      1.0988                 1.1030                 1.1080
 Frc consts  --      6.3561                 6.4675                 6.5308
 IR Inten    --      8.6076                23.9247                17.4531

                     79                     80                     81
                      A                      A                      A
 Frequencies --   3185.5932              3212.0225              3586.8604
 Red. masses --      1.1082                 1.0914                 1.0643
 Frc consts  --      6.6258                 6.6342                 8.0675
 IR Inten    --     14.3824                 6.2328               363.3519

 - Thermochemistry -
 -------------------
 Temperature   298.150 Kelvin.  Pressure   1.00000 Atm.
 Atom     1 has atomic number  6 and mass  12.00000

 Molecular mass:   206.09429 amu.
 Principal axes and moments of inertia in atomic units:
                           1         2         3
     Eigenvalues --  1418.770554559.141045896.39225
           X            0.99999   0.00466   0.00076
           Y           -0.00466   0.99998  -0.00289
           Z           -0.00077   0.00289   1.00000
 This molecule is an asymmetric top.
 Rotational symmetry number  1.
 Warning -- assumption of classical behavior for rotation
           may cause significant error
 Rotational temperatures (Kelvin)      0.06105     0.01900     0.01469
 Rotational constants (GHZ):           1.27205     0.39585     0.30608
 Zero-point vibrational energy     633290.2 (Joules/Mol)
                                  151.36000 (Kcal/Mol)
 Warning -- explicit consideration of  22 degrees of freedom as
           vibrations may cause significant error
 Vibrational temperatures:     47.41    81.79   172.01   185.72   215.69
          (Kelvin)            219.52   263.18   292.94   308.79   391.94
                              428.35   458.19   502.02   537.79   567.83
                              592.99   677.46   769.91   808.66   867.77
                              872.86   892.48   916.80   979.33  1029.55
                             1107.35  1127.17  1196.22  1248.82  1261.75
                             1301.11  1340.42  1413.20  1462.92  1474.45
                             1517.80  1555.59  1566.67  1574.73  1669.01
                             1680.32  1705.84  1724.38  1744.71  1772.90
                             1807.31  1820.93  1873.73  1911.97  1932.28
                             1942.16  1962.09  2041.32  2077.48  2133.56
                             2138.19  2166.03  2171.09  2172.33  2182.00
                             2186.91  2195.67  2207.52  2210.38  2352.66
                             2412.66  2584.97  4347.58  4358.20  4406.40
                             4424.62  4436.02  4449.67  4453.01  4486.24
                             4508.27  4538.79  4550.80  4583.36  4621.38
                             5160.69

 Zero-point correction=                           0.241208 (Hartree/Particle)
 Thermal correction to Energy=                    0.255042
 Thermal correction to Enthalpy=                  0.255986
 Thermal correction to Gibbs Free Energy=         0.200477
 Sum of electronic and zero-point Energies=           -691.217706
 Sum of electronic and thermal Energies=              -691.203872
 Sum of electronic and thermal Enthalpies=            -691.202928
 Sum of electronic and thermal Free Energies=         -691.258437

                     E (Thermal)             CV                S
                      KCal/Mol        Cal/Mol-Kelvin    Cal/Mol-Kelvin
 Total                  160.041             53.001            116.829
 Electronic               0.000              0.000              0.000
 Translational            0.889              2.981             41.874
 Rotational               0.889              2.981             32.012
 Vibrational            158.264             47.040             42.944
 Vibration     1          0.594              1.983              5.643
 Vibration     2          0.596              1.975              4.564
 Vibration     3          0.609              1.933              3.108
 Vibration     4          0.612              1.924              2.960
 Vibration     5          0.618              1.903              2.673
 Vibration     6          0.619              1.900              2.640
 Vibration     7          0.630              1.863              2.298
 Vibration     8          0.639              1.835              2.100
 Vibration     9          0.645              1.819              2.004
 Vibration    10          0.675              1.724              1.581
 Vibration    11          0.691              1.678              1.430
 Vibration    12          0.705              1.638              1.318
 Vibration    13          0.726              1.577              1.171
 Vibration    14          0.745              1.526              1.064
 Vibration    15          0.762              1.482              0.982
 Vibration    16          0.776              1.444              0.919
 Vibration    17          0.828              1.315              0.735
 Vibration    18          0.890              1.172              0.576
 Vibration    19          0.918              1.113              0.520
 Vibration    20          0.962              1.025              0.444
 Vibration    21          0.965              1.018              0.438
 Vibration    22          0.980              0.989              0.416

 Optimization completed.
    -- Stationary point found.
 Normal termination of Gaussian 16 at Thu Dec 10 16:12:06 2020.

 ----------------------------------------------------------------------
 # B3LYP/6-311++G(d,p) empiricaldispersion=gd3bj scf=xqc pop=npa geom=c
 heck
 ----------------------------------------------------------------------

 ---------------------------------------
 CID_101478681_JID_5384_Energie_neutraal
 ---------------------------------------
 Structure from the checkpoint file:  "JID_5384.chk"
 Charge =  0 Multiplicity = 1

 SCF Done:  E(RB3LYP) =  -691.653551965     A.U. after   16 cycles
 Normal termination of Gaussian 16 at Thu Dec 10 16:16:28 2020.

 ----------------------------------------------------------------------
 # B3LYP/6-311++G(d,p) empiricaldispersion=gd3bj scf=xqc pop=npa geom=c
 heck
 ----------------------------------------------------------------------

 -------------------------------------
 CID_101478681_JID_5384_Energie_kation
 -------------------------------------
 Structure from the checkpoint file:  "JID_5384.chk"
 Charge =  1 Multiplicity = 2

 SCF Done:  E(UB3LYP) =  -691.365056463     A.U. after   24 cycles
 Normal termination of Gaussian 16 at Thu Dec 10 16:24:09 2020.
 Gaussian 16:  ES64L-G16RevA.03 25-Dec-2016

 ----------------------------------------------------------------------
 # B3LYP/6-311++G(d,p) empiricaldispersion=gd3bj scf=xqc pop=npa geom=c
 heck
 ----------------------------------------------------------------------

 ------------------------------------
 CID_101478681_JID_5384_Energie_anion
 ------------------------------------
 Structure from the checkpoint file:  "JID_5384.chk"
 Charge = -1 Multiplicity = 2

                         Standard orientation:
 ---------------------------------------------------------------------
 Center     Atomic      Atomic             Coordinates (Angstroms)
 Number     Number       Type             X           Y           Z
 ---------------------------------------------------------------------
      1          6           0        0.120029    2.457628   -0.129049
      2          6           0        0.359428    0.967749   -0.063994
      3          6           0        1.667975    0.496608   -0.068437
      4          6           0        2.964622    1.285390   -0.115761
      5          6           0        4.027150    0.243859    0.312651
      6          6           0        3.436225   -1.124088   -0.098939
      7          6           0        1.946247   -0.880961   -0.048091
      8          6           0        0.929594   -1.813198   -0.015262
      9          6           0       -0.401913   -1.376701    0.003350
     10          6           0       -0.708297    0.015724   -0.013122
     11          6           0       -2.096963    0.514185    0.059476
     12          8           0       -2.456066    1.658957    0.247114
     13          8           0       -3.043999   -0.475926   -0.114986
     14          6           0       -4.411596   -0.046795   -0.015820
     15          8           0       -1.323066   -2.365230    0.050804
     16          1           0        1.057756    2.981967   -0.324348
     17          1           0       -0.306958    2.838346    0.803607
     18          1           0       -0.594592    2.718937   -0.913354
     19          1           0        3.162278    1.649632   -1.134816
     20          1           0        2.966578    2.163226    0.538167
     21          1           0        5.011103    0.433709   -0.125923
     22          1           0        4.139443    0.273279    1.402630
     23          1           0        3.732874   -1.387252   -1.124732
     24          1           0        3.760692   -1.947713    0.546025
     25          1           0        1.117166   -2.881933    0.000439
     26          1           0       -4.604645    0.388418    0.967331
     27          1           0       -4.630166    0.696593   -0.785262
     28          1           0       -5.009618   -0.945798   -0.166243
     29          1           0       -2.211880   -1.960211    0.011009
 ---------------------------------------------------------------------

 SCF Done:  E(UB3LYP) =  -691.648826155     A.U. after   33 cycles
 SCF Done:  E(UB3LYP) =  -691.648826155     a.u. after    2 cycles

 The electronic state is 2-A.
 Alpha  occ. eigenvalues --  -19.03590 -19.00638 -18.94962 -10.13807 -10.11259
 Alpha  occ. eigenvalues --  -10.09492 -10.05272 -10.04985 -10.04793 -10.03484
 Alpha  occ. eigenvalues --  -10.03294 -10.02701 -10.02544 -10.02451 -10.01863
 Alpha  occ. eigenvalues --   -0.96942  -0.92310  -0.87243  -0.73445  -0.67911
 Alpha  occ. eigenvalues --   -0.63774  -0.62166  -0.57795  -0.57463  -0.54786
 Alpha  occ. eigenvalues --   -0.48423  -0.46786  -0.44433  -0.43619  -0.40555
 Alpha  occ. eigenvalues --   -0.37165  -0.36120  -0.35472  -0.34326  -0.33089
 Alpha  occ. eigenvalues --   -0.31824  -0.29977  -0.29415  -0.28455  -0.27773
 Alpha  occ. eigenvalues --   -0.26931  -0.26598  -0.25898  -0.25474  -0.23531
 Alpha  occ. eigenvalues --   -0.23101  -0.22614  -0.21977  -0.21399  -0.18989
 Alpha  occ. eigenvalues --   -0.18364  -0.17407  -0.13469  -0.10929  -0.08187
 Alpha  occ. eigenvalues --    0.05297
 Alpha virt. eigenvalues --    0.07118   0.07757   0.09545   0.10059   0.10131
 Alpha virt. eigenvalues --    0.10569   0.11503   0.12022   0.12283   0.12384
 Alpha virt. eigenvalues --    0.12701   0.13538   0.14343   0.14600   0.15808

  Beta  occ. eigenvalues --  -19.03509 -19.00609 -18.94641 -10.13548 -10.11246
  Beta  occ. eigenvalues --  -10.09399 -10.05258 -10.04974 -10.04818 -10.03256
  Beta  occ. eigenvalues --  -10.03171 -10.02721 -10.02655 -10.02137 -10.01866
  Beta  occ. eigenvalues --   -0.96663  -0.92215  -0.86764  -0.73193  -0.67668
  Beta  occ. eigenvalues --   -0.63484  -0.61919  -0.57596  -0.57417  -0.54639
  Beta  occ. eigenvalues --   -0.48074  -0.46687  -0.44280  -0.43374  -0.40387
  Beta  occ. eigenvalues --   -0.37043  -0.35763  -0.35344  -0.34186  -0.32741
  Beta  occ. eigenvalues --   -0.31762  -0.29760  -0.28899  -0.28230  -0.27667
  Beta  occ. eigenvalues --   -0.26750  -0.26337  -0.25573  -0.24852  -0.23368
  Beta  occ. eigenvalues --   -0.22954  -0.22565  -0.21865  -0.21290  -0.18840
  Beta  occ. eigenvalues --   -0.17601  -0.16614  -0.13183  -0.09629  -0.07561
  Beta virt. eigenvalues --    0.07408   0.07945   0.09518   0.09900   0.10116
  Beta virt. eigenvalues --    0.10659   0.10939   0.11639   0.12074   0.12276
  Beta virt. eigenvalues --    0.12429   0.12615   0.13905   0.14275   0.14634

 Mulliken charges and spin densities:
               1          2
     1  C   -0.500258  -0.061822
     2  C    0.006223   0.288347
     3  C   -0.656498  -0.314839
     4  C   -0.583683   0.255289
     5  C   -0.162254  -0.392644
     6  C   -0.263753  -0.018676
     7  C    1.275920  -0.023594
     8  C   -0.208301  -0.025843
     9  C   -0.590702   0.037510
    10  C    0.601323   0.273171
    11  C   -0.167967   0.068821
    12  O   -0.341033   0.108144
    13  O   -0.273473   0.028686
    14  C    0.130593  -0.365629
    15  O   -0.324548   0.011830
    16  H    0.084414   0.049611
    17  H    0.152170   0.021232
    18  H    0.149940   0.004098
    19  H    0.083284   0.051238
    20  H    0.111185  -0.002047
    21  H   -0.194945   0.342754
    22  H    0.132087  -0.013286
    23  H   -0.097870   0.252440
    24  H    0.145377  -0.023126
    25  H    0.106098   0.007368
    26  H    0.023076   0.159756
    27  H    0.083508   0.079075
    28  H   -0.083306   0.202536
    29  H    0.363393  -0.000399
 Sum of Mulliken charges =  -1.00000   1.00000

 Dipole moment (field-independent basis, Debye):
    X=             -0.1613    Y=              0.0289    Z=              0.5668  Tot=              0.5900
 Quadrupole moment (field-independent basis, Debye-Ang):
   XX=           -140.6084   YY=           -114.6360   ZZ=           -101.4926
   XY=              4.0542   XZ=              7.9948   YZ=             -1.9230

 Summary of Natural Population Analysis:

                                       Natural Population
                Natural  -----------------------------------------------
    Atom  No    Charge         Core      Valence    Rydberg      Total
 -----------------------------------------------------------------------
      C    1   -0.29561      0.99964     2.29087    0.00510     3.29561
      C    2    0.07355      0.99947     1.91956    0.00742     2.92645
      C    3   -0.06355      0.99944     2.05570    0.00842     3.06355
      C    4   -0.19489      0.99962     2.18680    0.00848     3.19489
      C    5   -0.18484      0.99966     2.17610    0.00909     3.18484
      C    6   -0.19979      0.99961     2.19222    0.00796     3.19979
      C    7    0.05853      0.99948     1.93245    0.00954     2.94147
      C    8   -0.14609      0.99948     2.13783    0.00878     3.14609
      C    9    0.20343      0.99941     1.78453    0.01263     2.79657
      C   10   -0.11665      0.99941     2.10872    0.00852     3.11665
      C   11    0.43043      0.99963     1.54642    0.02352     2.56957
      O   12   -0.29360      0.99987     3.28831    0.00542     4.29360
      O   13   -0.30547      0.99986     3.29647    0.00914     4.30547
      C   14   -0.10058      0.99961     2.09233    0.00864     3.10058
      O   15   -0.35245      0.99987     3.34554    0.00705     4.35245
      H   16    0.09043      0.00000     0.40870    0.00087     0.40957
      H   17    0.10984      0.00000     0.38866    0.00150     0.39016
      H   18    0.10935      0.00000     0.38956    0.00110     0.39065
      H   19    0.09361      0.00000     0.40526    0.00113     0.40639
      H   20    0.09607      0.00000     0.40291    0.00102     0.40393
      H   21    0.09378      0.00000     0.40472    0.00151     0.40622
      H   22    0.09071      0.00000     0.40826    0.00104     0.40929
      H   23    0.10201      0.00000     0.39600    0.00199     0.39799
      H   24    0.09707      0.00000     0.40196    0.00097     0.40293
      H   25    0.09610      0.00000     0.40222    0.00168     0.40390
      H   26    0.08985      0.00000     0.40817    0.00198     0.41015
      H   27    0.08861      0.00000     0.40973    0.00166     0.41139
      H   28    0.08382      0.00000     0.41481    0.00137     0.41618
      H   29    0.24632      0.00000     0.25017    0.00351     0.25368
 =======================================================================
   * Total *    0.00000     14.99404    39.84494    0.16102    55.00000

 Normal termination of Gaussian 16 at Thu Dec 10 16:50:44 2020.
