 Gaussian 16, Revision A.03,

 -----------------------------------------------------------
 # opt freq B3LYP/6-31G(d) empiricaldispersion=gd3bj scf=xqc
 -----------------------------------------------------------

 ------------------------------
 CID_68070339_JID_4529_neutraal
 ------------------------------
 Symbolic Z-matrix:
 Charge =  0 Multiplicity = 1

 SCF Done:  E(RB3LYP) =  -559.179599940     A.U. after   15 cycles
 SCF Done:  E(RB3LYP) =  -559.189835327     A.U. after   13 cycles
 SCF Done:  E(RB3LYP) =  -559.190519928     A.U. after   12 cycles
 SCF Done:  E(RB3LYP) =  -559.190772105     A.U. after   11 cycles
 SCF Done:  E(RB3LYP) =  -559.191034082     A.U. after   12 cycles
 SCF Done:  E(RB3LYP) =  -559.191132306     A.U. after   12 cycles
 SCF Done:  E(RB3LYP) =  -559.191395274     A.U. after   11 cycles
 SCF Done:  E(RB3LYP) =  -559.191729800     A.U. after   12 cycles
 SCF Done:  E(RB3LYP) =  -559.191738288     A.U. after   10 cycles
 SCF Done:  E(RB3LYP) =  -559.191747619     A.U. after   11 cycles
 SCF Done:  E(RB3LYP) =  -559.191770216     A.U. after   10 cycles
 SCF Done:  E(RB3LYP) =  -559.191772950     A.U. after    9 cycles
 SCF Done:  E(RB3LYP) =  -559.191773036     A.U. after    8 cycles
 SCF Done:  E(RB3LYP) =  -559.191773065     A.U. after    7 cycles
 Optimization completed.
    -- Stationary point found.
 Normal termination of Gaussian 16 at Thu Dec 10 10:02:16 2020.

 --------------------------------------------------------------------
 #N Geom=AllCheck Guess=TCheck SCRF=Check GenChk RB3LYP/6-31G(d) Freq
 --------------------------------------------------------------------

 Structure from the checkpoint file:  "JID_4529.chk"
 ------------------------------
 CID_68070339_JID_4529_neutraal
 ------------------------------
 Charge =  0 Multiplicity = 1

 SCF Done:  E(RB3LYP) =  -559.191773065     A.U. after    1 cycles

  Exact polarizability: 181.906   1.612 136.393   3.438   0.638  83.399
 Approx polarizability: 235.438   9.473 237.482   8.713   2.123 122.046

                      1                      2                      3
                      A                      A                      A
 Frequencies --     28.5067                45.3038                65.6360
 Red. masses --      2.7203                 3.5572                 4.0787
 Frc consts  --      0.0013                 0.0043                 0.0104
 IR Inten    --      0.7050                 0.5930                 0.1278

                      4                      5                      6
                      A                      A                      A
 Frequencies --    101.2313               128.6923               158.9203
 Red. masses --      2.4304                 7.2111                 3.7630
 Frc consts  --      0.0147                 0.0704                 0.0560
 IR Inten    --      0.0993                 5.9009                 0.9764

                      7                      8                      9
                      A                      A                      A
 Frequencies --    203.7934               212.5716               256.7847
 Red. masses --      3.2165                 1.4027                 1.9537
 Frc consts  --      0.0787                 0.0373                 0.0759
 IR Inten    --      2.2561                 0.4271                 0.1707

                     10                     11                     12
                      A                      A                      A
 Frequencies --    278.1869               325.4196               368.6505
 Red. masses --      3.3420                 3.2409                 2.8220
 Frc consts  --      0.1524                 0.2022                 0.2260
 IR Inten    --      1.0242                 0.6228                 0.2875

                     13                     14                     15
                      A                      A                      A
 Frequencies --    416.7208               425.8369               437.3273
 Red. masses --      3.1200                 3.4634                 4.1313
 Frc consts  --      0.3192                 0.3700                 0.4655
 IR Inten    --      0.0309                 0.0831                 0.4242

                     16                     17                     18
                      A                      A                      A
 Frequencies --    531.4193               556.1634               587.5027
 Red. masses --      5.4962                 3.4542                 4.3816
 Frc consts  --      0.9145                 0.6295                 0.8911
 IR Inten    --      1.8434                 9.1749                 2.7295

                     19                     20                     21
                      A                      A                      A
 Frequencies --    616.2671               659.5879               695.0069
 Red. masses --      3.6408                 6.8627                 1.5917
 Frc consts  --      0.8147                 1.7591                 0.4530
 IR Inten    --      3.6439                 0.0209                 1.6806

                     22                     23                     24
                      A                      A                      A
 Frequencies --    748.8562               796.3030               801.2010
 Red. masses --      3.5961                 3.6683                 1.1586
 Frc consts  --      1.1882                 1.3705                 0.4382
 IR Inten    --      0.0724                 1.1174                 0.7326

                     25                     26                     27
                      A                      A                      A
 Frequencies --    808.0349               846.6040               858.6725
 Red. masses --      1.3527                 1.4989                 1.2791
 Frc consts  --      0.5204                 0.6330                 0.5557
 IR Inten    --      0.7059                21.7231                 4.4960

                     28                     29                     30
                      A                      A                      A
 Frequencies --    875.3036               898.6808               953.6622
 Red. masses --      1.9643                 2.5473                 2.7929
 Frc consts  --      0.8867                 1.2121                 1.4965
 IR Inten    --      1.1342                 0.2693                 1.1505

                     31                     32                     33
                      A                      A                      A
 Frequencies --    955.2869               960.9627               969.4549
 Red. masses --      2.5165                 1.3754                 1.4250
 Frc consts  --      1.3530                 0.7483                 0.7891
 IR Inten    --      1.3214                 0.0257                 0.0700

                     34                     35                     36
                      A                      A                      A
 Frequencies --    982.3817              1001.5415              1036.9765
 Red. masses --      2.3765                 3.4272                 3.7865
 Frc consts  --      1.3513                 2.0255                 2.3989
 IR Inten    --      2.0810                 0.0893                 7.4377

                     37                     38                     39
                      A                      A                      A
 Frequencies --   1058.9046              1081.5529              1083.1969
 Red. masses --      2.8824                 1.1024                 1.4971
 Frc consts  --      1.9042                 0.7598                 1.0349
 IR Inten    --      0.0230                 0.0512                 0.9879

                     40                     41                     42
                      A                      A                      A
 Frequencies --   1093.7489              1159.0771              1183.0044
 Red. masses --      1.8905                 1.4918                 2.4026
 Frc consts  --      1.3325                 1.1808                 1.9811
 IR Inten    --     13.6561                 4.0023                 4.4187

                     43                     44                     45
                      A                      A                      A
 Frequencies --   1224.8829              1228.5150              1243.4747
 Red. masses --      1.2982                 1.1920                 2.3707
 Frc consts  --      1.1476                 1.0600                 2.1598
 IR Inten    --      0.7988                 3.2682                 0.1226

                     46                     47                     48
                      A                      A                      A
 Frequencies --   1248.6435              1268.0284              1286.6037
 Red. masses --      1.8987                 1.2700                 1.3803
 Frc consts  --      1.7441                 1.2031                 1.3462
 IR Inten    --      0.5140                 0.0106                 0.0331

                     49                     50                     51
                      A                      A                      A
 Frequencies --   1292.7026              1297.1427              1314.8936
 Red. masses --      1.6605                 1.3458                 1.9811
 Frc consts  --      1.6349                 1.3342                 2.0181
 IR Inten    --      1.8467                 1.3863                12.7676

                     52                     53                     54
                      A                      A                      A
 Frequencies --   1353.6603              1372.2412              1374.4203
 Red. masses --      2.3027                 1.5831                 1.7262
 Frc consts  --      2.4860                 1.7564                 1.9213
 IR Inten    --      2.5260                 2.7030                 3.5658

                     55                     56                     57
                      A                      A                      A
 Frequencies --   1435.9931              1465.1183              1507.4541
 Red. masses --      1.2184                 2.7042                 1.0849
 Frc consts  --      1.4802                 3.4200                 1.4525
 IR Inten    --      1.4575                 7.3911                 2.3395

                     58                     59                     60
                      A                      A                      A
 Frequencies --   1516.1107              1518.2232              1525.9978
 Red. masses --      1.0845                 1.0636                 1.0409
 Frc consts  --      1.4687                 1.4445                 1.4281
 IR Inten    --      2.3907                 0.9376                 7.8056

                     61                     62                     63
                      A                      A                      A
 Frequencies --   1537.2647              1538.5819              1567.5175
 Red. masses --      1.1284                 1.0850                 2.3722
 Frc consts  --      1.5711                 1.5133                 3.4342
 IR Inten    --      2.3738                 2.1186                23.1937

                     64                     65                     66
                      A                      A                      A
 Frequencies --   1631.0330              1677.4369              2357.1800
 Red. masses --      6.2097                 5.7598                12.6833
 Frc consts  --      9.7330                 9.5489                41.5210
 IR Inten    --      0.4790                 0.2122                13.7006

                     67                     68                     69
                      A                      A                      A
 Frequencies --   3046.9017              3049.6502              3081.8830
 Red. masses --      1.0592                 1.0352                 1.1039
 Frc consts  --      5.7937                 5.6723                 6.1773
 IR Inten    --     31.7983                35.0340                 8.7870

                     70                     71                     72
                      A                      A                      A
 Frequencies --   3088.7315              3094.3558              3098.0116
 Red. masses --      1.0579                 1.0570                 1.0612
 Frc consts  --      5.9464                 5.9632                 6.0011
 IR Inten    --     37.0884                37.0378                 3.0526

                     73                     74                     75
                      A                      A                      A
 Frequencies --   3120.5658              3123.9260              3133.0526
 Red. masses --      1.1029                 1.1035                 1.1098
 Frc consts  --      6.3279                 6.3450                 6.4185
 IR Inten    --     49.2596                33.2016                12.6708

                     76                     77                     78
                      A                      A                      A
 Frequencies --   3152.3664              3157.6818              3174.5536
 Red. masses --      1.1101                 1.1086                 1.0868
 Frc consts  --      6.4998                 6.5127                 6.4533
 IR Inten    --      7.3711                38.9946                11.9096

                     79                     80                     81
                      A                      A                      A
 Frequencies --   3180.6529              3193.2924              3211.0281
 Red. masses --      1.0889                 1.0935                 1.0924
 Frc consts  --      6.4902                 6.5698                 6.6362
 IR Inten    --     17.8601                19.9650                 3.5916

 - Thermochemistry -
 -------------------
 Temperature   298.150 Kelvin.  Pressure   1.00000 Atm.
 Atom     1 has atomic number  6 and mass  12.00000

 Molecular mass:   185.12045 amu.
 Principal axes and moments of inertia in atomic units:
                           1         2         3
     Eigenvalues --  1117.115934974.270835619.81445
           X            0.99984  -0.01714  -0.00493
           Y            0.01711   0.99984  -0.00529
           Z            0.00502   0.00520   0.99997
 This molecule is an asymmetric top.
 Rotational symmetry number  1.
 Warning -- assumption of classical behavior for rotation
           may cause significant error
 Rotational temperatures (Kelvin)      0.07753     0.01741     0.01541
 Rotational constants (GHZ):           1.61554     0.36282     0.32114
 Zero-point vibrational energy     651622.1 (Joules/Mol)
                                  155.74142 (Kcal/Mol)
 Warning -- explicit consideration of  19 degrees of freedom as
           vibrations may cause significant error
 Vibrational temperatures:     41.01    65.18    94.44   145.65   185.16
          (Kelvin)            228.65   293.21   305.84   369.46   400.25
                              468.21   530.41   599.57   612.68   629.22
                              764.59   800.20   845.29   886.67   949.00
                              999.96  1077.44  1145.70  1152.75  1162.58
                             1218.07  1235.44  1259.37  1293.00  1372.11
                             1374.44  1382.61  1394.83  1413.43  1440.99
                             1491.98  1523.53  1556.11  1558.48  1573.66
                             1667.65  1702.08  1762.33  1767.56  1789.08
                             1796.52  1824.41  1851.14  1859.91  1866.30
                             1891.84  1947.62  1974.35  1977.48  2066.07
                             2107.98  2168.89  2181.35  2184.38  2195.57
                             2211.78  2213.68  2255.31  2346.69  2413.46
                             3391.46  4383.81  4387.77  4434.14  4444.00
                             4452.09  4457.35  4489.80  4494.63  4507.76
                             4535.55  4543.20  4567.47  4576.25  4594.44
                             4619.95

 Zero-point correction=                           0.248190 (Hartree/Particle)
 Thermal correction to Energy=                    0.261333
 Thermal correction to Enthalpy=                  0.262277
 Thermal correction to Gibbs Free Energy=         0.207354
 Sum of electronic and zero-point Energies=           -558.943583
 Sum of electronic and thermal Energies=              -558.930440
 Sum of electronic and thermal Enthalpies=            -558.929496
 Sum of electronic and thermal Free Energies=         -558.984419

                     E (Thermal)             CV                S
                      KCal/Mol        Cal/Mol-Kelvin    Cal/Mol-Kelvin
 Total                  163.989             50.180            115.597
 Electronic               0.000              0.000              0.000
 Translational            0.889              2.981             41.554
 Rotational               0.889              2.981             31.813
 Vibrational            162.212             44.218             42.230
 Vibration     1          0.593              1.984              5.931
 Vibration     2          0.595              1.979              5.013
 Vibration     3          0.597              1.971              4.280
 Vibration     4          0.604              1.948              3.430
 Vibration     5          0.611              1.925              2.965
 Vibration     6          0.621              1.893              2.563
 Vibration     7          0.639              1.835              2.099
 Vibration     8          0.644              1.822              2.021
 Vibration     9          0.666              1.751              1.684
 Vibration    10          0.679              1.714              1.545
 Vibration    11          0.710              1.625              1.283
 Vibration    12          0.741              1.537              1.085
 Vibration    13          0.780              1.434              0.903
 Vibration    14          0.788              1.414              0.872
 Vibration    15          0.798              1.389              0.835
 Vibration    16          0.886              1.180              0.584
 Vibration    17          0.912              1.126              0.532
 Vibration    18          0.945              1.058              0.472
 Vibration    19          0.976              0.997              0.423

 Optimization completed.
    -- Stationary point found.
 Normal termination of Gaussian 16 at Thu Dec 10 10:11:09 2020.

 ----------------------------------------------------------------------
 # B3LYP/6-311++G(d,p) empiricaldispersion=gd3bj scf=xqc pop=npa geom=c
 heck
 ----------------------------------------------------------------------

 --------------------------------------
 CID_68070339_JID_4529_Energie_neutraal
 --------------------------------------
 Structure from the checkpoint file:  "JID_4529.chk"
 Charge =  0 Multiplicity = 1

 SCF Done:  E(RB3LYP) =  -559.336160931     A.U. after   15 cycles
 Normal termination of Gaussian 16 at Thu Dec 10 10:15:33 2020.

 ----------------------------------------------------------------------
 # B3LYP/6-311++G(d,p) empiricaldispersion=gd3bj scf=xqc pop=npa geom=c
 heck
 ----------------------------------------------------------------------

 ------------------------------------
 CID_68070339_JID_4529_Energie_kation
 ------------------------------------
 Structure from the checkpoint file:  "JID_4529.chk"
 Charge =  1 Multiplicity = 2

 SCF Done:  E(UB3LYP) =  -559.020786313     A.U. after   21 cycles
 Normal termination of Gaussian 16 at Thu Dec 10 10:23:38 2020.
 Gaussian 16:  ES64L-G16RevA.03 25-Dec-2016

 ----------------------------------------------------------------------
 # B3LYP/6-311++G(d,p) empiricaldispersion=gd3bj scf=xqc pop=npa geom=c
 heck
 ----------------------------------------------------------------------

 -----------------------------------
 CID_68070339_JID_4529_Energie_anion
 -----------------------------------
 Structure from the checkpoint file:  "JID_4529.chk"
 Charge = -1 Multiplicity = 2

                         Standard orientation:
 ---------------------------------------------------------------------
 Center     Atomic      Atomic             Coordinates (Angstroms)
 Number     Number       Type             X           Y           Z
 ---------------------------------------------------------------------
      1          6           0       -4.634304   -0.100026    0.944190
      2          6           0       -3.978748   -0.047994   -0.445892
      3          6           0       -2.470669   -0.015194   -0.363010
      4          6           0       -1.776556    1.195650   -0.288148
      5          6           0       -0.388322    1.228403   -0.161147
      6          6           0        0.351936    0.043481   -0.104860
      7          6           0       -0.340544   -1.172629   -0.180560
      8          6           0       -1.725803   -1.199868   -0.307199
      9          6           0        1.864999    0.034585    0.029010
     10          6           0        2.510064   -0.853999    1.161372
     11          6           0        3.599182   -1.312691    0.162580
     12          6           0        2.701675   -0.821548   -0.998184
     13          6           0        2.419157    1.387689    0.098719
     14          7           0        2.886757    2.449154    0.156321
     15          1           0       -4.312008   -0.991737    1.493199
     16          1           0       -5.726827   -0.123331    0.863907
     17          1           0       -4.352645    0.775512    1.539359
     18          1           0       -4.297289   -0.920162   -1.030141
     19          1           0       -4.337106    0.838394   -0.983297
     20          1           0       -2.328686    2.131493   -0.332198
     21          1           0        0.121312    2.185339   -0.109132
     22          1           0        0.203162   -2.112804   -0.144855
     23          1           0       -2.238925   -2.156949   -0.366589
     24          1           0        2.822345   -0.329221    2.067157
     25          1           0        1.824261   -1.659861    1.433325
     26          1           0        3.868180   -2.371965    0.170531
     27          1           0        4.511092   -0.715975    0.252463
     28          1           0        2.076289   -1.617025   -1.410345
     29          1           0        3.167152   -0.270932   -1.818863
 ---------------------------------------------------------------------

 SCF Done:  E(UB3LYP) =  -559.325208754     A.U. after   33 cycles
 SCF Done:  E(UB3LYP) =  -559.325208754     a.u. after    1 cycles

 The electronic state is 2-A.
 Alpha  occ. eigenvalues --  -14.22325 -10.13723 -10.12171 -10.09510 -10.09293
 Alpha  occ. eigenvalues --  -10.09018 -10.08527 -10.07985 -10.07881 -10.07734
 Alpha  occ. eigenvalues --  -10.07453 -10.07448 -10.07432 -10.06377  -0.82585
 Alpha  occ. eigenvalues --   -0.78452  -0.75871  -0.69554  -0.65220  -0.64518
 Alpha  occ. eigenvalues --   -0.59891  -0.58663  -0.53397  -0.52405  -0.49038
 Alpha  occ. eigenvalues --   -0.48217  -0.43290  -0.41512  -0.37500  -0.37394
 Alpha  occ. eigenvalues --   -0.36439  -0.33718  -0.32918  -0.32815  -0.32332
 Alpha  occ. eigenvalues --   -0.31690  -0.31088  -0.28742  -0.28048  -0.26669
 Alpha  occ. eigenvalues --   -0.25863  -0.25525  -0.25035  -0.24995  -0.24383
 Alpha  occ. eigenvalues --   -0.23765  -0.22423  -0.22066  -0.16049  -0.14651
 Alpha  occ. eigenvalues --    0.04175
 Alpha virt. eigenvalues --    0.05822   0.07230   0.07534   0.07939   0.08146
 Alpha virt. eigenvalues --    0.08348   0.08497   0.09069   0.10050   0.10806
 Alpha virt. eigenvalues --    0.11086   0.11255   0.11486   0.11973   0.12689

  Beta  occ. eigenvalues --  -14.22320 -10.13728 -10.12170 -10.09494 -10.09255
  Beta  occ. eigenvalues --  -10.08955 -10.08501 -10.07927 -10.07885 -10.07699
  Beta  occ. eigenvalues --  -10.07443 -10.07420 -10.07417 -10.06337  -0.82570
  Beta  occ. eigenvalues --   -0.78401  -0.75800  -0.69460  -0.65153  -0.64446
  Beta  occ. eigenvalues --   -0.59833  -0.58602  -0.53318  -0.52345  -0.48979
  Beta  occ. eigenvalues --   -0.48125  -0.43238  -0.41463  -0.37457  -0.37320
  Beta  occ. eigenvalues --   -0.36374  -0.33668  -0.32864  -0.32768  -0.32292
  Beta  occ. eigenvalues --   -0.31613  -0.31026  -0.28674  -0.27999  -0.26640
  Beta  occ. eigenvalues --   -0.25827  -0.25411  -0.25000  -0.24958  -0.24330
  Beta  occ. eigenvalues --   -0.23721  -0.22371  -0.22018  -0.15904  -0.14355
  Beta virt. eigenvalues --    0.06530   0.06832   0.07631   0.08024   0.08143
  Beta virt. eigenvalues --    0.08428   0.08674   0.09018   0.09410   0.10330
  Beta virt. eigenvalues --    0.11006   0.11213   0.11739   0.11824   0.12142

 Mulliken charges and spin densities:
               1          2
     1  C    1.116286  -1.745208
     2  C   -0.300653   0.011000
     3  C    0.738237   0.214183
     4  C   -1.145605   0.266954
     5  C   -0.322420   0.025421
     6  C    1.523763  -0.316601
     7  C   -0.319164  -0.265312
     8  C    0.057066  -0.605867
     9  C    1.443446  -0.282622
    10  C   -0.527898   0.144829
    11  C    0.969691  -1.408985
    12  C   -0.788766   0.399811
    13  C   -0.682402  -0.323306
    14  N   -0.258386   0.015083
    15  H   -0.075930   0.217132
    16  H   -0.424402   0.560471
    17  H   -0.029001   0.160523
    18  H   -0.219803   0.374359
    19  H   -0.223605   0.367917
    20  H   -0.045210   0.210959
    21  H    0.123880   0.025181
    22  H   -0.507706   0.690502
    23  H   -0.514747   0.688497
    24  H   -0.081005   0.275609
    25  H   -0.059859   0.205725
    26  H   -0.710089   0.886559
    27  H    0.188356  -0.047485
    28  H   -0.000829   0.145283
    29  H    0.076754   0.109389
 Sum of Mulliken charges =  -1.00000   1.00000

 Dipole moment (field-independent basis, Debye):
    X=              3.1735    Y=              3.2985    Z=             -0.6917  Tot=              4.6292
 Quadrupole moment (field-independent basis, Debye-Ang):
   XX=           -180.5693   YY=           -138.7237   ZZ=           -110.3809
   XY=             -1.8843   XZ=             -2.9291   YZ=              0.4638

 Summary of Natural Population Analysis:

                                       Natural Population
                Natural  -----------------------------------------------
    Atom  No    Charge         Core      Valence    Rydberg      Total
 -----------------------------------------------------------------------
      C    1   -0.27901      0.99966     2.27432    0.00503     3.27901
      C    2   -0.19887      0.99961     2.18968    0.00958     3.19887
      C    3   -0.00320      0.99950     1.99283    0.01086     3.00320
      C    4   -0.09370      0.99951     2.08569    0.00850     3.09370
      C    5   -0.09826      0.99952     2.09118    0.00757     3.09826
      C    6   -0.01364      0.99948     2.00347    0.01069     3.01364
      C    7   -0.09266      0.99952     2.08360    0.00954     3.09266
      C    8   -0.09551      0.99951     2.08593    0.01006     3.09551
      C    9   -0.09608      0.99946     2.08369    0.01292     3.09608
      C   10   -0.16617      0.99962     2.15735    0.00920     3.16617
      C   11   -0.19527      0.99964     2.18654    0.00908     3.19527
      C   12   -0.16735      0.99962     2.15912    0.00861     3.16735
      C   13    0.17109      0.99963     1.80744    0.02184     2.82891
      N   14   -0.18907      0.99979     2.67852    0.01077     3.68907
      H   15    0.09788      0.00000     0.40106    0.00106     0.40212
      H   16    0.09958      0.00000     0.39851    0.00191     0.40042
      H   17    0.09552      0.00000     0.40348    0.00100     0.40448
      H   18    0.10148      0.00000     0.39683    0.00169     0.39852
      H   19    0.09881      0.00000     0.39982    0.00137     0.40119
      H   20    0.09861      0.00000     0.40049    0.00090     0.40139
      H   21    0.10500      0.00000     0.39348    0.00152     0.39500
      H   22    0.10194      0.00000     0.39574    0.00233     0.39806
      H   23    0.10252      0.00000     0.39612    0.00137     0.39748
      H   24    0.10182      0.00000     0.39695    0.00123     0.39818
      H   25    0.10708      0.00000     0.39134    0.00158     0.39292
      H   26    0.10332      0.00000     0.39439    0.00229     0.39668
      H   27    0.09744      0.00000     0.40134    0.00122     0.40256
      H   28    0.10675      0.00000     0.39186    0.00139     0.39325
      H   29    0.09994      0.00000     0.39899    0.00107     0.40006
 =======================================================================
   * Total *   -0.00000     13.99407    35.83974    0.16618    50.00000

 Normal termination of Gaussian 16 at Thu Dec 10 10:36:36 2020.
