 Gaussian 16, Revision A.03,

 -----------------------------------------------------------
 # opt freq B3LYP/6-31G(d) empiricaldispersion=gd3bj scf=xqc
 -----------------------------------------------------------

 -----------------------------
 CID_55303063_JID_226_neutraal
 -----------------------------
 Symbolic Z-matrix:
 Charge =  0 Multiplicity = 1

 SCF Done:  E(RB3LYP) =  -498.449914645     A.U. after   15 cycles
 SCF Done:  E(RB3LYP) =  -498.451668941     A.U. after   12 cycles
 SCF Done:  E(RB3LYP) =  -498.451043325     A.U. after   12 cycles
 SCF Done:  E(RB3LYP) =  -498.451978854     A.U. after   11 cycles
 SCF Done:  E(RB3LYP) =  -498.451997312     A.U. after   10 cycles
 SCF Done:  E(RB3LYP) =  -498.451999142     A.U. after    8 cycles
 SCF Done:  E(RB3LYP) =  -498.451999614     A.U. after    8 cycles
 SCF Done:  E(RB3LYP) =  -498.451999685     A.U. after    8 cycles
 SCF Done:  E(RB3LYP) =  -498.451999711     A.U. after    7 cycles
 SCF Done:  E(RB3LYP) =  -498.451999718     A.U. after    7 cycles
 SCF Done:  E(RB3LYP) =  -498.451999722     A.U. after    7 cycles
 SCF Done:  E(RB3LYP) =  -498.451999725     A.U. after    7 cycles
 Optimization completed.
    -- Stationary point found.

 1\1\GINC-NODE121\FOpt\RB3LYP\6-31G(d)\C7H10O3\VSC10255\08-Dec-2020\0\\
 # opt freq B3LYP/6-31G(d) empiricaldispersion=gd3bj scf=xqc\\CID_55303
 063_JID_226_neutraal\\0,1\C,-0.7504682938,-1.3132881463,0.1333861684\C
 ,0.6461412013,-1.1415469173,-0.4653374288\O,1.294167814,-0.0073323287,
 0.0921602262\C,0.6512715109,1.2034558154,-0.2622021312\C,-0.8522372824
 ,1.1560855396,-0.114727073\C,-1.4885154051,-0.0013965657,0.0884284509\
 C,-1.5809863439,2.4796129286,-0.2131295527\C,-1.3354325666,3.313531407
 ,1.0305351139\O,-0.2899776838,3.8563314681,1.3155201107\O,-2.425568716

 Normal termination of Gaussian 16 at Tue Dec  8 10:20:45 2020.

 --------------------------------------------------------------------
 #N Geom=AllCheck Guess=TCheck SCRF=Check GenChk RB3LYP/6-31G(d) Freq
 --------------------------------------------------------------------

 Structure from the checkpoint file:  "JID_226.chk"
 -----------------------------
 CID_55303063_JID_226_neutraal
 -----------------------------
 Charge =  0 Multiplicity = 1

 SCF Done:  E(RB3LYP) =  -498.451999725     A.U. after    1 cycles

  Exact polarizability:  94.967   7.290  80.906  -2.068  -3.746  61.148
 Approx polarizability: 117.387  15.332 133.156  -4.668  -5.158  91.751

                      1                      2                      3
                      A                      A                      A
 Frequencies --     29.8970                50.7823                98.5827
 Red. masses --      7.7482                 3.9930                 4.8418
 Frc consts  --      0.0041                 0.0061                 0.0277
 IR Inten    --      2.1722                 0.1240                 0.2425

                      4                      5                      6
                      A                      A                      A
 Frequencies --    175.3587               250.5207               285.4216
 Red. masses --      2.7951                 2.5777                 3.9425
 Frc consts  --      0.0506                 0.0953                 0.1892
 IR Inten    --      2.3131                 4.0247                 0.6312

                      7                      8                      9
                      A                      A                      A
 Frequencies --    339.8186               413.0327               443.0943
 Red. masses --      2.2434                 2.5137                 2.7578
 Frc consts  --      0.1526                 0.2527                 0.3190
 IR Inten    --      4.3179                 3.3702                 0.4892

                     10                     11                     12
                      A                      A                      A
 Frequencies --    472.7041               524.4381               565.9847
 Red. masses --      3.0699                 5.4460                 2.7863
 Frc consts  --      0.4042                 0.8825                 0.5259
 IR Inten    --      2.0920                 2.4363                36.2808

                     13                     14                     15
                      A                      A                      A
 Frequencies --    634.8855               680.4970               765.6455
 Red. masses --      2.4414                 1.4207                 2.4777
 Frc consts  --      0.5798                 0.3876                 0.8558
 IR Inten    --     40.5984                98.4514                26.8850

                     16                     17                     18
                      A                      A                      A
 Frequencies --    825.7953               852.1745               898.2490
 Red. masses --      2.7191                 1.9316                 2.6500
 Frc consts  --      1.0925                 0.8264                 1.2598
 IR Inten    --      4.7786                 7.2224                 1.9031

                     19                     20                     21
                      A                      A                      A
 Frequencies --    912.1764               936.6124               960.7136
 Red. masses --      2.8647                 2.4179                 2.1528
 Frc consts  --      1.4044                 1.2497                 1.1707
 IR Inten    --      8.5616                22.6595                 3.2359

                     22                     23                     24
                      A                      A                      A
 Frequencies --   1006.7978              1047.4178              1068.3501
 Red. masses --      2.6427                 1.7974                 1.8720
 Frc consts  --      1.5783                 1.1618                 1.2589
 IR Inten    --     17.4931                 4.8645                26.1164

                     25                     26                     27
                      A                      A                      A
 Frequencies --   1100.6424              1141.5901              1158.5234
 Red. masses --      1.9089                 2.2051                 3.9944
 Frc consts  --      1.3624                 1.6932                 3.1587
 IR Inten    --      7.6627                68.5137               139.3392

                     28                     29                     30
                      A                      A                      A
 Frequencies --   1182.3512              1240.2153              1252.9599
 Red. masses --      2.1805                 1.1959                 1.3400
 Frc consts  --      1.7960                 1.0838                 1.2395
 IR Inten    --     57.3768                18.3900                71.8766

                     31                     32                     33
                      A                      A                      A
 Frequencies --   1275.8455              1319.6914              1331.2876
 Red. masses --      1.2265                 1.4056                 1.2780
 Frc consts  --      1.1763                 1.4424                 1.3345
 IR Inten    --     18.2232                 1.1315                 0.8738

                     34                     35                     36
                      A                      A                      A
 Frequencies --   1364.0310              1384.9444              1399.0527
 Red. masses --      1.3279                 1.5858                 1.9173
 Frc consts  --      1.4557                 1.7921                 2.2111
 IR Inten    --      2.1599                13.3102                54.7499

                     37                     38                     39
                      A                      A                      A
 Frequencies --   1424.9198              1440.8203              1499.6511
 Red. masses --      1.6383                 1.4362                 1.1037
 Frc consts  --      1.9599                 1.7566                 1.4624
 IR Inten    --     21.9813                 7.7241                 8.6052

                     40                     41                     42
                      A                      A                      A
 Frequencies --   1501.1131              1518.3561              1531.2628
 Red. masses --      1.0936                 1.0816                 1.0992
 Frc consts  --      1.4519                 1.4691                 1.5185
 IR Inten    --      2.0873                 1.9671                 1.7776

                     43                     44                     45
                      A                      A                      A
 Frequencies --   1754.3498              1839.8225              2940.7856
 Red. masses --      7.0289                 9.5082                 1.0736
 Frc consts  --     12.7460                18.9627                 5.4704
 IR Inten    --      1.6327               263.1864                65.3345

                     46                     47                     48
                      A                      A                      A
 Frequencies --   2988.8668              3029.3484              3057.9620
 Red. masses --      1.0722                 1.0612                 1.0653
 Frc consts  --      5.6435                 5.7380                 5.8693
 IR Inten    --     63.3225                33.5320                13.8937

                     49                     50                     51
                      A                      A                      A
 Frequencies --   3063.4367              3109.6267              3115.2581
 Red. masses --      1.1002                 1.0873                 1.0941
 Frc consts  --      6.0835                 6.1947                 6.2557
 IR Inten    --     36.8365                 7.0473                44.5946

                     52                     53                     54
                      A                      A                      A
 Frequencies --   3137.9424              3163.9981              3676.9884
 Red. masses --      1.0986                 1.0905                 1.0638
 Frc consts  --      6.3735                 6.4319                 8.4742
 IR Inten    --      7.2468                21.5879                45.7032

 - Thermochemistry -
 -------------------
 Temperature   298.150 Kelvin.  Pressure   1.00000 Atm.
 Atom     1 has atomic number  6 and mass  12.00000

 Molecular mass:   142.06299 amu.
 Principal axes and moments of inertia in atomic units:
                           1         2         3
     Eigenvalues --   637.973912296.883672646.80409
           X            0.99998   0.00556  -0.00237
           Y           -0.00562   0.99964  -0.02619
           Z            0.00223   0.02620   0.99965
 This molecule is an asymmetric top.
 Rotational symmetry number  1.
 Warning -- assumption of classical behavior for rotation
           may cause significant error
 Rotational temperatures (Kelvin)      0.13576     0.03771     0.03272
 Rotational constants (GHZ):           2.82886     0.78573     0.68186
 Zero-point vibrational energy     437741.1 (Joules/Mol)
                                  104.62263 (Kcal/Mol)
 Warning -- explicit consideration of  12 degrees of freedom as
           vibrations may cause significant error
 Vibrational temperatures:     43.02    73.06   141.84   252.30   360.44
          (Kelvin)            410.66   488.92   594.26   637.51   680.12
                              754.55   814.33   913.46   979.08  1101.59
                             1188.14  1226.09  1292.38  1312.42  1347.58
                             1382.25  1448.56  1507.00  1537.12  1583.58
                             1642.49  1666.86  1701.14  1784.39  1802.73
                             1835.66  1898.74  1915.43  1962.54  1992.63
                             2012.92  2050.14  2073.02  2157.66  2159.77
                             2184.58  2203.15  2524.12  2647.09  4231.13
                             4300.31  4358.56  4399.73  4407.60  4474.06
                             4482.16  4514.80  4552.29  5290.37

 Zero-point correction=                           0.166727 (Hartree/Particle)
 Thermal correction to Energy=                    0.176084
 Thermal correction to Enthalpy=                  0.177028
 Thermal correction to Gibbs Free Energy=         0.130674
 Sum of electronic and zero-point Energies=           -498.285273
 Sum of electronic and thermal Energies=              -498.275916
 Sum of electronic and thermal Enthalpies=            -498.274972
 Sum of electronic and thermal Free Energies=         -498.321325

                     E (Thermal)             CV                S
                      KCal/Mol        Cal/Mol-Kelvin    Cal/Mol-Kelvin
 Total                  110.494             34.440             97.559
 Electronic               0.000              0.000              0.000
 Translational            0.889              2.981             40.765
 Rotational               0.889              2.981             29.740
 Vibrational            108.717             28.479             27.054
 Vibration     1          0.594              1.984              5.836
 Vibration     2          0.595              1.977              4.787
 Vibration     3          0.604              1.950              3.482
 Vibration     4          0.627              1.873              2.377
 Vibration     5          0.663              1.762              1.727
 Vibration     6          0.683              1.701              1.501
 Vibration     7          0.720              1.596              1.213
 Vibration     8          0.777              1.442              0.916
 Vibration     9          0.803              1.376              0.817
 Vibration    10          0.830              1.311              0.730
 Vibration    11          0.879              1.196              0.600
 Vibration    12          0.922              1.105              0.512

 Optimization completed.
    -- Stationary point found.

 1\1\GINC-NODE121\Freq\RB3LYP\6-31G(d)\C7H10O3\VSC10255\08-Dec-2020\0\\
 #N Geom=AllCheck Guess=TCheck SCRF=Check GenChk RB3LYP/6-31G(d) Freq\\
 CID_55303063_JID_226_neutraal\\0,1\C,-0.7504682938,-1.3132881463,0.133
 3861684\C,0.6461412013,-1.1415469173,-0.4653374288\O,1.294167814,-0.00
 73323287,0.0921602262\C,0.6512715109,1.2034558154,-0.2622021312\C,-0.8
 522372824,1.1560855396,-0.114727073\C,-1.4885154051,-0.0013965657,0.08
 84284509\C,-1.5809863439,2.4796129286,-0.2131295527\C,-1.3354325666,3.
 313531407,1.0305351139\O,-0.2899776838,3.8563314681,1.3155201107\O,-2.

 Normal termination of Gaussian 16 at Tue Dec  8 10:24:09 2020.

 ----------------------------------------------------------------------
 # B3LYP/6-311++G(d,p) empiricaldispersion=gd3bj scf=xqc pop=npa geom=c
 heck
 ----------------------------------------------------------------------

 -------------------------------------
 CID_55303063_JID_226_Energie_neutraal
 -------------------------------------
 Structure from the checkpoint file:  "JID_226.chk"
 Charge =  0 Multiplicity = 1

 SCF Done:  E(RB3LYP) =  -498.607161778     A.U. after   14 cycles
 Normal termination of Gaussian 16 at Tue Dec  8 10:25:14 2020.

 ----------------------------------------------------------------------
 # B3LYP/6-311++G(d,p) empiricaldispersion=gd3bj scf=xqc pop=npa geom=c
 heck
 ----------------------------------------------------------------------

 -----------------------------------
 CID_55303063_JID_226_Energie_kation
 -----------------------------------
 Structure from the checkpoint file:  "JID_226.chk"
 Charge =  1 Multiplicity = 2

 SCF Done:  E(UB3LYP) =  -498.279863009     A.U. after   22 cycles
 Normal termination of Gaussian 16 at Tue Dec  8 10:28:15 2020.
 Gaussian 16:  ES64L-G16RevA.03 25-Dec-2016

 ----------------------------------
 CID_55303063_JID_226_Energie_anion
 ----------------------------------
 Structure from the checkpoint file:  "JID_226.chk"
 Charge = -1 Multiplicity = 2

                         Standard orientation:
 ---------------------------------------------------------------------
 Center     Atomic      Atomic             Coordinates (Angstroms)
 Number     Number       Type             X           Y           Z
 ---------------------------------------------------------------------
      1          6           0        2.300840    1.171879   -0.398184
      2          6           0        2.843579   -0.218057   -0.063528
      3          8           0        1.915996   -1.223407   -0.445687
      4          6           0        0.721098   -1.163908    0.311659
      5          6           0        0.165562    0.234241    0.456888
      6          6           0        0.888802    1.302657    0.108610
      7          6           0       -1.237195    0.347300    1.015433
      8          6           0       -2.255244   -0.111629   -0.011883
      9          8           0       -2.434279   -1.259464   -0.357201
     10          8           0       -2.939689    0.927144   -0.546376
     11          1           0        2.942514    1.942017    0.050967
     12          1           0        2.330836    1.335041   -1.485040
     13          1           0        3.054652   -0.286067    1.017002
     14          1           0        3.767737   -0.432425   -0.607167
     15          1           0       -0.003750   -1.804537   -0.199942
     16          1           0        0.879416   -1.595329    1.319105
     17          1           0        0.462616    2.300858    0.196098
     18          1           0       -1.348670   -0.304945    1.890916
     19          1           0       -1.450485    1.375693    1.314242
     20          1           0       -3.535755    0.540605   -1.216034
 ---------------------------------------------------------------------

 SCF Done:  E(UB3LYP) =  -498.593622296     A.U. after   31 cycles

 The electronic state is 2-A.
 Alpha  occ. eigenvalues --  -19.06206 -19.01913 -19.00537 -10.19601 -10.11081
 Alpha  occ. eigenvalues --  -10.10904 -10.07928 -10.07383 -10.06650 -10.06038
 Alpha  occ. eigenvalues --   -1.00187  -0.93503  -0.91246  -0.71629  -0.67354
 Alpha  occ. eigenvalues --   -0.62415  -0.54672  -0.53186  -0.49355  -0.41820
 Alpha  occ. eigenvalues --   -0.39779  -0.38894  -0.37867  -0.37595  -0.35651
 Alpha  occ. eigenvalues --   -0.32949  -0.32440  -0.29518  -0.29474  -0.29044
 Alpha  occ. eigenvalues --   -0.27974  -0.27401  -0.24608  -0.21912  -0.20365
 Alpha  occ. eigenvalues --   -0.18191  -0.15410  -0.13598   0.04746
 Alpha virt. eigenvalues --    0.06839   0.07793   0.08661   0.09457   0.10264
 Alpha virt. eigenvalues --    0.10599   0.10805   0.12031   0.12860   0.13253
 Alpha virt. eigenvalues --    0.13822   0.15216   0.15879   0.16673   0.17298

  Beta  occ. eigenvalues --  -19.06153 -19.01907 -19.00495 -10.19546 -10.11059
  Beta  occ. eigenvalues --  -10.10888 -10.07901 -10.07368 -10.06629 -10.06001
  Beta  occ. eigenvalues --   -1.00083  -0.93491  -0.91156  -0.71560  -0.67296
  Beta  occ. eigenvalues --   -0.62322  -0.54609  -0.53090  -0.49241  -0.41746
  Beta  occ. eigenvalues --   -0.39703  -0.38800  -0.37806  -0.37532  -0.35530
  Beta  occ. eigenvalues --   -0.32838  -0.32399  -0.29449  -0.29408  -0.28988
  Beta  occ. eigenvalues --   -0.27923  -0.27350  -0.24557  -0.21752  -0.20321
  Beta  occ. eigenvalues --   -0.18121  -0.15369  -0.13470
  Beta virt. eigenvalues --    0.07281   0.08067   0.08602   0.09417   0.09999
  Beta virt. eigenvalues --    0.10785   0.11109   0.11466   0.12298   0.13089
  Beta virt. eigenvalues --    0.13478   0.14317   0.15397   0.15869   0.16958

 Mulliken charges and spin densities:
               1          2
     1  C    1.700947  -2.351609
     2  C   -0.101377  -0.204669
     3  O   -0.159411   0.055931
     4  C   -0.128913  -0.367471
     5  C   -1.425991   2.218942
     6  C   -1.095536   1.098060
     7  C    2.686670  -3.278347
     8  C    0.423832  -0.508623
     9  O   -0.313825   0.036086
    10  O   -0.215082   0.090821
    11  H   -0.395868   0.531719
    12  H    0.040886   0.105694
    13  H   -0.046788   0.168236
    14  H   -0.264280   0.439725
    15  H    0.239233  -0.016707
    16  H   -0.172824   0.335079
    17  H   -0.742163   0.930053
    18  H   -0.553960   0.730513
    19  H   -0.137384   0.356642
    20  H   -0.338167   0.629925
 Sum of Mulliken charges =  -1.00000   1.00000

 Dipole moment (field-independent basis, Debye):
    X=              1.5899    Y=             -1.7682    Z=             -1.0462  Tot=              2.5979
 Quadrupole moment (field-independent basis, Debye-Ang):
   XX=           -116.5430   YY=            -95.7006   ZZ=            -88.9499
   XY=             -1.3428   XZ=             -2.6233   YZ=             -2.5566

 Summary of Natural Population Analysis:

                                       Natural Population
                Natural  -----------------------------------------------
    Atom  No    Charge         Core      Valence    Rydberg      Total
 -----------------------------------------------------------------------
      C    1   -0.21635      0.99962     2.20760    0.00912     3.21635
      C    2   -0.00731      0.99959     1.99464    0.01308     3.00731
      O    3   -0.29791      0.99989     3.28896    0.00906     4.29791
      C    4   -0.02186      0.99951     2.00928    0.01308     3.02186
      C    5   -0.02266      0.99946     2.01135    0.01184     3.02266
      C    6   -0.08517      0.99944     2.07538    0.01035     3.08517
      C    7   -0.24590      0.99954     2.23516    0.01120     3.24590
      C    8    0.41707      0.99972     1.55753    0.02567     2.58293
      O    9   -0.31198      0.99987     3.30563    0.00649     4.31198
      O   10   -0.34180      0.99988     3.33521    0.00671     4.34180
      H   11    0.10359      0.00000     0.39471    0.00170     0.39641
      H   12    0.10161      0.00000     0.39711    0.00128     0.39839
      H   13    0.07813      0.00000     0.42018    0.00169     0.42187
      H   14    0.08917      0.00000     0.40950    0.00133     0.41083
      H   15    0.10539      0.00000     0.39304    0.00157     0.39461
      H   16    0.08232      0.00000     0.41601    0.00167     0.41768
      H   17    0.09998      0.00000     0.39833    0.00168     0.40002
      H   18    0.11607      0.00000     0.38096    0.00298     0.38393
      H   19    0.11648      0.00000     0.38105    0.00247     0.38352
      H   20    0.24114      0.00000     0.24884    0.01002     0.25886
 =======================================================================
   * Total *   -0.00000      9.99652    27.86048    0.14300    38.00000

 Normal termination of Gaussian 16 at Tue Dec  8 10:33:31 2020.
