 Gaussian 16, Revision A.03,

 -----------------------------------------------------------
 # opt freq B3LYP/6-31G(d) empiricaldispersion=gd3bj scf=xqc
 -----------------------------------------------------------

 -------------------------------
 CID_148029311_JID_6767_neutraal
 -------------------------------
 Symbolic Z-matrix:
 Charge =  0 Multiplicity = 1

 SCF Done:  E(RB3LYP) =  -713.277842352     A.U. after   14 cycles
 SCF Done:  E(RB3LYP) =  -713.282752404     A.U. after   12 cycles
 SCF Done:  E(RB3LYP) =  -713.283535507     A.U. after   12 cycles
 SCF Done:  E(RB3LYP) =  -713.283710900     A.U. after   12 cycles
 SCF Done:  E(RB3LYP) =  -713.284171361     A.U. after   11 cycles
 SCF Done:  E(RB3LYP) =  -713.285933705     A.U. after   12 cycles
 SCF Done:  E(RB3LYP) =  -713.238087226     A.U. after   14 cycles
 SCF Done:  E(RB3LYP) =  -713.244620562     A.U. after   14 cycles
 SCF Done:  E(RB3LYP) =  -713.286474878     A.U. after   12 cycles
 SCF Done:  E(RB3LYP) =  -713.287743712     A.U. after   12 cycles
 SCF Done:  E(RB3LYP) =  -713.288403093     A.U. after    9 cycles
 SCF Done:  E(RB3LYP) =  -713.288406510     A.U. after    9 cycles
 SCF Done:  E(RB3LYP) =  -713.288408414     A.U. after    8 cycles
 SCF Done:  E(RB3LYP) =  -713.288409200     A.U. after    8 cycles
 SCF Done:  E(RB3LYP) =  -713.288409283     A.U. after    6 cycles
 Optimization completed.
    -- Stationary point found.
 Normal termination of Gaussian 16 at Fri Dec 11 00:36:01 2020.

 --------------------------------------------------------------------
 #N Geom=AllCheck Guess=TCheck SCRF=Check GenChk RB3LYP/6-31G(d) Freq
 --------------------------------------------------------------------

 Structure from the checkpoint file:  "JID_6767.chk"
 -------------------------------
 CID_148029311_JID_6767_neutraal
 -------------------------------
 Charge =  0 Multiplicity = 1

 SCF Done:  E(RB3LYP) =  -713.288409283     A.U. after    1 cycles

  Exact polarizability: 171.068  -5.041 120.749   0.776 -13.651 138.881
 Approx polarizability: 247.737  -7.253 175.911  -0.123 -34.699 221.925

                      1                      2                      3
                      A                      A                      A
 Frequencies --     39.1414                50.0965                64.4215
 Red. masses --      3.1706                 3.6765                 3.8406
 Frc consts  --      0.0029                 0.0054                 0.0094
 IR Inten    --      0.1263                 0.2694                 1.3120

                      4                      5                      6
                      A                      A                      A
 Frequencies --     76.4052                85.7452               104.5079
 Red. masses --      3.2920                 4.0439                 5.1537
 Frc consts  --      0.0113                 0.0175                 0.0332
 IR Inten    --      0.7879                 0.3870                 2.2194

                      7                      8                      9
                      A                      A                      A
 Frequencies --    126.3622               168.6144               171.9055
 Red. masses --      2.3072                 2.4455                 3.1253
 Frc consts  --      0.0217                 0.0410                 0.0544
 IR Inten    --      0.4641                 1.7874                 0.6005

                     10                     11                     12
                      A                      A                      A
 Frequencies --    217.0993               253.0293               260.5845
 Red. masses --      1.7973                 1.5216                 2.3990
 Frc consts  --      0.0499                 0.0574                 0.0960
 IR Inten    --      1.9290                12.2706                 0.5022

                     13                     14                     15
                      A                      A                      A
 Frequencies --    263.7224               288.7254               309.4873
 Red. masses --      1.8125                 1.6813                 1.4783
 Frc consts  --      0.0743                 0.0826                 0.0834
 IR Inten    --     22.2027                 2.3928               102.6760

                     16                     17                     18
                      A                      A                      A
 Frequencies --    313.4969               339.6142               367.8770
 Red. masses --      1.9252                 2.8775                 2.3417
 Frc consts  --      0.1115                 0.1955                 0.1867
 IR Inten    --     36.9703                 6.5221                 1.0774

                     19                     20                     21
                      A                      A                      A
 Frequencies --    377.1388               422.4554               451.8219
 Red. masses --      2.2892                 2.3196                 2.2497
 Frc consts  --      0.1918                 0.2439                 0.2706
 IR Inten    --      1.1847                 3.4517                 0.5418

                     22                     23                     24
                      A                      A                      A
 Frequencies --    503.8501               513.3361               535.2219
 Red. masses --      4.3796                 4.1606                 2.8254
 Frc consts  --      0.6551                 0.6460                 0.4769
 IR Inten    --      4.7193                 1.9329                 5.7799

                     25                     26                     27
                      A                      A                      A
 Frequencies --    557.0298               568.1417               669.0845
 Red. masses --      5.6832                 3.0265                 4.0136
 Frc consts  --      1.0390                 0.5756                 1.0586
 IR Inten    --      0.8629                 3.6020                 0.4775

                     28                     29                     30
                      A                      A                      A
 Frequencies --    679.3700               766.5155               782.8234
 Red. masses --      3.6113                 1.4515                 1.9974
 Frc consts  --      0.9820                 0.5025                 0.7212
 IR Inten    --      4.4734                 9.1787                 4.0756

                     31                     32                     33
                      A                      A                      A
 Frequencies --    809.3975               813.7059               840.2487
 Red. masses --      2.5704                 2.2784                 3.3604
 Frc consts  --      0.9922                 0.8888                 1.3978
 IR Inten    --      2.0444                 7.0001                 2.8654

                     34                     35                     36
                      A                      A                      A
 Frequencies --    850.4138               858.1195               892.5313
 Red. masses --      1.9197                 1.8911                 2.1193
 Frc consts  --      0.8180                 0.8205                 0.9947
 IR Inten    --      9.1042                 6.7446                 9.5808

                     37                     38                     39
                      A                      A                      A
 Frequencies --    924.7441               962.5806               968.4658
 Red. masses --      1.8244                 1.8869                 1.3869
 Frc consts  --      0.9192                 1.0301                 0.7664
 IR Inten    --      2.4471                 3.8231                 0.5925

                     40                     41                     42
                      A                      A                      A
 Frequencies --    980.3507               983.1852              1021.6045
 Red. masses --      1.6511                 1.8589                 2.4806
 Frc consts  --      0.9350                 1.0587                 1.5253
 IR Inten    --      5.2390                15.3842                41.2234

                     43                     44                     45
                      A                      A                      A
 Frequencies --   1068.3054              1073.7028              1088.5253
 Red. masses --      1.8778                 1.5052                 2.3792
 Frc consts  --      1.2627                 1.0223                 1.6610
 IR Inten    --     22.3623                 1.8241                19.8101

                     46                     47                     48
                      A                      A                      A
 Frequencies --   1096.6703              1107.2992              1116.0318
 Red. masses --      1.6424                 2.2481                 2.4299
 Frc consts  --      1.1638                 1.6241                 1.7831
 IR Inten    --      3.7284                36.9745                27.7452

                     49                     50                     51
                      A                      A                      A
 Frequencies --   1129.0815              1136.2020              1150.6068
 Red. masses --      1.9965                 2.0411                 2.1717
 Frc consts  --      1.4996                 1.5525                 1.6940
 IR Inten    --      5.0234                23.7446                50.0264

                     52                     53                     54
                      A                      A                      A
 Frequencies --   1209.4268              1225.6166              1231.4333
 Red. masses --      1.6261                 1.1779                 2.1490
 Frc consts  --      1.4014                 1.0425                 1.9201
 IR Inten    --     13.3907                18.4597                 6.1339

                     55                     56                     57
                      A                      A                      A
 Frequencies --   1265.9384              1275.8627              1288.5348
 Red. masses --      1.1392                 1.3727                 1.7138
 Frc consts  --      1.0756                 1.3166                 1.6765
 IR Inten    --      3.9742                 0.2395                 3.8120

                     58                     59                     60
                      A                      A                      A
 Frequencies --   1308.3153              1316.3687              1322.3810
 Red. masses --      2.3441                 1.5608                 2.9635
 Frc consts  --      2.3640                 1.5935                 3.0533
 IR Inten    --     98.0104                21.7386                13.5232

                     61                     62                     63
                      A                      A                      A
 Frequencies --   1334.3001              1355.0742              1374.6900
 Red. masses --      1.1775                 1.1263                 1.4867
 Frc consts  --      1.2351                 1.2185                 1.6554
 IR Inten    --      4.0798                22.0900                15.7411

                     64                     65                     66
                      A                      A                      A
 Frequencies --   1401.6829              1404.2723              1410.5813
 Red. masses --      1.3148                 1.4696                 1.4573
 Frc consts  --      1.5220                 1.7075                 1.7084
 IR Inten    --      3.6388                 7.3184                 4.4152

                     67                     68                     69
                      A                      A                      A
 Frequencies --   1424.9307              1434.6658              1442.8220
 Red. masses --      1.5775                 1.3164                 1.2541
 Frc consts  --      1.8872                 1.5964                 1.5382
 IR Inten    --     41.5431                 7.1832                 8.2900

                     70                     71                     72
                      A                      A                      A
 Frequencies --   1458.2473              1476.2151              1490.4146
 Red. masses --      2.1537                 1.4060                 1.1105
 Frc consts  --      2.6983                 1.8053                 1.4535
 IR Inten    --    102.7900                 1.1115                 6.9688

                     73                     74                     75
                      A                      A                      A
 Frequencies --   1505.0877              1513.8898              1516.6465
 Red. masses --      1.5000                 1.3623                 1.1225
 Frc consts  --      2.0020                 1.8395                 1.5213
 IR Inten    --      0.1078                 4.6939                10.9259

                     76                     77                     78
                      A                      A                      A
 Frequencies --   1524.7478              1528.2326              1533.8699
 Red. masses --      1.0557                 1.0825                 1.1121
 Frc consts  --      1.4461                 1.4895                 1.5415
 IR Inten    --      1.2368                 5.6690                 5.3253

                     79                     80                     81
                      A                      A                      A
 Frequencies --   1537.5653              1541.5883              1552.2591
 Red. masses --      1.1119                 1.0938                 1.0832
 Frc consts  --      1.5488                 1.5315                 1.5378
 IR Inten    --     12.5396                 8.4076                 7.1389

                     82                     83                     84
                      A                      A                      A
 Frequencies --   1563.0801              1621.1248              1639.8986
 Red. masses --      1.0847                 6.1850                 6.1057
 Frc consts  --      1.5614                 9.5768                 9.6744
 IR Inten    --      2.0945                51.2219                64.2831

                     85                     86                     87
                      A                      A                      A
 Frequencies --   3001.8011              3026.3934              3041.8517
 Red. masses --      1.0718                 1.0624                 1.0676
 Frc consts  --      5.6904                 5.7332                 5.8201
 IR Inten    --     69.0145                34.2925                14.6150

                     88                     89                     90
                      A                      A                      A
 Frequencies --   3048.1790              3049.5723              3057.3699
 Red. masses --      1.0647                 1.0386                 1.0574
 Frc consts  --      5.8287                 5.6906                 5.8235
 IR Inten    --     20.1352                19.1262                13.0098

                     91                     92                     93
                      A                      A                      A
 Frequencies --   3061.0444              3066.9416              3083.2305
 Red. masses --      1.0465                 1.0884                 1.0897
 Frc consts  --      5.7774                 6.0321                 6.1034
 IR Inten    --     18.2556                61.9913                37.3352

                     94                     95                     96
                      A                      A                      A
 Frequencies --   3087.2714              3091.9618              3103.4333
 Red. masses --      1.1010                 1.0624                 1.0989
 Frc consts  --      6.1830                 5.9844                 6.2360
 IR Inten    --      5.0977                23.0046                54.9990

                     97                     98                     99
                      A                      A                      A
 Frequencies --   3106.5083              3114.8417              3120.7108
 Red. masses --      1.0953                 1.1017                 1.0995
 Frc consts  --      6.2279                 6.2978                 6.3090
 IR Inten    --     53.0067                38.3746                19.3762

                    100                    101                    102
                      A                      A                      A
 Frequencies --   3124.2858              3137.5407              3143.2241
 Red. masses --      1.1013                 1.1075                 1.1021
 Frc consts  --      6.3336                 6.4234                 6.4155
 IR Inten    --     43.6483                31.6528                 4.2293

                    103                    104                    105
                      A                      A                      A
 Frequencies --   3168.4757              3200.1922              3769.5928
 Red. masses --      1.0885                 1.0938                 1.0661
 Frc consts  --      6.4387                 6.5999                 8.9254
 IR Inten    --     24.6396                25.7681                31.4552

 - Thermochemistry -
 -------------------
 Temperature   298.150 Kelvin.  Pressure   1.00000 Atm.
 Atom     1 has atomic number  6 and mass  12.00000

 Molecular mass:   223.15723 amu.
 Principal axes and moments of inertia in atomic units:
                           1         2         3
     Eigenvalues --  2468.329754372.376704961.58799
           X            0.99992  -0.01090   0.00570
           Y            0.01075   0.99960   0.02617
           Z           -0.00598  -0.02611   0.99964
 This molecule is an asymmetric top.
 Rotational symmetry number  1.
 Warning -- assumption of classical behavior for rotation
           may cause significant error
 Rotational temperatures (Kelvin)      0.03509     0.01981     0.01746
 Rotational constants (GHZ):           0.73116     0.41276     0.36374
 Zero-point vibrational energy     860315.9 (Joules/Mol)
                                  205.62043 (Kcal/Mol)
 Warning -- explicit consideration of  26 degrees of freedom as
           vibrations may cause significant error
 Vibrational temperatures:     56.32    72.08    92.69   109.93   123.37
          (Kelvin)            150.36   181.81   242.60   247.33   312.36
                              364.05   374.92   379.44   415.41   445.28
                              451.05   488.63   529.29   542.62   607.82
                              650.07   724.93   738.58   770.06   801.44
                              817.43   962.66   977.46  1102.84  1126.31
                             1164.54  1170.74  1208.93  1223.56  1234.64
                             1284.15  1330.50  1384.94  1393.41  1410.51
                             1414.58  1469.86  1537.05  1544.82  1566.15
                             1577.86  1593.16  1605.72  1624.50  1634.74
                             1655.47  1740.10  1763.39  1771.76  1821.40
                             1835.68  1853.91  1882.37  1893.96  1902.61
                             1919.76  1949.65  1977.87  2016.71  2020.43
                             2029.51  2050.16  2064.16  2075.90  2098.09
                             2123.94  2144.37  2165.49  2178.15  2182.12
                             2193.77  2198.79  2206.90  2212.21  2218.00
                             2233.35  2248.92  2332.44  2359.45  4318.92
                             4354.31  4376.55  4385.65  4387.65  4398.87
                             4404.16  4412.64  4436.08  4441.89  4448.64
                             4465.15  4469.57  4481.56  4490.01  4495.15
                             4514.22  4522.40  4558.73  4604.36  5423.60

 Zero-point correction=                           0.327677 (Hartree/Particle)
 Thermal correction to Energy=                    0.344512
 Thermal correction to Enthalpy=                  0.345456
 Thermal correction to Gibbs Free Energy=         0.283252
 Sum of electronic and zero-point Energies=           -712.960732
 Sum of electronic and thermal Energies=              -712.943898
 Sum of electronic and thermal Enthalpies=            -712.942953
 Sum of electronic and thermal Free Energies=         -713.005157

                     E (Thermal)             CV                S
                      KCal/Mol        Cal/Mol-Kelvin    Cal/Mol-Kelvin
 Total                  216.184             63.802            130.918
 Electronic               0.000              0.000              0.000
 Translational            0.889              2.981             42.111
 Rotational               0.889              2.981             32.349
 Vibrational            214.407             57.840             56.459
 Vibration     1          0.594              1.981              5.302
 Vibration     2          0.595              1.978              4.814
 Vibration     3          0.597              1.971              4.317
 Vibration     4          0.599              1.965              3.981
 Vibration     5          0.601              1.959              3.755
 Vibration     6          0.605              1.946              3.368
 Vibration     7          0.611              1.927              3.001
 Vibration     8          0.625              1.881              2.451
 Vibration     9          0.626              1.877              2.415
 Vibration    10          0.646              1.815              1.983
 Vibration    11          0.664              1.758              1.709
 Vibration    12          0.669              1.745              1.658
 Vibration    13          0.670              1.739              1.637
 Vibration    14          0.685              1.695              1.481
 Vibration    15          0.699              1.656              1.365
 Vibration    16          0.701              1.648              1.344
 Vibration    17          0.720              1.596              1.214
 Vibration    18          0.740              1.538              1.089
 Vibration    19          0.748              1.519              1.051
 Vibration    20          0.785              1.421              0.884
 Vibration    21          0.810              1.357              0.790
 Vibration    22          0.859              1.241              0.649
 Vibration    23          0.868              1.220              0.626
 Vibration    24          0.890              1.172              0.576
 Vibration    25          0.913              1.124              0.530
 Vibration    26          0.924              1.100              0.508

                           ! Non-Optimized Parameters !
 Normal termination of Gaussian 16 at Fri Dec 11 00:50:46 2020.

 ----------------------------------------------------------------------
 # B3LYP/6-311++G(d,p) empiricaldispersion=gd3bj scf=xqc pop=npa geom=c
 heck
 ----------------------------------------------------------------------

 ---------------------------------------
 CID_148029311_JID_6767_Energie_neutraal
 ---------------------------------------
 Structure from the checkpoint file:  "JID_6767.chk"
 Charge =  0 Multiplicity = 1

 SCF Done:  E(RB3LYP) =  -713.492575668     A.U. after   15 cycles
 Normal termination of Gaussian 16 at Fri Dec 11 00:57:03 2020.

 ----------------------------------------------------------------------
 # B3LYP/6-311++G(d,p) empiricaldispersion=gd3bj scf=xqc pop=npa geom=c
 heck
 ----------------------------------------------------------------------

 -------------------------------------
 CID_148029311_JID_6767_Energie_kation
 -------------------------------------
 Structure from the checkpoint file:  "JID_6767.chk"
 Charge =  1 Multiplicity = 2

 SCF Done:  E(UB3LYP) =  -713.184580797     A.U. after   25 cycles
 Normal termination of Gaussian 16 at Fri Dec 11 01:11:33 2020.
 Gaussian 16:  ES64L-G16RevA.03 25-Dec-2016

 ----------------------------------------------------------------------
 # B3LYP/6-311++G(d,p) empiricaldispersion=gd3bj scf=xqc pop=npa geom=c
 heck
 ----------------------------------------------------------------------

 ------------------------------------
 CID_148029311_JID_6767_Energie_anion
 ------------------------------------
 Structure from the checkpoint file:  "JID_6767.chk"
 Charge = -1 Multiplicity = 2

                         Standard orientation:
 ---------------------------------------------------------------------
 Center     Atomic      Atomic             Coordinates (Angstroms)
 Number     Number       Type             X           Y           Z
 ---------------------------------------------------------------------
      1          6           0        3.817427    0.842423    1.116105
      2          6           0        2.627151    1.327200    0.284232
      3          6           0        2.531035    0.691423   -1.109617
      4          6           0        2.262764   -0.829876   -1.101855
      5          6           0        0.995991   -1.192247   -0.361754
      6          6           0       -0.276437   -0.892572   -0.877204
      7          6           0       -1.381233   -1.150841   -0.039367
      8          7           0       -1.308243   -1.741133    1.151433
      9          6           0       -0.092380   -2.073645    1.598372
     10          6           0        1.075911   -1.794963    0.900117
     11          8           0       -2.650662   -0.824499   -0.437869
     12          6           0       -2.988793    0.571528   -0.523092
     13          6           0       -2.791291    1.365604    0.768642
     14          6           0       -1.346965    1.726768    1.113898
     15          8           0       -0.743341    2.333747   -0.030736
     16          6           0       -0.484237   -0.329630   -2.259246
     17          1           0        3.745167   -0.227499    1.337302
     18          1           0        3.872679    1.372034    2.073314
     19          1           0        4.761829    1.010009    0.584304
     20          1           0        1.699740    1.123582    0.835820
     21          1           0        2.696832    2.417630    0.164955
     22          1           0        1.733132    1.189893   -1.670855
     23          1           0        3.463387    0.878212   -1.659076
     24          1           0        2.214581   -1.180046   -2.139841
     25          1           0        3.108625   -1.351345   -0.641271
     26          1           0       -0.056301   -2.568126    2.567593
     27          1           0        2.042115   -2.052497    1.323861
     28          1           0       -2.443692    1.054906   -1.338109
     29          1           0       -4.050117    0.559923   -0.783358
     30          1           0       -3.358609    2.298497    0.652260
     31          1           0       -3.229476    0.814464    1.608618
     32          1           0       -1.352786    2.424912    1.965729
     33          1           0       -0.787687    0.836659    1.422570
     34          1           0        0.187464    2.496613    0.181388
     35          1           0       -1.455069   -0.644967   -2.650042
     36          1           0       -0.466149    0.765772   -2.250147
     37          1           0        0.290398   -0.671709   -2.951585
 ---------------------------------------------------------------------

 SCF Done:  E(UB3LYP) =  -713.481186253     A.U. after   33 cycles
 SCF Done:  E(UB3LYP) =  -713.481186253     a.u. after    1 cycles

 The electronic state is 2-A.
 Alpha  occ. eigenvalues --  -19.03766 -19.02854 -14.19589 -10.14978 -10.12848
 Alpha  occ. eigenvalues --  -10.12199 -10.09748 -10.08328 -10.08153 -10.07994
 Alpha  occ. eigenvalues --  -10.06963 -10.06890 -10.06548 -10.06294 -10.06178
 Alpha  occ. eigenvalues --  -10.05413  -0.96159  -0.92804  -0.83187  -0.73083
 Alpha  occ. eigenvalues --   -0.69318  -0.68606  -0.66226  -0.62499  -0.60850
 Alpha  occ. eigenvalues --   -0.57918  -0.55155  -0.51957  -0.50173  -0.48693
 Alpha  occ. eigenvalues --   -0.46044  -0.43360  -0.40974  -0.40287  -0.39680
 Alpha  occ. eigenvalues --   -0.37558  -0.36124  -0.35702  -0.34665  -0.33184
 Alpha  occ. eigenvalues --   -0.32731  -0.32117  -0.31144  -0.30112  -0.29680
 Alpha  occ. eigenvalues --   -0.29250  -0.28725  -0.28234  -0.27546  -0.26535
 Alpha  occ. eigenvalues --   -0.25980  -0.24471  -0.23491  -0.22887  -0.22665
 Alpha  occ. eigenvalues --   -0.22186  -0.19154  -0.18252  -0.16570  -0.15951
 Alpha  occ. eigenvalues --   -0.14006   0.04471
 Alpha virt. eigenvalues --    0.06439   0.07001   0.07509   0.07603   0.08380
 Alpha virt. eigenvalues --    0.08657   0.09384   0.09573   0.09927   0.10472
 Alpha virt. eigenvalues --    0.11102   0.11469   0.11558   0.12194   0.13364

  Beta  occ. eigenvalues --  -19.03767 -19.02840 -14.19489 -10.14989 -10.12846
  Beta  occ. eigenvalues --  -10.12189 -10.09697 -10.08230 -10.08148 -10.07946
  Beta  occ. eigenvalues --  -10.06976 -10.06885 -10.06536 -10.06264 -10.06141
  Beta  occ. eigenvalues --  -10.05378  -0.96154  -0.92780  -0.83047  -0.72941
  Beta  occ. eigenvalues --   -0.69290  -0.68535  -0.66151  -0.62424  -0.60809
  Beta  occ. eigenvalues --   -0.57850  -0.55068  -0.51927  -0.50048  -0.48640
  Beta  occ. eigenvalues --   -0.45960  -0.43322  -0.40922  -0.40230  -0.39648
  Beta  occ. eigenvalues --   -0.37505  -0.36049  -0.35668  -0.34619  -0.33122
  Beta  occ. eigenvalues --   -0.32692  -0.32041  -0.31077  -0.30064  -0.29647
  Beta  occ. eigenvalues --   -0.29150  -0.28675  -0.28118  -0.27514  -0.26458
  Beta  occ. eigenvalues --   -0.25920  -0.24404  -0.23447  -0.22788  -0.22598
  Beta  occ. eigenvalues --   -0.22138  -0.19134  -0.18195  -0.16185  -0.15807
  Beta  occ. eigenvalues --   -0.13782
  Beta virt. eigenvalues --    0.06546   0.07161   0.07490   0.08072   0.08179
  Beta virt. eigenvalues --    0.08598   0.08949   0.09689   0.10034   0.10108
  Beta virt. eigenvalues --    0.10709   0.11481   0.11731   0.11797   0.12498

 Mulliken charges and spin densities:
               1          2
     1  C    1.568781  -2.218712
     2  C   -1.120776   0.973042
     3  C    0.788010  -0.937888
     4  C    0.196143  -0.685574
     5  C    0.026744   0.838027
     6  C   -0.479360   0.836025
     7  C   -0.361519  -0.142198
     8  N   -0.022018   0.064811
     9  C   -0.088853  -0.217768
    10  C   -0.210829  -0.191388
    11  O   -0.043287   0.003353
    12  C   -0.136233  -0.126382
    13  C   -0.502448   0.076842
    14  C    0.223884  -0.327633
    15  O   -0.145366  -0.053115
    16  C    0.287651  -1.151319
    17  H    0.050384   0.067487
    18  H   -0.384257   0.524671
    19  H   -0.253706   0.398784
    20  H    0.353840  -0.315334
    21  H   -0.611390   0.789626
    22  H   -0.020537   0.142902
    23  H   -0.623405   0.801944
    24  H   -0.075182   0.261475
    25  H   -0.129145   0.285196
    26  H    0.050499   0.105651
    27  H   -0.132408   0.277334
    28  H    0.103052   0.061789
    29  H    0.141320   0.024659
    30  H    0.057006   0.107485
    31  H    0.165533   0.003386
    32  H   -0.202281   0.370545
    33  H    0.154482  -0.063836
    34  H    0.115731   0.162655
    35  H    0.191250  -0.000301
    36  H    0.147574   0.048787
    37  H   -0.078882   0.204973
 Sum of Mulliken charges =  -1.00000   1.00000

 Dipole moment (field-independent basis, Debye):
    X=             -6.8813    Y=             -2.1469    Z=              0.5760  Tot=              7.2314
 Quadrupole moment (field-independent basis, Debye-Ang):
   XX=           -169.4702   YY=           -146.9413   ZZ=           -134.2085
   XY=            -16.4355   XZ=              5.5596   YZ=              0.3420

 Summary of Natural Population Analysis:

                                       Natural Population
                Natural  -----------------------------------------------
    Atom  No    Charge         Core      Valence    Rydberg      Total
 -----------------------------------------------------------------------
      C    1   -0.28392      0.99966     2.27886    0.00540     3.28392
      C    2   -0.19635      0.99964     2.18745    0.00926     3.19635
      C    3   -0.18502      0.99962     2.17585    0.00956     3.18502
      C    4   -0.20370      0.99960     2.19376    0.01035     3.20370
      C    5    0.02429      0.99948     1.96577    0.01047     2.97571
      C    6   -0.04187      0.99940     2.03286    0.00961     3.04187
      C    7    0.25896      0.99937     1.72295    0.01872     2.74104
      N    8   -0.23806      0.99966     2.72751    0.01090     3.73806
      C    9    0.02965      0.99958     1.95563    0.01513     2.97035
      C   10   -0.13261      0.99950     2.12446    0.00866     3.13261
      O   11   -0.29325      0.99985     3.28428    0.00912     4.29325
      C   12   -0.00963      0.99954     1.99902    0.01107     3.00963
      C   13   -0.21389      0.99962     2.20692    0.00735     3.21389
      C   14   -0.01618      0.99959     2.00374    0.01284     3.01618
      O   15   -0.37571      0.99989     3.36975    0.00607     4.37571
      C   16   -0.30305      0.99964     2.29678    0.00663     3.30305
      H   17    0.09398      0.00000     0.40480    0.00122     0.40602
      H   18    0.09942      0.00000     0.39948    0.00110     0.40058
      H   19    0.09823      0.00000     0.40038    0.00139     0.40177
      H   20    0.09014      0.00000     0.40707    0.00279     0.40986
      H   21    0.09728      0.00000     0.40067    0.00205     0.40272
      H   22    0.09853      0.00000     0.39964    0.00183     0.40147
      H   23    0.09999      0.00000     0.39746    0.00254     0.40001
      H   24    0.10687      0.00000     0.39167    0.00146     0.39313
      H   25    0.10120      0.00000     0.39751    0.00129     0.39880
      H   26    0.08655      0.00000     0.41237    0.00108     0.41345
      H   27    0.10231      0.00000     0.39660    0.00109     0.39769
      H   28    0.09090      0.00000     0.40750    0.00160     0.40910
      H   29    0.08780      0.00000     0.41114    0.00106     0.41220
      H   30    0.09959      0.00000     0.39929    0.00113     0.40041
      H   31    0.10609      0.00000     0.39272    0.00119     0.39391
      H   32    0.07682      0.00000     0.42199    0.00119     0.42318
      H   33    0.08606      0.00000     0.41181    0.00213     0.41394
      H   34    0.23545      0.00000     0.26090    0.00365     0.26455
      H   35    0.10555      0.00000     0.39341    0.00104     0.39445
      H   36    0.11331      0.00000     0.38546    0.00123     0.38669
      H   37    0.10429      0.00000     0.39490    0.00081     0.39571
 =======================================================================
   * Total *    0.00000     15.99364    44.81236    0.19401    61.00000

 Normal termination of Gaussian 16 at Fri Dec 11 01:30:00 2020.
