 Gaussian 16, Revision A.03,

 -----------------------------------------------------------
 # opt freq B3LYP/6-31G(d) empiricaldispersion=gd3bj scf=xqc
 -----------------------------------------------------------

 ------------------------------
 CID_79471414_JID_7563_neutraal
 ------------------------------
 Symbolic Z-matrix:
 Charge =  0 Multiplicity = 1

 SCF Done:  E(RB3LYP) =  -783.443221606     A.U. after   15 cycles
 SCF Done:  E(RB3LYP) =  -783.451614065     A.U. after   12 cycles
 SCF Done:  E(RB3LYP) =  -783.452052498     A.U. after   13 cycles
 SCF Done:  E(RB3LYP) =  -783.452096954     A.U. after   13 cycles
 SCF Done:  E(RB3LYP) =  -783.454146717     A.U. after   13 cycles
 SCF Done:  E(RB3LYP) =  -783.454883799     A.U. after   12 cycles
 SCF Done:  E(RB3LYP) =  -783.455128894     A.U. after   12 cycles
 SCF Done:  E(RB3LYP) =  -783.455717807     A.U. after   12 cycles
 SCF Done:  E(RB3LYP) =  -783.456003174     A.U. after   12 cycles
 SCF Done:  E(RB3LYP) =  -783.456622271     A.U. after   12 cycles
 SCF Done:  E(RB3LYP) =  -783.470222063     A.U. after   10 cycles
 SCF Done:  E(RB3LYP) =  -783.470226373     A.U. after   11 cycles
 SCF Done:  E(RB3LYP) =  -783.470227013     A.U. after    8 cycles
 SCF Done:  E(RB3LYP) =  -783.470227247     A.U. after    7 cycles
 SCF Done:  E(RB3LYP) =  -783.470227275     A.U. after    6 cycles
 Optimization completed.
    -- Stationary point found.
 Normal termination of Gaussian 16 at Fri Dec 11 12:59:59 2020.

 --------------------------------------------------------------------
 #N Geom=AllCheck Guess=TCheck SCRF=Check GenChk RB3LYP/6-31G(d) Freq
 --------------------------------------------------------------------

 Structure from the checkpoint file:  "JID_7563.chk"
 ------------------------------
 CID_79471414_JID_7563_neutraal
 ------------------------------
 Charge =  0 Multiplicity = 1

 SCF Done:  E(RB3LYP) =  -783.470227275     A.U. after    1 cycles

  Exact polarizability: 159.459  -6.594 140.738   5.414   1.716 129.102
 Approx polarizability: 217.095 -14.286 196.618  17.389  10.366 210.519

                      1                      2                      3
                      A                      A                      A
 Frequencies --     23.6311                33.8369                59.1642
 Red. masses --      3.7393                 3.7650                 4.4625
 Frc consts  --      0.0012                 0.0025                 0.0092
 IR Inten    --      0.8924                 1.6767                 1.3857

                      4                      5                      6
                      A                      A                      A
 Frequencies --     63.8717                75.9298                95.1676
 Red. masses --      3.2949                 3.1847                 3.7947
 Frc consts  --      0.0079                 0.0108                 0.0202
 IR Inten    --      1.4308                 1.5928                 1.0118

                      7                      8                      9
                      A                      A                      A
 Frequencies --    124.1861               133.6814               150.0574
 Red. masses --      3.7028                 3.4084                 3.3001
 Frc consts  --      0.0336                 0.0359                 0.0438
 IR Inten    --      2.2540                 1.4026                 1.6024

                     10                     11                     12
                      A                      A                      A
 Frequencies --    175.8043               204.2306               225.2282
 Red. masses --      1.2845                 1.6232                 1.2266
 Frc consts  --      0.0234                 0.0399                 0.0367
 IR Inten    --      0.2464                 2.6976                 1.3981

                     13                     14                     15
                      A                      A                      A
 Frequencies --    243.8093               256.2188               272.3831
 Red. masses --      1.8298                 2.4163                 2.0597
 Frc consts  --      0.0641                 0.0935                 0.0900
 IR Inten    --      0.9933                 0.1432                 0.3926

                     16                     17                     18
                      A                      A                      A
 Frequencies --    280.5020               311.5306               325.8598
 Red. masses --      2.0836                 2.1975                 3.4348
 Frc consts  --      0.0966                 0.1257                 0.2149
 IR Inten    --      0.2500                 1.3617                 4.6535

                     19                     20                     21
                      A                      A                      A
 Frequencies --    340.1770               369.9746               398.1552
 Red. masses --      3.3970                 3.6248                 7.4163
 Frc consts  --      0.2316                 0.2923                 0.6927
 IR Inten    --      4.3868                 4.3227                 9.8778

                     22                     23                     24
                      A                      A                      A
 Frequencies --    432.0212               449.3299               500.8460
 Red. masses --      3.4525                 2.7530                 4.0834
 Frc consts  --      0.3797                 0.3275                 0.6035
 IR Inten    --      7.1864                 4.9280                 2.5942

                     25                     26                     27
                      A                      A                      A
 Frequencies --    557.3242               662.0374               690.3734
 Red. masses --      4.5231                 2.9921                 4.9644
 Frc consts  --      0.8278                 0.7727                 1.3941
 IR Inten    --      3.3787                 3.5381                 2.8211

                     28                     29                     30
                      A                      A                      A
 Frequencies --    710.9479               734.4838               756.7223
 Red. masses --      3.2961                 6.4065                 3.0112
 Frc consts  --      0.9816                 2.0363                 1.0159
 IR Inten    --      1.5562                 7.6779                 4.8883

                     31                     32                     33
                      A                      A                      A
 Frequencies --    760.8750               803.7812               819.0912
 Red. masses --      6.6938                 1.1332                 1.4376
 Frc consts  --      2.2832                 0.4313                 0.5683
 IR Inten    --      9.2399                 1.2349                 7.0093

                     34                     35                     36
                      A                      A                      A
 Frequencies --    826.4934               879.4357               880.1488
 Red. masses --      1.2788                 2.3792                 2.7599
 Frc consts  --      0.5147                 1.0842                 1.2596
 IR Inten    --      0.6349                 7.1611                14.2909

                     37                     38                     39
                      A                      A                      A
 Frequencies --    904.4197               907.7899               920.3156
 Red. masses --      7.9010                 2.4365                 1.4894
 Frc consts  --      3.8078                 1.1830                 0.7433
 IR Inten    --      4.5113                 1.8062                 2.2429

                     40                     41                     42
                      A                      A                      A
 Frequencies --    972.1468               996.4739              1025.4778
 Red. masses --      3.3004                 1.2381                 1.6844
 Frc consts  --      1.8377                 0.7243                 1.0436
 IR Inten    --     19.3580                 3.2212                 1.9718

                     43                     44                     45
                      A                      A                      A
 Frequencies --   1035.2587              1056.1094              1062.0662
 Red. masses --      2.8036                 3.3126                 2.0892
 Frc consts  --      1.7703                 2.1769                 1.3885
 IR Inten    --      2.7458                12.7239                 5.5894

                     46                     47                     48
                      A                      A                      A
 Frequencies --   1078.1097              1079.6112              1092.5933
 Red. masses --      1.5381                 1.3080                 4.4805
 Frc consts  --      1.0533                 0.8982                 3.1513
 IR Inten    --      5.1604                 9.4203                 4.0724

                     49                     50                     51
                      A                      A                      A
 Frequencies --   1108.1807              1123.9083              1133.1115
 Red. masses --      1.4057                 2.0382                 1.9642
 Frc consts  --      1.0171                 1.5169                 1.4859
 IR Inten    --      1.9978                 3.0389                17.7188

                     52                     53                     54
                      A                      A                      A
 Frequencies --   1156.9931              1197.0698              1217.7234
 Red. masses --      2.1661                 2.2604                 1.6133
 Frc consts  --      1.7084                 1.9084                 1.4095
 IR Inten    --     39.7266               100.1240                27.5570

                     55                     56                     57
                      A                      A                      A
 Frequencies --   1219.4290              1243.8115              1282.8270
 Red. masses --      1.6403                 3.7223                 2.2922
 Frc consts  --      1.4371                 3.3929                 2.2225
 IR Inten    --     47.3081                91.9101                 9.0090

                     58                     59                     60
                      A                      A                      A
 Frequencies --   1313.7020              1333.3584              1338.1515
 Red. masses --      1.4794                 1.7324                 2.6967
 Frc consts  --      1.5043                 1.8146                 2.8451
 IR Inten    --      0.3995                29.6375               171.5287

                     61                     62                     63
                      A                      A                      A
 Frequencies --   1344.4774              1386.4966              1402.6130
 Red. masses --      1.2450                 2.6184                 1.4131
 Frc consts  --      1.3259                 2.9656                 1.6379
 IR Inten    --     78.6327                11.4605                34.5627

                     64                     65                     66
                      A                      A                      A
 Frequencies --   1420.9354              1425.4771              1435.4870
 Red. masses --      1.3170                 1.7933                 1.2615
 Frc consts  --      1.5667                 2.1470                 1.5316
 IR Inten    --     19.0606                11.6022                 0.8992

                     67                     68                     69
                      A                      A                      A
 Frequencies --   1444.3371              1451.7874              1469.1522
 Red. masses --      1.3344                 1.2983                 2.3307
 Frc consts  --      1.6402                 1.6122                 2.9640
 IR Inten    --     15.6435                 9.4500                74.5370

                     70                     71                     72
                      A                      A                      A
 Frequencies --   1479.5260              1506.8814              1514.0953
 Red. masses --      1.0946                 1.0799                 1.1982
 Frc consts  --      1.4117                 1.4448                 1.6184
 IR Inten    --      5.7446                 5.1032                 2.7037

                     73                     74                     75
                      A                      A                      A
 Frequencies --   1515.2895              1516.7971              1519.1533
 Red. masses --      1.1081                 1.1894                 1.0905
 Frc consts  --      1.4991                 1.6122                 1.4828
 IR Inten    --     11.5490                 0.7852                 5.0280

                     76                     77                     78
                      A                      A                      A
 Frequencies --   1524.6671              1527.4786              1533.8093
 Red. masses --      1.0641                 1.1535                 1.0843
 Frc consts  --      1.4574                 1.5857                 1.5029
 IR Inten    --      5.7745                 0.7952                14.7384

                     79                     80                     81
                      A                      A                      A
 Frequencies --   1537.7144              1538.5685              1564.9178
 Red. masses --      1.0616                 1.1695                 6.0254
 Frc consts  --      1.4790                 1.6312                 8.6939
 IR Inten    --      8.6234                11.1015                10.5544

                     82                     83                     84
                      A                      A                      A
 Frequencies --   1581.4770              1800.8740              3049.3557
 Red. masses --      6.6469                11.0255                 1.0623
 Frc consts  --      9.7948                21.0676                 5.8200
 IR Inten    --     33.6714               189.0810                 2.8180

                     85                     86                     87
                      A                      A                      A
 Frequencies --   3051.3741              3059.5426              3061.7353
 Red. masses --      1.0447                 1.0439                 1.0595
 Frc consts  --      5.7310                 5.7572                 5.8518
 IR Inten    --     20.5827                47.6874                32.6191

                     88                     89                     90
                      A                      A                      A
 Frequencies --   3063.6900              3095.9110              3096.4451
 Red. masses --      1.0362                 1.0597                 1.0959
 Frc consts  --      5.7302                 5.9840                 6.1909
 IR Inten    --     14.7289                23.3207                 6.1952

                     91                     92                     93
                      A                      A                      A
 Frequencies --   3104.1240              3125.1014              3132.4799
 Red. masses --      1.1007                 1.1016                 1.1008
 Frc consts  --      6.2491                 6.3388                 6.3639
 IR Inten    --     13.1485                26.2675                23.1475

                     94                     95                     96
                      A                      A                      A
 Frequencies --   3133.5136              3140.5471              3142.0884
 Red. masses --      1.0967                 1.1051                 1.1018
 Frc consts  --      6.3443                 6.4221                 6.4093
 IR Inten    --     30.3295                 2.5904                30.5002

                     97                     98                     99
                      A                      A                      A
 Frequencies --   3159.4248              3160.7678              3161.6347
 Red. masses --      1.0985                 1.0538                 1.1078
 Frc consts  --      6.4603                 6.2029                 6.5241
 IR Inten    --      4.3337                 7.7155                23.6544

                    100                    101                    102
                      A                      A                      A
 Frequencies --   3177.7293              3250.8259              3271.8854
 Red. masses --      1.0542                 1.1199                 1.1188
 Frc consts  --      6.2722                 6.9728                 7.0568
 IR Inten    --      3.5351                 1.1297                 1.8383

 - Thermochemistry -
 -------------------
 Temperature   298.150 Kelvin.  Pressure   1.00000 Atm.
 Atom     1 has atomic number  6 and mass  12.00000

 Molecular mass:   237.14773 amu.
 Principal axes and moments of inertia in atomic units:
                           1         2         3
     Eigenvalues --  2861.756874806.852115666.16330
           X            0.99951  -0.01335  -0.02844
           Y            0.01262   0.99959  -0.02579
           Z            0.02878   0.02542   0.99926
 This molecule is an asymmetric top.
 Rotational symmetry number  1.
 Warning -- assumption of classical behavior for rotation
           may cause significant error
 Rotational temperatures (Kelvin)      0.03027     0.01802     0.01529
 Rotational constants (GHZ):           0.63064     0.37545     0.31851
 Zero-point vibrational energy     809310.4 (Joules/Mol)
                                  193.42984 (Kcal/Mol)
 Warning -- explicit consideration of  25 degrees of freedom as
           vibrations may cause significant error
 Vibrational temperatures:     34.00    48.68    85.12    91.90   109.25
          (Kelvin)            136.92   178.68   192.34   215.90   252.94
                              293.84   324.05   350.79   368.64   391.90
                              403.58   448.22   468.84   489.44   532.31
                              572.86   621.58   646.49   720.61   801.87
                              952.52   993.29  1022.90  1056.76  1088.75
                             1094.73  1156.46  1178.49  1189.14  1265.31
                             1266.34  1301.26  1306.11  1324.13  1398.70
                             1433.70  1475.43  1489.51  1519.51  1528.08
                             1551.16  1553.32  1572.00  1594.42  1617.05
                             1630.29  1664.66  1722.32  1752.03  1754.49
                             1789.57  1845.70  1890.12  1918.41  1925.30
                             1934.40  1994.86  2018.05  2044.41  2050.94
                             2065.35  2078.08  2088.80  2113.78  2128.71
                             2168.07  2178.45  2180.16  2182.33  2185.72
                             2193.66  2197.70  2206.81  2212.43  2213.66
                             2251.57  2275.39  2591.06  4387.34  4390.25
                             4402.00  4405.15  4407.97  4454.33  4455.09
                             4466.14  4496.32  4506.94  4508.43  4518.55
                             4520.76  4545.71  4547.64  4548.89  4572.04
                             4677.21  4707.51

 Zero-point correction=                           0.308250 (Hartree/Particle)
 Thermal correction to Energy=                    0.326041
 Thermal correction to Enthalpy=                  0.326985
 Thermal correction to Gibbs Free Energy=         0.261396
 Sum of electronic and zero-point Energies=           -783.161977
 Sum of electronic and thermal Energies=              -783.144186
 Sum of electronic and thermal Enthalpies=            -783.143242
 Sum of electronic and thermal Free Energies=         -783.208831

                     E (Thermal)             CV                S
                      KCal/Mol        Cal/Mol-Kelvin    Cal/Mol-Kelvin
 Total                  204.594             65.336            138.043
 Electronic               0.000              0.000              0.000
 Translational            0.889              2.981             42.292
 Rotational               0.889              2.981             32.722
 Vibrational            202.816             59.375             63.029
 Vibration     1          0.593              1.985              6.303
 Vibration     2          0.594              1.983              5.591
 Vibration     3          0.597              1.974              4.485
 Vibration     4          0.597              1.972              4.334
 Vibration     5          0.599              1.965              3.993
 Vibration     6          0.603              1.953              3.551
 Vibration     7          0.610              1.929              3.034
 Vibration     8          0.613              1.920              2.892
 Vibration     9          0.618              1.903              2.672
 Vibration    10          0.628              1.872              2.373
 Vibration    11          0.640              1.834              2.095
 Vibration    12          0.650              1.803              1.917
 Vibration    13          0.659              1.773              1.775
 Vibration    14          0.666              1.752              1.687
 Vibration    15          0.675              1.724              1.581
 Vibration    16          0.680              1.710              1.531
 Vibration    17          0.700              1.652              1.354
 Vibration    18          0.710              1.624              1.281
 Vibration    19          0.720              1.595              1.211
 Vibration    20          0.742              1.534              1.080
 Vibration    21          0.764              1.474              0.969
 Vibration    22          0.793              1.400              0.852
 Vibration    23          0.808              1.362              0.798
 Vibration    24          0.856              1.248              0.656
 Vibration    25          0.913              1.124              0.529

 Optimization completed.
    -- Stationary point found.
 Normal termination of Gaussian 16 at Fri Dec 11 13:14:59 2020.

 ----------------------------------------------------------------------
 # B3LYP/6-311++G(d,p) empiricaldispersion=gd3bj scf=xqc pop=npa geom=c
 heck
 ----------------------------------------------------------------------

 --------------------------------------
 CID_79471414_JID_7563_Energie_neutraal
 --------------------------------------
 Structure from the checkpoint file:  "JID_7563.chk"
 Charge =  0 Multiplicity = 1

 SCF Done:  E(RB3LYP) =  -783.684451852     A.U. after   15 cycles
 Normal termination of Gaussian 16 at Fri Dec 11 13:22:59 2020.

 ----------------------------------------------------------------------
 # B3LYP/6-311++G(d,p) empiricaldispersion=gd3bj scf=xqc pop=npa geom=c
 heck
 ----------------------------------------------------------------------

 ------------------------------------
 CID_79471414_JID_7563_Energie_kation
 ------------------------------------
 Structure from the checkpoint file:  "JID_7563.chk"
 Charge =  1 Multiplicity = 2

 SCF Done:  E(UB3LYP) =  -783.369011500     A.U. after   27 cycles
 Normal termination of Gaussian 16 at Fri Dec 11 13:41:07 2020.
 Gaussian 16:  ES64L-G16RevA.03 25-Dec-2016

 ----------------------------------------------------------------------
 # B3LYP/6-311++G(d,p) empiricaldispersion=gd3bj scf=xqc pop=npa geom=c
 heck
 ----------------------------------------------------------------------

 -----------------------------------
 CID_79471414_JID_7563_Energie_anion
 -----------------------------------
 Structure from the checkpoint file:  "JID_7563.chk"
 Charge = -1 Multiplicity = 2

                         Standard orientation:
 ---------------------------------------------------------------------
 Center     Atomic      Atomic             Coordinates (Angstroms)
 Number     Number       Type             X           Y           Z
 ---------------------------------------------------------------------
      1          6           0        0.665806   -2.710327   -0.640058
      2          6           0        1.786596   -1.985689   -1.384096
      3          6           0        1.616705   -0.463412   -1.446288
      4          7           0        1.556486    0.198111   -0.143694
      5          6           0        2.542015    0.270722    0.815745
      6          7           0        2.155805    1.053133    1.800509
      7          7           0        0.893279    1.520500    1.496426
      8          6           0        0.546356    1.008197    0.338138
      9          6           0       -0.709390    1.300583   -0.387920
     10          6           0       -1.211363    2.743231   -0.340083
     11          6           0       -0.654079    2.212911   -1.613693
     12          6           0       -1.806898    0.282399   -0.391267
     13          8           0       -2.804937    0.360366   -1.081224
     14          8           0       -1.566852   -0.712550    0.483361
     15          6           0       -2.604612   -1.712497    0.622205
     16          6           0       -3.684312   -1.242128    1.581942
     17          6           0        3.866193   -0.410612    0.748876
     18          1           0        0.571986   -2.344797    0.386533
     19          1           0        0.859564   -3.787621   -0.607650
     20          1           0       -0.299025   -2.554439   -1.134153
     21          1           0        2.753676   -2.228633   -0.931645
     22          1           0        1.840421   -2.340274   -2.421531
     23          1           0        2.440179   -0.020808   -2.020266
     24          1           0        0.689501   -0.211920   -1.966597
     25          1           0       -2.286642    2.866156   -0.272309
     26          1           0       -0.614676    3.417083    0.263659
     27          1           0        0.334091    2.539815   -1.922648
     28          1           0       -1.347780    1.970954   -2.411866
     29          1           0       -3.016010   -1.931401   -0.366057
     30          1           0       -2.078680   -2.590920    1.001875
     31          1           0       -4.204155   -0.371299    1.173882
     32          1           0       -4.418031   -2.040939    1.737761
     33          1           0       -3.249613   -0.975652    2.550248
     34          1           0        4.503544    0.015311    1.526456
     35          1           0        3.785561   -1.489306    0.926215
     36          1           0        4.353307   -0.266312   -0.222713
 ---------------------------------------------------------------------

 SCF Done:  E(UB3LYP) =  -783.676590258     A.U. after   33 cycles
 SCF Done:  E(UB3LYP) =  -783.676590258     a.u. after    1 cycles

 The electronic state is 2-A.
 Alpha  occ. eigenvalues --  -19.08258 -19.02466 -14.27836 -14.21941 -14.21696
 Alpha  occ. eigenvalues --  -10.21906 -10.14394 -10.13881 -10.13656 -10.12701
 Alpha  occ. eigenvalues --  -10.12145 -10.10409 -10.10275 -10.08562 -10.08456
 Alpha  occ. eigenvalues --  -10.07643 -10.06127  -1.02383  -0.96011  -0.93670
 Alpha  occ. eigenvalues --   -0.82631  -0.80242  -0.72338  -0.69458  -0.69188
 Alpha  occ. eigenvalues --   -0.63300  -0.60793  -0.60719  -0.55634  -0.53312
 Alpha  occ. eigenvalues --   -0.51943  -0.51203  -0.47772  -0.46554  -0.44619
 Alpha  occ. eigenvalues --   -0.41948  -0.40224  -0.39347  -0.38366  -0.37957
 Alpha  occ. eigenvalues --   -0.37610  -0.36117  -0.34353  -0.33779  -0.32823
 Alpha  occ. eigenvalues --   -0.32687  -0.31783  -0.31165  -0.30948  -0.30496
 Alpha  occ. eigenvalues --   -0.29250  -0.29064  -0.26624  -0.26181  -0.25849
 Alpha  occ. eigenvalues --   -0.24765  -0.23953  -0.22514  -0.22279  -0.21374
 Alpha  occ. eigenvalues --   -0.20135  -0.18612  -0.15982  -0.15159   0.03944
 Alpha virt. eigenvalues --    0.05800   0.06943   0.07500   0.07817   0.08317
 Alpha virt. eigenvalues --    0.08482   0.09194   0.09812   0.10004   0.10439
 Alpha virt. eigenvalues --    0.10581   0.10958   0.11415   0.11820   0.12656

  Beta  occ. eigenvalues --  -19.08258 -19.02442 -14.27836 -14.21935 -14.21694
  Beta  occ. eigenvalues --  -10.21888 -10.14380 -10.13872 -10.13644 -10.12704
  Beta  occ. eigenvalues --  -10.12111 -10.10405 -10.10250 -10.08546 -10.08418
  Beta  occ. eigenvalues --  -10.07607 -10.06099  -1.02362  -0.95997  -0.93640
  Beta  occ. eigenvalues --   -0.82612  -0.80222  -0.72314  -0.69428  -0.69138
  Beta  occ. eigenvalues --   -0.63251  -0.60734  -0.60684  -0.55611  -0.53269
  Beta  occ. eigenvalues --   -0.51865  -0.51177  -0.47730  -0.46529  -0.44584
  Beta  occ. eigenvalues --   -0.41912  -0.40183  -0.39301  -0.38326  -0.37913
  Beta  occ. eigenvalues --   -0.37587  -0.36070  -0.34312  -0.33740  -0.32788
  Beta  occ. eigenvalues --   -0.32639  -0.31740  -0.31121  -0.30910  -0.30464
  Beta  occ. eigenvalues --   -0.29226  -0.29043  -0.26574  -0.26152  -0.25788
  Beta  occ. eigenvalues --   -0.24730  -0.23918  -0.22499  -0.22227  -0.21358
  Beta  occ. eigenvalues --   -0.20110  -0.18579  -0.15969  -0.15105
  Beta virt. eigenvalues --    0.06056   0.06824   0.07444   0.07976   0.08067
  Beta virt. eigenvalues --    0.08833   0.08987   0.09402   0.09989   0.10296
  Beta virt. eigenvalues --    0.10779   0.10931   0.11325   0.11666   0.12124

 Mulliken charges and spin densities:
               1          2
     1  C   -0.262502  -0.306918
     2  C    1.076456  -1.361055
     3  C   -0.015303  -0.269932
     4  N    0.130247   0.089020
     5  C   -0.376484   0.925553
     6  N   -0.146063   0.007501
     7  N    0.071809   0.002791
     8  C   -0.777660   0.062481
     9  C    0.153761   0.385777
    10  C   -0.414498  -0.080006
    11  C    0.292641  -0.705337
    12  C   -0.480696  -0.221536
    13  O   -0.232048   0.028752
    14  O    0.120944   0.013255
    15  C    0.049433  -0.126678
    16  C    0.087761  -0.530582
    17  C    1.127017  -1.697709
    18  H    0.181989   0.009088
    19  H   -0.582561   0.751259
    20  H    0.149724   0.009940
    21  H    0.156867  -0.004787
    22  H   -0.793340   0.976213
    23  H   -0.579427   0.811115
    24  H    0.059582   0.123457
    25  H    0.187357  -0.004798
    26  H    0.186648   0.008250
    27  H   -0.052919   0.230573
    28  H    0.038447   0.176937
    29  H   -0.013293   0.188606
    30  H   -0.082296   0.250458
    31  H    0.092946   0.075108
    32  H   -0.121328   0.272199
    33  H    0.109813   0.041323
    34  H    0.150734   0.023955
    35  H   -0.170794   0.338170
    36  H   -0.322966   0.507557
 Sum of Mulliken charges =  -1.00000   1.00000

 Dipole moment (field-independent basis, Debye):
    X=             -4.8707    Y=              3.6174    Z=              2.4311  Tot=              6.5360
 Quadrupole moment (field-independent basis, Debye-Ang):
   XX=           -165.8500   YY=           -152.7618   ZZ=           -154.2671
   XY=              0.6890   XZ=              5.2162   YZ=            -10.6484

 Summary of Natural Population Analysis:

                                       Natural Population
                Natural  -----------------------------------------------
    Atom  No    Charge         Core      Valence    Rydberg      Total
 -----------------------------------------------------------------------
      C    1   -0.28673      0.99966     2.28104    0.00603     3.28673
      C    2   -0.19405      0.99963     2.18614    0.00827     3.19405
      C    3   -0.08410      0.99960     2.07226    0.01224     3.08410
      N    4   -0.21343      0.99958     2.70204    0.01182     3.71343
      C    5    0.19259      0.99961     1.79112    0.01668     2.80741
      N    6   -0.17014      0.99968     2.65792    0.01253     3.67014
      N    7   -0.16076      0.99968     2.64938    0.01170     3.66076
      C    8    0.18943      0.99955     1.79188    0.01915     2.81057
      C    9   -0.11384      0.99947     2.10163    0.01273     3.11384
      C   10   -0.16940      0.99961     2.16193    0.00786     3.16940
      C   11   -0.17936      0.99961     2.17059    0.00916     3.17936
      C   12    0.41786      0.99961     1.55606    0.02647     2.58214
      O   13   -0.31538      0.99987     3.31045    0.00505     4.31538
      O   14   -0.27424      0.99986     3.26593    0.00845     4.27424
      C   15   -0.01796      0.99957     2.00695    0.01143     3.01796
      C   16   -0.30029      0.99966     2.29535    0.00528     3.30029
      C   17   -0.30896      0.99963     2.30380    0.00553     3.30896
      H   18    0.10000      0.00000     0.39822    0.00177     0.40000
      H   19    0.10166      0.00000     0.39701    0.00132     0.39834
      H   20    0.09559      0.00000     0.40283    0.00158     0.40441
      H   21    0.09817      0.00000     0.39968    0.00215     0.40183
      H   22    0.10412      0.00000     0.39307    0.00281     0.39588
      H   23    0.10618      0.00000     0.38982    0.00400     0.39382
      H   24    0.10321      0.00000     0.39461    0.00218     0.39679
      H   25    0.10807      0.00000     0.39103    0.00090     0.39193
      H   26    0.11439      0.00000     0.38460    0.00102     0.38561
      H   27    0.10925      0.00000     0.38973    0.00102     0.39075
      H   28    0.11469      0.00000     0.38426    0.00105     0.38531
      H   29    0.09625      0.00000     0.40240    0.00135     0.40375
      H   30    0.09394      0.00000     0.40479    0.00126     0.40606
      H   31    0.10502      0.00000     0.39412    0.00086     0.39498
      H   32    0.10238      0.00000     0.39677    0.00085     0.39762
      H   33    0.10183      0.00000     0.39733    0.00085     0.39817
      H   34    0.11391      0.00000     0.38494    0.00114     0.38609
      H   35    0.10993      0.00000     0.38867    0.00140     0.39007
      H   36    0.11016      0.00000     0.38857    0.00128     0.38984
 =======================================================================
   * Total *   -0.00000     16.99387    46.78695    0.21918    64.00000

 Normal termination of Gaussian 16 at Fri Dec 11 14:02:45 2020.
