 Gaussian 16, Revision A.03,

 -----------------------------------------------------------
 # opt freq B3LYP/6-31G(d) empiricaldispersion=gd3bj scf=xqc
 -----------------------------------------------------------

 -------------------------------
 CID_130532849_JID_1959_neutraal
 -------------------------------
 Symbolic Z-matrix:
 Charge =  0 Multiplicity = 1

 SCF Done:  E(RB3LYP) =  -484.378266192     A.U. after   13 cycles
 SCF Done:  E(RB3LYP) =  -484.386304813     A.U. after   11 cycles
 SCF Done:  E(RB3LYP) =  -484.386959166     A.U. after   10 cycles
 SCF Done:  E(RB3LYP) =  -484.386985694     A.U. after   11 cycles
 SCF Done:  E(RB3LYP) =  -484.387140473     A.U. after   10 cycles
 SCF Done:  E(RB3LYP) =  -484.387155981     A.U. after    9 cycles
 SCF Done:  E(RB3LYP) =  -484.387159697     A.U. after    8 cycles
 SCF Done:  E(RB3LYP) =  -484.387160119     A.U. after    7 cycles
 SCF Done:  E(RB3LYP) =  -484.387160234     A.U. after    7 cycles
 Optimization completed.
    -- Stationary point found.
 Normal termination of Gaussian 16 at Tue Dec  8 21:45:47 2020.

 --------------------------------------------------------------------
 #N Geom=AllCheck Guess=TCheck SCRF=Check GenChk RB3LYP/6-31G(d) Freq
 --------------------------------------------------------------------

 Structure from the checkpoint file:  "JID_1959.chk"
 -------------------------------
 CID_130532849_JID_1959_neutraal
 -------------------------------
 Charge =  0 Multiplicity = 1

 SCF Done:  E(RB3LYP) =  -484.387160234     A.U. after    1 cycles

  Exact polarizability: 119.716  -2.461  98.686   0.775   0.444  92.587
 Approx polarizability: 145.069  -1.603 140.303  -1.251  -1.003 135.720

                      1                      2                      3
                      A                      A                      A
 Frequencies --     39.3488                57.8898                84.4922
 Red. masses --      3.2116                 3.2405                 2.8295
 Frc consts  --      0.0029                 0.0064                 0.0119
 IR Inten    --      0.9088                 1.4362                 0.2640

                      4                      5                      6
                      A                      A                      A
 Frequencies --    100.3179               168.3349               207.2525
 Red. masses --      2.8732                 2.3792                 1.3738
 Frc consts  --      0.0170                 0.0397                 0.0348
 IR Inten    --      0.6648                 2.9191                 0.5831

                      7                      8                      9
                      A                      A                      A
 Frequencies --    221.6852               252.6230               267.9742
 Red. masses --      2.1826                 1.1477                 1.1325
 Frc consts  --      0.0632                 0.0432                 0.0479
 IR Inten    --      0.3942                 0.4140                 0.1605

                     10                     11                     12
                      A                      A                      A
 Frequencies --    278.7563               311.4052               347.2025
 Red. masses --      2.1791                 2.0839                 2.2757
 Frc consts  --      0.0998                 0.1191                 0.1616
 IR Inten    --      0.3304                 0.6976                 0.0976

                     13                     14                     15
                      A                      A                      A
 Frequencies --    365.2245               373.7155               431.6863
 Red. masses --      2.0640                 2.3110                 2.8433
 Frc consts  --      0.1622                 0.1902                 0.3122
 IR Inten    --      0.3196                 0.0899                 4.3440

                     16                     17                     18
                      A                      A                      A
 Frequencies --    470.3057               487.9001               573.4193
 Red. masses --      2.5202                 2.4849                 1.1505
 Frc consts  --      0.3284                 0.3485                 0.2229
 IR Inten    --      4.2262                 0.5377                68.3674

                     19                     20                     21
                      A                      A                      A
 Frequencies --    632.7148               641.8275               735.9920
 Red. masses --      2.9931                 2.5088                 1.3860
 Frc consts  --      0.7060                 0.6089                 0.4424
 IR Inten    --     11.8681                 8.6512                 2.4638

                     22                     23                     24
                      A                      A                      A
 Frequencies --    817.5744               828.3703               868.3905
 Red. masses --      2.0457                 1.9050                 2.0847
 Frc consts  --      0.8057                 0.7702                 0.9262
 IR Inten    --     47.0409                24.4450                 3.1544

                     25                     26                     27
                      A                      A                      A
 Frequencies --    892.8296               907.3030               933.0098
 Red. masses --      1.7436                 2.3935                 1.8124
 Frc consts  --      0.8189                 1.1609                 0.9296
 IR Inten    --      4.3777                 3.0468                 3.9617

                     28                     29                     30
                      A                      A                      A
 Frequencies --    950.4447               964.9738               983.0959
 Red. masses --      2.1192                 1.5573                 1.8589
 Frc consts  --      1.1279                 0.8544                 1.0585
 IR Inten    --      2.8953                 0.7923                 8.8897

                     31                     32                     33
                      A                      A                      A
 Frequencies --    986.4094              1001.2496              1016.1446
 Red. masses --      1.7445                 1.5298                 1.9671
 Frc consts  --      1.0001                 0.9036                 1.1967
 IR Inten    --      4.5431                11.0802                 6.5696

                     34                     35                     36
                      A                      A                      A
 Frequencies --   1045.0273              1071.2238              1101.2384
 Red. masses --      1.5424                 1.7227                 1.9180
 Frc consts  --      0.9924                 1.1647                 1.3705
 IR Inten    --      7.5689                10.9909                27.7167

                     37                     38                     39
                      A                      A                      A
 Frequencies --   1137.3264              1165.1908              1185.9990
 Red. masses --      1.9643                 2.0952                 1.6815
 Frc consts  --      1.4971                 1.6760                 1.3935
 IR Inten    --     64.1502                40.7414                 4.3312

                     40                     41                     42
                      A                      A                      A
 Frequencies --   1216.6296              1225.7004              1244.1065
 Red. masses --      2.0597                 1.7875                 1.5818
 Frc consts  --      1.7963                 1.5822                 1.4425
 IR Inten    --     25.8009                 6.0333                13.8432

                     43                     44                     45
                      A                      A                      A
 Frequencies --   1255.0987              1276.8720              1287.3797
 Red. masses --      1.6590                 1.4393                 1.4570
 Frc consts  --      1.5397                 1.3826                 1.4228
 IR Inten    --      3.8918                 4.1478                 8.0542

                     46                     47                     48
                      A                      A                      A
 Frequencies --   1297.1239              1314.9655              1324.6406
 Red. masses --      1.5385                 1.9438                 1.8985
 Frc consts  --      1.5252                 1.9803                 1.9627
 IR Inten    --     13.4901                 1.0546                 0.9990

                     49                     50                     51
                      A                      A                      A
 Frequencies --   1371.3985              1397.1257              1411.5616
 Red. masses --      1.2935                 1.3531                 1.3367
 Frc consts  --      1.4333                 1.5561                 1.5692
 IR Inten    --      8.3414                 8.1211                 0.1213

                     52                     53                     54
                      A                      A                      A
 Frequencies --   1431.3908              1435.4405              1449.6749
 Red. masses --      1.2830                 1.2980                 1.2275
 Frc consts  --      1.5488                 1.5758                 1.5200
 IR Inten    --      1.8637                21.2063                 2.1036

                     55                     56                     57
                      A                      A                      A
 Frequencies --   1462.6337              1504.4896              1506.4621
 Red. masses --      1.2077                 1.1007                 1.1310
 Frc consts  --      1.5222                 1.4680                 1.5122
 IR Inten    --    113.3044                 6.7228                10.3381

                     58                     59                     60
                      A                      A                      A
 Frequencies --   1512.0585              1518.3558              1521.9300
 Red. masses --      1.0485                 1.0674                 1.0908
 Frc consts  --      1.4124                 1.4498                 1.4886
 IR Inten    --      1.1321                 4.4249                 8.0063

                     61                     62                     63
                      A                      A                      A
 Frequencies --   1527.4511              1531.0769              1534.7964
 Red. masses --      1.1047                 1.0815                 1.0628
 Frc consts  --      1.5186                 1.4938                 1.4750
 IR Inten    --      5.9792                20.6980                10.9761

                     64                     65                     66
                      A                      A                      A
 Frequencies --   1537.5981              1540.8901              2986.8128
 Red. masses --      1.0577                 1.0899                 1.0705
 Frc consts  --      1.4733                 1.5247                 5.6266
 IR Inten    --      5.3995                19.1687                49.2289

                     67                     68                     69
                      A                      A                      A
 Frequencies --   3037.0777              3042.3276              3044.8463
 Red. masses --      1.0348                 1.0375                 1.0369
 Frc consts  --      5.6238                 5.6580                 5.6640
 IR Inten    --     28.1211                18.1461                22.4650

                     70                     71                     72
                      A                      A                      A
 Frequencies --   3053.1073              3060.2058              3063.0662
 Red. masses --      1.0866                 1.0601                 1.0789
 Frc consts  --      5.9674                 5.8491                 5.9640
 IR Inten    --     38.2739                48.8772                22.5764

                     73                     74                     75
                      A                      A                      A
 Frequencies --   3073.3702              3088.6186              3102.8420
 Red. masses --      1.0665                 1.0912                 1.1050
 Frc consts  --      5.9351                 6.1329                 6.2678
 IR Inten    --     19.5726                30.7003                 3.3897

                     76                     77                     78
                      A                      A                      A
 Frequencies --   3104.8769              3105.7290              3105.8492
 Red. masses --      1.1045                 1.1021                 1.1020
 Frc consts  --      6.2735                 6.2631                 6.2631
 IR Inten    --      4.9278                15.3783                79.1502

                     79                     80                     81
                      A                      A                      A
 Frequencies --   3109.2471              3117.5226              3124.2085
 Red. masses --      1.1014                 1.1020                 1.1069
 Frc consts  --      6.2733                 6.3104                 6.3654
 IR Inten    --     58.3881                27.7871                73.4314

                     82                     83                     84
                      A                      A                      A
 Frequencies --   3133.2983              3490.5876              3604.2303
 Red. masses --      1.1002                 1.0730                 1.0646
 Frc consts  --      6.3637                 7.7030                 8.1479
 IR Inten    --     26.9751                 0.4130               108.8594

 - Thermochemistry -
 -------------------
 Temperature   298.150 Kelvin.  Pressure   1.00000 Atm.
 Atom     1 has atomic number  6 and mass  12.00000

 Molecular mass:   157.14666 amu.
 Principal axes and moments of inertia in atomic units:
                           1         2         3
     Eigenvalues --   907.495473257.573933480.47251
           X            0.99979  -0.01668   0.01192
           Y            0.01619   0.99905   0.04034
           Z           -0.01258  -0.04014   0.99911
 This molecule is an asymmetric top.
 Rotational symmetry number  1.
 Warning -- assumption of classical behavior for rotation
           may cause significant error
 Rotational temperatures (Kelvin)      0.09544     0.02659     0.02489
 Rotational constants (GHZ):           1.98871     0.55401     0.51853
 Zero-point vibrational energy     723684.2 (Joules/Mol)
                                  172.96467 (Kcal/Mol)
 Warning -- explicit consideration of  18 degrees of freedom as
           vibrations may cause significant error
 Vibrational temperatures:     56.61    83.29   121.57   144.34   242.20
          (Kelvin)            298.19   318.96   363.47   385.56   401.07
                              448.04   499.55   525.48   537.69   621.10
                              676.67   701.98   825.02   910.34   923.45
                             1058.93  1176.31  1191.84  1249.42  1284.58
                             1305.41  1342.39  1367.48  1388.38  1414.46
                             1419.22  1440.57  1462.01  1503.56  1541.25
                             1584.44  1636.36  1676.45  1706.39  1750.46
                             1763.51  1789.99  1805.81  1837.13  1852.25
                             1866.27  1891.94  1905.86  1973.14  2010.15
                             2030.92  2059.45  2065.28  2085.76  2104.40
                             2164.62  2167.46  2175.51  2184.58  2189.72
                             2197.66  2202.88  2208.23  2212.26  2217.00
                             4297.36  4369.68  4377.23  4380.85  4392.74
                             4402.95  4407.07  4421.89  4443.83  4464.30
                             4467.23  4468.45  4468.62  4473.51  4485.42
                             4495.04  4508.12  5022.18  5185.68

 Zero-point correction=                           0.275637 (Hartree/Particle)
 Thermal correction to Energy=                    0.288437
 Thermal correction to Enthalpy=                  0.289381
 Thermal correction to Gibbs Free Energy=         0.236606
 Sum of electronic and zero-point Energies=           -484.111523
 Sum of electronic and thermal Energies=              -484.098723
 Sum of electronic and thermal Enthalpies=            -484.097779
 Sum of electronic and thermal Free Energies=         -484.150554

                     E (Thermal)             CV                S
                      KCal/Mol        Cal/Mol-Kelvin    Cal/Mol-Kelvin
 Total                  180.997             48.670            111.074
 Electronic               0.000              0.000              0.000
 Translational            0.889              2.981             41.065
 Rotational               0.889              2.981             30.710
 Vibrational            179.219             42.708             39.299
 Vibration     1          0.594              1.981              5.292
 Vibration     2          0.596              1.974              4.528
 Vibration     3          0.601              1.960              3.784
 Vibration     4          0.604              1.949              3.448
 Vibration     5          0.625              1.881              2.454
 Vibration     6          0.641              1.830              2.068
 Vibration     7          0.648              1.808              1.945
 Vibration     8          0.664              1.758              1.712
 Vibration     9          0.673              1.732              1.609
 Vibration    10          0.679              1.713              1.541
 Vibration    11          0.700              1.652              1.355
 Vibration    12          0.725              1.581              1.179
 Vibration    13          0.738              1.544              1.100
 Vibration    14          0.745              1.526              1.065
 Vibration    15          0.793              1.401              0.853
 Vibration    16          0.827              1.316              0.737
 Vibration    17          0.844              1.277              0.689
 Vibration    18          0.930              1.089              0.498

                           ! Non-Optimized Parameters !
 Normal termination of Gaussian 16 at Tue Dec  8 21:52:50 2020.

 ----------------------------------------------------------------------
 # B3LYP/6-311++G(d,p) empiricaldispersion=gd3bj scf=xqc pop=npa geom=c
 heck
 ----------------------------------------------------------------------

 ---------------------------------------
 CID_130532849_JID_1959_Energie_neutraal
 ---------------------------------------
 Structure from the checkpoint file:  "JID_1959.chk"
 Charge =  0 Multiplicity = 1

 SCF Done:  E(RB3LYP) =  -484.536478401     A.U. after   13 cycles
 Normal termination of Gaussian 16 at Tue Dec  8 21:55:16 2020.

 ----------------------------------------------------------------------
 # B3LYP/6-311++G(d,p) empiricaldispersion=gd3bj scf=xqc pop=npa geom=c
 heck
 ----------------------------------------------------------------------

 -------------------------------------
 CID_130532849_JID_1959_Energie_kation
 -------------------------------------
 Structure from the checkpoint file:  "JID_1959.chk"
 Charge =  1 Multiplicity = 2

 SCF Done:  E(UB3LYP) =  -484.223659834     A.U. after   21 cycles
 Normal termination of Gaussian 16 at Tue Dec  8 22:00:17 2020.
 Gaussian 16:  ES64L-G16RevA.03 25-Dec-2016

 ----------------------------------------------------------------------
 # B3LYP/6-311++G(d,p) empiricaldispersion=gd3bj scf=xqc pop=npa geom=c
 heck
 ----------------------------------------------------------------------

 ------------------------------------
 CID_130532849_JID_1959_Energie_anion
 ------------------------------------
 Structure from the checkpoint file:  "JID_1959.chk"
 Charge = -1 Multiplicity = 2

                         Standard orientation:
 ---------------------------------------------------------------------
 Center     Atomic      Atomic             Coordinates (Angstroms)
 Number     Number       Type             X           Y           Z
 ---------------------------------------------------------------------
      1          6           0        3.319065   -0.209745    1.140457
      2          6           0        2.915999   -0.090402   -0.333416
      3          6           0        1.591122   -0.802729   -0.650608
      4          7           0        0.488782   -0.042313   -0.053258
      5          6           0       -0.829475   -0.379359   -0.572191
      6          6           0       -1.451310   -1.725972   -0.082677
      7          6           0       -2.358261   -0.929849    0.890836
      8          6           0       -2.014223    0.383188    0.120376
      9          6           0       -3.095193    0.735312   -0.904820
     10          6           0       -1.666842    1.602961    0.967118
     11          8           0        2.810887    1.270644   -0.724903
     12          1           0        2.563938    0.243851    1.794359
     13          1           0        4.259328    0.322678    1.310714
     14          1           0        3.451789   -1.257524    1.437741
     15          1           0        3.705179   -0.537772   -0.950790
     16          1           0        1.442316   -0.790181   -1.736032
     17          1           0        1.625466   -1.858346   -0.332719
     18          1           0        0.500505   -0.177643    0.956145
     19          1           0       -0.786882   -0.251054   -1.659816
     20          1           0       -0.749503   -2.437242    0.365322
     21          1           0       -2.013523   -2.246815   -0.863664
     22          1           0       -1.969114   -0.922056    1.915167
     23          1           0       -3.416147   -1.209190    0.929891
     24          1           0       -2.751556    1.533385   -1.574114
     25          1           0       -3.360746   -0.129605   -1.524171
     26          1           0       -4.008251    1.080885   -0.405106
     27          1           0       -0.903081    1.382958    1.720309
     28          1           0       -1.290807    2.423592    0.345862
     29          1           0       -2.559200    1.959146    1.496565
     30          1           0        1.886414    1.501544   -0.504076
 ---------------------------------------------------------------------

 SCF Done:  E(UB3LYP) =  -484.521961899     A.U. after   28 cycles

 The electronic state is 2-A.
 Alpha  occ. eigenvalues --  -19.00804 -14.20495 -10.11864 -10.09410 -10.09333
 Alpha  occ. eigenvalues --  -10.07795 -10.05797 -10.05761 -10.05737 -10.05736
 Alpha  occ. eigenvalues --  -10.05440  -0.91708  -0.81669  -0.73608  -0.65665
 Alpha  occ. eigenvalues --   -0.63687  -0.58822  -0.58137  -0.53985  -0.50626
 Alpha  occ. eigenvalues --   -0.48594  -0.43930  -0.39234  -0.38722  -0.36651
 Alpha  occ. eigenvalues --   -0.35687  -0.34633  -0.34092  -0.32224  -0.31308
 Alpha  occ. eigenvalues --   -0.31030  -0.29718  -0.28687  -0.27681  -0.26848
 Alpha  occ. eigenvalues --   -0.25575  -0.25265  -0.24607  -0.22536  -0.21569
 Alpha  occ. eigenvalues --   -0.19901  -0.19113  -0.17002  -0.13322   0.04570
 Alpha virt. eigenvalues --    0.06712   0.07380   0.08144   0.08991   0.09253
 Alpha virt. eigenvalues --    0.09566   0.10358   0.10698   0.11298   0.11645
 Alpha virt. eigenvalues --    0.11915   0.12988   0.13385   0.13841   0.14285

  Beta  occ. eigenvalues --  -19.00797 -14.20475 -10.11857 -10.09400 -10.09316
  Beta  occ. eigenvalues --  -10.07795 -10.05770 -10.05731 -10.05706 -10.05699
  Beta  occ. eigenvalues --  -10.05414  -0.91691  -0.81639  -0.73584  -0.65629
  Beta  occ. eigenvalues --   -0.63648  -0.58767  -0.58080  -0.53922  -0.50553
  Beta  occ. eigenvalues --   -0.48540  -0.43873  -0.39183  -0.38685  -0.36600
  Beta  occ. eigenvalues --   -0.35649  -0.34596  -0.34053  -0.32187  -0.31266
  Beta  occ. eigenvalues --   -0.30991  -0.29675  -0.28655  -0.27647  -0.26817
  Beta  occ. eigenvalues --   -0.25540  -0.25228  -0.24572  -0.22506  -0.21533
  Beta  occ. eigenvalues --   -0.19860  -0.19083  -0.16984  -0.13294
  Beta virt. eigenvalues --    0.06838   0.07511   0.08075   0.08761   0.09462
  Beta virt. eigenvalues --    0.09628   0.10187   0.10769   0.11069   0.11697
  Beta virt. eigenvalues --    0.12118   0.12259   0.13247   0.13747   0.14134

 Mulliken charges and spin densities:
               1          2
     1  C    0.685103  -1.178586
     2  C   -0.502719   0.317655
     3  C    0.049348  -0.398391
     4  N    0.077500  -0.104471
     5  C   -1.414885   1.100923
     6  C    1.371932  -1.821511
     7  C   -0.346550  -0.077538
     8  C   -0.632034   1.263081
     9  C    1.030076  -1.734439
    10  C    0.668613  -1.194858
    11  O   -0.182910  -0.009161
    12  H   -0.353917   0.496809
    13  H   -0.151506   0.303051
    14  H   -0.239878   0.374825
    15  H   -0.021173   0.187587
    16  H    0.034800   0.135546
    17  H   -0.112206   0.244374
    18  H    0.714834  -0.499188
    19  H   -0.013073   0.220828
    20  H   -0.154635   0.301643
    21  H   -0.254669   0.395071
    22  H   -0.547845   0.702478
    23  H   -0.129660   0.289062
    24  H   -0.074687   0.207795
    25  H   -0.259017   0.404792
    26  H   -0.232155   0.373240
    27  H   -0.217579   0.344501
    28  H    0.014397   0.131403
    29  H   -0.072619   0.220400
    30  H    0.267114   0.003079
 Sum of Mulliken charges =  -1.00000   1.00000

 Dipole moment (field-independent basis, Debye):
    X=              1.1818    Y=              1.1727    Z=             -2.1443  Tot=              2.7147
 Quadrupole moment (field-independent basis, Debye-Ang):
   XX=           -140.8484   YY=           -111.0632   ZZ=           -110.3119
   XY=             -3.1705   XZ=             -4.6248   YZ=              3.6829

 Summary of Natural Population Analysis:

                                       Natural Population
                Natural  -----------------------------------------------
    Atom  No    Charge         Core      Valence    Rydberg      Total
 -----------------------------------------------------------------------
      C    1   -0.29873      0.99965     2.29277    0.00631     3.29873
      C    2    0.05848      0.99959     1.92692    0.01501     2.94152
      C    3   -0.09669      0.99961     2.08686    0.01022     3.09669
      N    4   -0.35589      0.99972     2.84419    0.01198     3.85589
      C    5    0.00512      0.99955     1.98121    0.01412     2.99488
      C    6   -0.20258      0.99963     2.19427    0.00868     3.20258
      C    7   -0.18702      0.99960     2.17810    0.00931     3.18702
      C    8   -0.04520      0.99957     2.03227    0.01336     3.04520
      C    9   -0.28112      0.99962     2.27463    0.00688     3.28112
      C   10   -0.28496      0.99962     2.27809    0.00725     3.28496
      O   11   -0.38111      0.99990     3.37446    0.00675     4.38111
      H   12    0.09767      0.00000     0.40089    0.00144     0.40233
      H   13    0.10150      0.00000     0.39748    0.00102     0.39850
      H   14    0.10033      0.00000     0.39816    0.00151     0.39967
      H   15    0.08245      0.00000     0.41638    0.00117     0.41755
      H   16    0.09494      0.00000     0.40373    0.00132     0.40506
      H   17    0.08859      0.00000     0.40988    0.00153     0.41141
      H   18    0.17943      0.00000     0.31607    0.00449     0.32057
      H   19    0.09130      0.00000     0.40728    0.00142     0.40870
      H   20    0.09976      0.00000     0.39881    0.00143     0.40024
      H   21    0.09954      0.00000     0.39900    0.00147     0.40046
      H   22    0.09918      0.00000     0.39890    0.00192     0.40082
      H   23    0.09784      0.00000     0.40067    0.00149     0.40216
      H   24    0.09848      0.00000     0.40050    0.00102     0.40152
      H   25    0.10093      0.00000     0.39770    0.00137     0.39907
      H   26    0.09934      0.00000     0.39965    0.00102     0.40066
      H   27    0.10097      0.00000     0.39773    0.00130     0.39903
      H   28    0.10065      0.00000     0.39838    0.00097     0.39935
      H   29    0.09949      0.00000     0.39954    0.00096     0.40051
      H   30    0.23730      0.00000     0.25940    0.00330     0.26270
 =======================================================================
   * Total *    0.00000     10.99606    32.86392    0.14002    44.00000

 Normal termination of Gaussian 16 at Tue Dec  8 22:06:42 2020.
