 Gaussian 16, Revision A.03,

 -----------------------------------------------------------
 # opt freq B3LYP/6-31G(d) empiricaldispersion=gd3bj scf=xqc
 -----------------------------------------------------------

 ------------------------------
 CID_53430427_JID_2903_neutraal
 ------------------------------
 Symbolic Z-matrix:
 Charge =  0 Multiplicity = 1

 SCF Done:  E(RB3LYP) =  -552.381050321     A.U. after   15 cycles
 SCF Done:  E(RB3LYP) =  -552.382750826     A.U. after   12 cycles
 SCF Done:  E(RB3LYP) =  -552.382090430     A.U. after   12 cycles
 SCF Done:  E(RB3LYP) =  -552.382944302     A.U. after   12 cycles
 SCF Done:  E(RB3LYP) =  -552.382972448     A.U. after   11 cycles
 SCF Done:  E(RB3LYP) =  -552.382983673     A.U. after   10 cycles
 SCF Done:  E(RB3LYP) =  -552.382993355     A.U. after   11 cycles
 SCF Done:  E(RB3LYP) =  -552.382994890     A.U. after    8 cycles
 SCF Done:  E(RB3LYP) =  -552.382995494     A.U. after    8 cycles
 Optimization completed.
    -- Stationary point found.
 Normal termination of Gaussian 16 at Wed Dec  9 17:55:40 2020.

 --------------------------------------------------------------------
 #N Geom=AllCheck Guess=TCheck SCRF=Check GenChk RB3LYP/6-31G(d) Freq
 --------------------------------------------------------------------

 Structure from the checkpoint file:  "JID_2903.chk"
 ------------------------------
 CID_53430427_JID_2903_neutraal
 ------------------------------
 Charge =  0 Multiplicity = 1

 SCF Done:  E(RB3LYP) =  -552.382995494     A.U. after    1 cycles

  Exact polarizability: 166.747   2.597 106.371   0.002  -0.007  43.857
 Approx polarizability: 259.777   7.682 178.712   0.012  -0.009  67.617

                      1                      2                      3
                      A                      A                      A
 Frequencies --     42.1912                78.9664               130.3418
 Red. masses --      7.7544                 7.4926                 9.1990
 Frc consts  --      0.0081                 0.0275                 0.0921
 IR Inten    --      0.9699                 1.9450                 3.5986

                      4                      5                      6
                      A                      A                      A
 Frequencies --    170.4728               203.2872               237.4149
 Red. masses --      3.6941                 1.1301                 3.8208
 Frc consts  --      0.0633                 0.0275                 0.1269
 IR Inten    --      0.0570                 0.9098                 3.0304

                      7                      8                      9
                      A                      A                      A
 Frequencies --    240.0102               333.8808               353.3953
 Red. masses --      6.1979                 7.2322                 4.0956
 Frc consts  --      0.2104                 0.4750                 0.3014
 IR Inten    --      1.0103                 1.9240                 0.1558

                     10                     11                     12
                      A                      A                      A
 Frequencies --    366.2224               448.8519               454.0614
 Red. masses --      6.8887                 9.1890                 2.9957
 Frc consts  --      0.5443                 1.0907                 0.3639
 IR Inten    --      1.0553                 6.4400                 6.6065

                     13                     14                     15
                      A                      A                      A
 Frequencies --    532.1486               564.7519               575.2643
 Red. masses --      5.3930                 4.9385                 2.3548
 Frc consts  --      0.8998                 0.9280                 0.4591
 IR Inten    --      1.7010                25.9413                22.1169

                     16                     17                     18
                      A                      A                      A
 Frequencies --    595.3614               620.0652               710.1484
 Red. masses --      5.7088                 1.5618                 3.0881
 Frc consts  --      1.1922                 0.3538                 0.9176
 IR Inten    --      7.2137                47.0343                41.7638

                     19                     20                     21
                      A                      A                      A
 Frequencies --    716.6503               752.5193               785.4156
 Red. masses --      5.0604                 4.7142                 4.2574
 Frc consts  --      1.5313                 1.5729                 1.5474
 IR Inten    --     25.9954                15.5660                36.8291

                     22                     23                     24
                      A                      A                      A
 Frequencies --    858.5151               903.6037               966.1305
 Red. masses --      1.5374                 1.4041                 4.4447
 Frc consts  --      0.6676                 0.6755                 2.4444
 IR Inten    --      8.1321                14.6596                 8.1042

                     25                     26                     27
                      A                      A                      A
 Frequencies --    978.8135              1042.4831              1075.2060
 Red. masses --      1.3197                 1.5124                 1.5360
 Frc consts  --      0.7450                 0.9684                 1.0462
 IR Inten    --      0.0207                 1.5005                 4.5092

                     28                     29                     30
                      A                      A                      A
 Frequencies --   1092.6083              1171.6659              1198.0887
 Red. masses --      5.3835                 1.6620                 1.6316
 Frc consts  --      3.7865                 1.3443                 1.3799
 IR Inten    --     93.4601               116.3649                11.0934

                     31                     32                     33
                      A                      A                      A
 Frequencies --   1214.8723              1266.8990              1319.5894
 Red. masses --      1.8294                 4.2923                 1.4864
 Frc consts  --      1.5908                 4.0590                 1.5250
 IR Inten    --    235.8630                 4.9439                 8.7010

                     34                     35                     36
                      A                      A                      A
 Frequencies --   1353.1407              1391.7716              1443.8115
 Red. masses --      5.8888                 2.8512                 1.7101
 Frc consts  --      6.3528                 3.2540                 2.1004
 IR Inten    --      5.8674               119.8775                 3.4695

                     37                     38                     39
                      A                      A                      A
 Frequencies --   1452.5009              1506.0155              1513.3368
 Red. masses --      1.7053                 1.0447                 1.2408
 Frc consts  --      2.1197                 1.3961                 1.6743
 IR Inten    --      1.3187                 6.2552                29.8779

                     40                     41                     42
                      A                      A                      A
 Frequencies --   1542.2242              1616.4083              1665.1822
 Red. masses --      2.4457                 7.4182                 5.8365
 Frc consts  --      3.4273                11.4196                 9.5351
 IR Inten    --      5.8178                33.4617                62.2231

                     43                     44                     45
                      A                      A                      A
 Frequencies --   1814.9587              2208.3825              3070.4043
 Red. masses --      9.5176                13.0092                 1.0359
 Frc consts  --     18.4719                37.3809                 5.7539
 IR Inten    --    316.9159               238.5745                14.0855

                     46                     47                     48
                      A                      A                      A
 Frequencies --   3138.9352              3144.0448              3219.0863
 Red. masses --      1.0999                 1.1040                 1.0915
 Frc consts  --      6.3851                 6.4301                 6.6643
 IR Inten    --      5.4979                17.5294                 3.2060

                     49                     50                     51
                      A                      A                      A
 Frequencies --   3228.6901              3249.6368              3702.8302
 Red. masses --      1.0905                 1.0935                 1.0643
 Frc consts  --      6.6980                 6.8033                 8.5974
 IR Inten    --      1.4400                 0.7120                87.8243

 - Thermochemistry -
 -------------------
 Temperature   298.150 Kelvin.  Pressure   1.00000 Atm.
 Atom     1 has atomic number  6 and mass  12.00000

 Molecular mass:   161.04768 amu.
 Principal axes and moments of inertia in atomic units:
                           1         2         3
     Eigenvalues --   818.839353105.800963913.67261
           X            1.00000   0.00304  -0.00000
           Y           -0.00304   1.00000  -0.00002
           Z            0.00000   0.00002   1.00000
 This molecule is an asymmetric top.
 Rotational symmetry number  1.
 Warning -- assumption of classical behavior for rotation
           may cause significant error
 Rotational temperatures (Kelvin)      0.10578     0.02789     0.02213
 Rotational constants (GHZ):           2.20402     0.58109     0.46114
 Zero-point vibrational energy     372405.0 (Joules/Mol)
                                   89.00694 (Kcal/Mol)
 Warning -- explicit consideration of  17 degrees of freedom as
           vibrations may cause significant error
 Vibrational temperatures:     60.70   113.62   187.53   245.27   292.48
          (Kelvin)            341.59   345.32   480.38   508.46   526.91
                              645.80   653.29   765.64   812.55   827.68
                              856.59   892.14  1021.75  1031.10  1082.71
                             1130.04  1235.21  1300.08  1390.05  1408.29
                             1499.90  1546.98  1572.02  1685.77  1723.78
                             1747.93  1822.79  1898.59  1946.87  2002.45
                             2077.32  2089.82  2166.82  2177.35  2218.92
                             2325.65  2395.83  2611.32  3177.37  4417.63
                             4516.23  4523.58  4631.55  4645.36  4675.50
                             5327.55

 Zero-point correction=                           0.141842 (Hartree/Particle)
 Thermal correction to Energy=                    0.152420
 Thermal correction to Enthalpy=                  0.153364
 Thermal correction to Gibbs Free Energy=         0.105092
 Sum of electronic and zero-point Energies=           -552.241154
 Sum of electronic and thermal Energies=              -552.230576
 Sum of electronic and thermal Enthalpies=            -552.229632
 Sum of electronic and thermal Free Energies=         -552.277903

                     E (Thermal)             CV                S
                      KCal/Mol        Cal/Mol-Kelvin    Cal/Mol-Kelvin
 Total                   95.645             39.420            101.596
 Electronic               0.000              0.000              0.000
 Translational            0.889              2.981             41.138
 Rotational               0.889              2.981             30.677
 Vibrational             93.867             33.458             29.781
 Vibration     1          0.595              1.980              5.153
 Vibration     2          0.600              1.963              3.916
 Vibration     3          0.612              1.923              2.941
 Vibration     4          0.626              1.879              2.430
 Vibration     5          0.639              1.835              2.103
 Vibration     6          0.656              1.783              1.822
 Vibration     7          0.657              1.779              1.803
 Vibration     8          0.715              1.608              1.241
 Vibration     9          0.730              1.568              1.151
 Vibration    10          0.739              1.542              1.096
 Vibration    11          0.808              1.363              0.799
 Vibration    12          0.813              1.352              0.784
 Vibration    13          0.887              1.179              0.582
 Vibration    14          0.921              1.108              0.514
 Vibration    15          0.932              1.085              0.494
 Vibration    16          0.953              1.042              0.458
 Vibration    17          0.980              0.990              0.416

 Optimization completed.
    -- Stationary point found.
 Normal termination of Gaussian 16 at Wed Dec  9 17:59:38 2020.

 ----------------------------------------------------------------------
 # B3LYP/6-311++G(d,p) empiricaldispersion=gd3bj scf=xqc pop=npa geom=c
 heck
 ----------------------------------------------------------------------

 --------------------------------------
 CID_53430427_JID_2903_Energie_neutraal
 --------------------------------------
 Structure from the checkpoint file:  "JID_2903.chk"
 Charge =  0 Multiplicity = 1

 SCF Done:  E(RB3LYP) =  -552.540642181     A.U. after   15 cycles
 Normal termination of Gaussian 16 at Wed Dec  9 18:01:50 2020.

 ----------------------------------------------------------------------
 # B3LYP/6-311++G(d,p) empiricaldispersion=gd3bj scf=xqc pop=npa geom=c
 heck
 ----------------------------------------------------------------------

 ------------------------------------
 CID_53430427_JID_2903_Energie_kation
 ------------------------------------
 Structure from the checkpoint file:  "JID_2903.chk"
 Charge =  1 Multiplicity = 2

 SCF Done:  E(UB3LYP) =  -552.194197312     A.U. after   25 cycles
 Normal termination of Gaussian 16 at Wed Dec  9 18:06:57 2020.
 Gaussian 16:  ES64L-G16RevA.03 25-Dec-2016

 ----------------------------------------------------------------------
 # B3LYP/6-311++G(d,p) empiricaldispersion=gd3bj scf=xqc pop=npa geom=c
 heck
 ----------------------------------------------------------------------

 -----------------------------------
 CID_53430427_JID_2903_Energie_anion
 -----------------------------------
 Structure from the checkpoint file:  "JID_2903.chk"
 Charge = -1 Multiplicity = 2

                         Standard orientation:
 ---------------------------------------------------------------------
 Center     Atomic      Atomic             Coordinates (Angstroms)
 Number     Number       Type             X           Y           Z
 ---------------------------------------------------------------------
      1          6           0        0.900045    2.347220   -0.000089
      2          6           0        0.180386    1.022196   -0.000038
      3          6           0        0.840440   -0.230495    0.000195
      4          6           0        0.094437   -1.420388    0.000517
      5          6           0       -1.291910   -1.404016    0.000455
      6          6           0       -1.945597   -0.167768    0.000024
      7          6           0       -1.216209    1.024522   -0.000179
      8          7           0       -3.326575   -0.120590   -0.000131
      9          6           0       -4.507417   -0.080830   -0.000285
     10          6           0        2.324153   -0.309560    0.000068
     11          8           0        3.092700    0.632506    0.000657
     12          8           0        2.781146   -1.590449   -0.001000
     13          1           0        1.551677    2.447308    0.872088
     14          1           0        0.176293    3.167300    0.000756
     15          1           0        1.549944    2.448026   -0.873580
     16          1           0        0.619099   -2.367445    0.000794
     17          1           0       -1.869422   -2.321290    0.000763
     18          1           0       -1.755406    1.965635   -0.000370
     19          1           0        3.753089   -1.517150   -0.000802
 ---------------------------------------------------------------------

 SCF Done:  E(UB3LYP) =  -552.570248282     A.U. after   21 cycles

 The electronic state is 2-A.
 Alpha  occ. eigenvalues --  -19.02766 -18.95344 -14.20678 -10.14087 -10.07163
 Alpha  occ. eigenvalues --  -10.05444 -10.04710 -10.03637 -10.03541 -10.03350
 Alpha  occ. eigenvalues --  -10.03251 -10.02819  -0.96478  -0.86957  -0.81664
 Alpha  occ. eigenvalues --   -0.72153  -0.64627  -0.63024  -0.56248  -0.54299
 Alpha  occ. eigenvalues --   -0.47789  -0.46205  -0.40764  -0.37775  -0.34900
 Alpha  occ. eigenvalues --   -0.33541  -0.31507  -0.30610  -0.28576  -0.28281
 Alpha  occ. eigenvalues --   -0.27469  -0.27285  -0.25632  -0.24105  -0.22440
 Alpha  occ. eigenvalues --   -0.20478  -0.19378  -0.18854  -0.17342  -0.13367
 Alpha  occ. eigenvalues --   -0.12152  -0.11436   0.03174
 Alpha virt. eigenvalues --    0.08899   0.09861   0.10627   0.11898   0.12164
 Alpha virt. eigenvalues --    0.13147   0.13328   0.13803   0.14027   0.15087
 Alpha virt. eigenvalues --    0.16180   0.16865   0.17550   0.17882   0.18141

  Beta  occ. eigenvalues --  -19.02713 -18.95028 -14.20810 -10.13883 -10.06739
  Beta  occ. eigenvalues --  -10.05128 -10.04595 -10.03663 -10.03552 -10.03346
  Beta  occ. eigenvalues --  -10.03129 -10.02595  -0.96211  -0.86504  -0.81435
  Beta  occ. eigenvalues --   -0.71782  -0.64178  -0.62532  -0.55992  -0.53770
  Beta  occ. eigenvalues --   -0.47604  -0.45994  -0.40478  -0.37504  -0.34619
  Beta  occ. eigenvalues --   -0.33376  -0.30451  -0.30394  -0.28195  -0.28051
  Beta  occ. eigenvalues --   -0.27374  -0.26472  -0.25475  -0.23862  -0.22362
  Beta  occ. eigenvalues --   -0.19667  -0.19313  -0.17631  -0.16607  -0.13053
  Beta  occ. eigenvalues --   -0.11158  -0.09605
  Beta virt. eigenvalues --    0.08893   0.09010   0.09840   0.10589   0.12137
  Beta virt. eigenvalues --    0.12143   0.13289   0.13798   0.13920   0.14636
  Beta virt. eigenvalues --    0.15159   0.16171   0.16904   0.17555   0.18124

 Mulliken charges and spin densities:
               1          2
     1  C   -0.616101  -0.007565
     2  C    0.428809   0.106867
     3  C    0.449228   0.107865
     4  C   -0.609018   0.142534
     5  C    0.083469  -0.005140
     6  C   -0.480455   0.228091
     7  C   -0.519792   0.017737
     8  N    0.198743  -0.089531
     9  C   -0.447975   0.263442
    10  C    0.023201   0.118686
    11  O   -0.406198   0.104576
    12  O   -0.230868   0.012732
    13  H    0.160214   0.005051
    14  H    0.102281  -0.000045
    15  H    0.160122   0.005072
    16  H    0.171927  -0.006356
    17  H    0.145621  -0.000527
    18  H    0.125195  -0.002388
    19  H    0.261597  -0.001100
 Sum of Mulliken charges =  -1.00000   1.00000

 Dipole moment (field-independent basis, Debye):
    X=              4.9331    Y=             -0.4398    Z=             -0.0002  Tot=              4.9527
 Quadrupole moment (field-independent basis, Debye-Ang):
   XX=           -132.7489   YY=            -76.9545   ZZ=            -76.7238
   XY=             -5.7618   XZ=             -0.0059   YZ=             -0.0041

 Summary of Natural Population Analysis:

                                       Natural Population
                Natural  -----------------------------------------------
    Atom  No    Charge         Core      Valence    Rydberg      Total
 -----------------------------------------------------------------------
      C    1   -0.29201      0.99964     2.28764    0.00473     3.29201
      C    2    0.03115      0.99951     1.96125    0.00808     2.96885
      C    3   -0.04937      0.99942     2.04063    0.00932     3.04937
      C    4   -0.05674      0.99956     2.04852    0.00867     3.05674
      C    5   -0.11632      0.99954     2.10881    0.00797     3.11632
      C    6    0.12259      0.99942     1.86619    0.01180     2.87741
      C    7   -0.10673      0.99950     2.09983    0.00740     3.10673
      N    8   -0.27023      0.99960     2.75900    0.01163     3.77023
      C    9    0.14710      0.99975     1.83926    0.01389     2.85290
      C   10    0.42025      0.99967     1.55639    0.02369     2.57975
      O   11   -0.30242      0.99987     3.29557    0.00698     4.30242
      O   12   -0.35663      0.99988     3.34931    0.00744     4.35663
      H   13    0.10840      0.00000     0.39057    0.00104     0.39160
      H   14    0.08861      0.00000     0.41029    0.00110     0.41139
      H   15    0.10833      0.00000     0.39063    0.00104     0.39167
      H   16    0.10235      0.00000     0.39663    0.00103     0.39765
      H   17    0.09764      0.00000     0.40139    0.00097     0.40236
      H   18    0.09569      0.00000     0.40328    0.00103     0.40431
      H   19    0.22834      0.00000     0.26650    0.00516     0.27166
 =======================================================================
   * Total *   -0.00000     11.99536    29.87168    0.13297    42.00000

 Normal termination of Gaussian 16 at Wed Dec  9 18:10:35 2020.
