 Gaussian 16, Revision A.03,

 -----------------------------------------------------------
 # opt freq B3LYP/6-31G(d) empiricaldispersion=gd3bj scf=xqc
 -----------------------------------------------------------

 ------------------------------
 CID_141084930_JID_576_neutraal
 ------------------------------
 Symbolic Z-matrix:
 Charge =  0 Multiplicity = 1

 SCF Done:  E(RB3LYP) =  -814.869071424     A.U. after   14 cycles
 SCF Done:  E(RB3LYP) =  -814.879246364     A.U. after   12 cycles
 SCF Done:  E(RB3LYP) =  -814.882974003     A.U. after   12 cycles
 SCF Done:  E(RB3LYP) =  -814.885359671     A.U. after   13 cycles
 SCF Done:  E(RB3LYP) =  -814.886992810     A.U. after   14 cycles
 SCF Done:  E(RB3LYP) =  -814.887901560     A.U. after   12 cycles
 SCF Done:  E(RB3LYP) =  -814.888179083     A.U. after   12 cycles
 SCF Done:  E(RB3LYP) =  -814.888267767     A.U. after   11 cycles
 SCF Done:  E(RB3LYP) =  -814.888286331     A.U. after    9 cycles
 SCF Done:  E(RB3LYP) =  -814.888290316     A.U. after    9 cycles
 SCF Done:  E(RB3LYP) =  -814.888291503     A.U. after    8 cycles
 SCF Done:  E(RB3LYP) =  -814.888291931     A.U. after    8 cycles
 SCF Done:  E(RB3LYP) =  -814.888292181     A.U. after    7 cycles
 SCF Done:  E(RB3LYP) =  -814.888292221     A.U. after    7 cycles
 Optimization completed.
    -- Stationary point found.
 Normal termination of Gaussian 16 at Tue Dec  8 12:22:15 2020.

 --------------------------------------------------------------------
 #N Geom=AllCheck Guess=TCheck SCRF=Check GenChk RB3LYP/6-31G(d) Freq
 --------------------------------------------------------------------

 Structure from the checkpoint file:  "JID_576.chk"
 ------------------------------
 CID_141084930_JID_576_neutraal
 ------------------------------
 Charge =  0 Multiplicity = 1

 SCF Done:  E(RB3LYP) =  -814.888292221     A.U. after    1 cycles

  Exact polarizability: 119.351   2.447  92.985   0.254   5.956  76.617
 Approx polarizability: 157.262   7.434 148.389   1.990  23.873 120.904

                      1                      2                      3
                      A                      A                      A
 Frequencies --     46.4142                79.2373               110.6530
 Red. masses --      3.9550                 2.8621                 3.0242
 Frc consts  --      0.0050                 0.0106                 0.0218
 IR Inten    --      1.6384                 0.7739                 1.4158

                      4                      5                      6
                      A                      A                      A
 Frequencies --    153.3451               175.3807               203.5502
 Red. masses --      1.9719                 1.3041                 2.1974
 Frc consts  --      0.0273                 0.0236                 0.0536
 IR Inten    --      2.6108                 0.6286                 4.1480

                      7                      8                      9
                      A                      A                      A
 Frequencies --    217.8333               242.1944               249.9516
 Red. masses --      3.0219                 2.1160                 1.0871
 Frc consts  --      0.0845                 0.0731                 0.0400
 IR Inten    --      8.3558                 1.9219                 0.2964

                     10                     11                     12
                      A                      A                      A
 Frequencies --    279.3305               336.4012               381.7362
 Red. masses --      1.7134                 3.0333                 3.3049
 Frc consts  --      0.0788                 0.2022                 0.2837
 IR Inten    --      2.8723                 5.3357                 7.8305

                     13                     14                     15
                      A                      A                      A
 Frequencies --    447.2210               481.6623               510.1728
 Red. masses --      3.5975                 7.4798                 3.2753
 Frc consts  --      0.4239                 1.0224                 0.5023
 IR Inten    --      3.5357                 4.0276                19.1542

                     16                     17                     18
                      A                      A                      A
 Frequencies --    654.3493               662.0410               736.8785
 Red. masses --      4.8986                 6.8721                 4.6715
 Frc consts  --      1.2358                 1.7746                 1.4945
 IR Inten    --      3.9152                 1.1458                15.9857

                     19                     20                     21
                      A                      A                      A
 Frequencies --    777.2007               778.7182               866.2038
 Red. masses --      1.3674                 3.8674                 4.2826
 Frc consts  --      0.4866                 1.3817                 1.8932
 IR Inten    --      9.9518                 4.8107                19.1371

                     22                     23                     24
                      A                      A                      A
 Frequencies --    878.8155               906.9900               990.7329
 Red. masses --      6.0201                 5.2423                 1.9448
 Frc consts  --      2.7394                 2.5408                 1.1247
 IR Inten    --     20.1568                20.4528                 9.4531

                     25                     26                     27
                      A                      A                      A
 Frequencies --   1070.5411              1084.1098              1093.8732
 Red. masses --      2.2288                 1.3951                 1.8315
 Frc consts  --      1.5050                 0.9661                 1.2912
 IR Inten    --     24.4788                 1.1934                15.3479

                     28                     29                     30
                      A                      A                      A
 Frequencies --   1123.8441              1149.3461              1168.3256
 Red. masses --      2.7107                 2.7823                 1.5636
 Frc consts  --      2.0172                 2.1655                 1.2575
 IR Inten    --     77.4649                22.0268                19.3241

                     31                     32                     33
                      A                      A                      A
 Frequencies --   1176.5263              1186.3324              1215.0777
 Red. masses --      2.1250                 1.6300                 2.0015
 Frc consts  --      1.7331                 1.3516                 1.7410
 IR Inten    --      6.8278                 3.0838                30.2366

                     34                     35                     36
                      A                      A                      A
 Frequencies --   1273.2104              1299.9754              1325.9163
 Red. masses --      3.2675                 1.1843                 1.2819
 Frc consts  --      3.1208                 1.1792                 1.3278
 IR Inten    --     65.1528                 1.6587                22.9729

                     37                     38                     39
                      A                      A                      A
 Frequencies --   1422.4615              1435.7763              1461.4667
 Red. masses --      1.1620                 1.2215                 1.1782
 Frc consts  --      1.3852                 1.4836                 1.4826
 IR Inten    --     13.4123                 7.6556                 0.3483

                     40                     41                     42
                      A                      A                      A
 Frequencies --   1469.6260              1487.7234              1511.8201
 Red. masses --      1.1637                 1.0947                 1.0517
 Frc consts  --      1.4808                 1.4275                 1.4163
 IR Inten    --      0.3177                 6.3521                13.2243

                     43                     44                     45
                      A                      A                      A
 Frequencies --   1514.0840              1517.8351              1519.8285
 Red. masses --      1.0520                 1.0399                 1.0438
 Frc consts  --      1.4208                 1.4116                 1.4205
 IR Inten    --     14.0566                 6.4606                 4.3167

                     46                     47                     48
                      A                      A                      A
 Frequencies --   1531.8420              1539.3266              1625.9034
 Red. masses --      1.0519                 1.0450                 8.9055
 Frc consts  --      1.4543                 1.4590                13.8708
 IR Inten    --      9.1544                 4.6874                63.6276

                     49                     50                     51
                      A                      A                      A
 Frequencies --   3028.8874              3038.3119              3055.9510
 Red. masses --      1.0491                 1.0438                 1.0397
 Frc consts  --      5.6708                 5.6774                 5.7209
 IR Inten    --     51.6670                30.1259                32.4529

                     52                     53                     54
                      A                      A                      A
 Frequencies --   3083.1744              3120.7328              3128.9124
 Red. masses --      1.0609                 1.1004                 1.0906
 Frc consts  --      5.9418                 6.3140                 6.2905
 IR Inten    --     16.1778                18.3610                24.5966

                     55                     56                     57
                      A                      A                      A
 Frequencies --   3131.1834              3141.5167              3165.0975
 Red. masses --      1.0853                 1.1023                 1.1031
 Frc consts  --      6.2694                 6.4097                 6.5109
 IR Inten    --     18.1806                 5.6726                10.6115

                     58                     59                     60
                      A                      A                      A
 Frequencies --   3166.5406              3171.0727              3409.7463
 Red. masses --      1.1057                 1.1055                 1.0763
 Frc consts  --      6.5320                 6.5497                 7.3727
 IR Inten    --     13.7849                14.5183                 3.9475

 - Thermochemistry -
 -------------------
 Temperature   298.150 Kelvin.  Pressure   1.00000 Atm.
 Atom     1 has atomic number  6 and mass  12.00000

 Molecular mass:   160.07827 amu.
 Principal axes and moments of inertia in atomic units:
                           1         2         3
     Eigenvalues --   904.911572300.894612748.30803
           X            0.99948  -0.03062  -0.00985
           Y            0.02996   0.99766  -0.06145
           Z            0.01171   0.06113   0.99806
 This molecule is an asymmetric top.
 Rotational symmetry number  1.
 Warning -- assumption of classical behavior for rotation
           may cause significant error
 Rotational temperatures (Kelvin)      0.09572     0.03764     0.03152
 Rotational constants (GHZ):           1.99438     0.78437     0.65667
 Zero-point vibrational energy     484564.8 (Joules/Mol)
                                  115.81377 (Kcal/Mol)
 Warning -- explicit consideration of  15 degrees of freedom as
           vibrations may cause significant error
 Vibrational temperatures:     66.78   114.00   159.21   220.63   252.33
          (Kelvin)            292.86   313.41   348.46   359.62   401.89
                              484.01   549.23   643.45   693.00   734.02
                              941.46   952.53  1060.20  1118.22  1120.40
                             1246.27  1264.42  1304.96  1425.44  1540.27
                             1559.79  1573.84  1616.96  1653.65  1680.96
                             1692.76  1706.87  1748.23  1831.87  1870.37
                             1907.70  2046.60  2065.76  2102.72  2114.46
                             2140.50  2175.17  2178.43  2183.83  2186.69
                             2203.98  2214.75  2339.31  4357.89  4371.45
                             4396.83  4436.00  4490.04  4501.81  4505.07
                             4519.94  4553.87  4555.95  4562.47  4905.86

 Zero-point correction=                           0.184561 (Hartree/Particle)
 Thermal correction to Energy=                    0.195936
 Thermal correction to Enthalpy=                  0.196880
 Thermal correction to Gibbs Free Energy=         0.147175
 Sum of electronic and zero-point Energies=           -814.703731
 Sum of electronic and thermal Energies=              -814.692357
 Sum of electronic and thermal Enthalpies=            -814.691412
 Sum of electronic and thermal Free Energies=         -814.741118

                     E (Thermal)             CV                S
                      KCal/Mol        Cal/Mol-Kelvin    Cal/Mol-Kelvin
 Total                  122.951             41.018            104.614
 Electronic               0.000              0.000              0.000
 Translational            0.889              2.981             41.120
 Rotational               0.889              2.981             30.127
 Vibrational            121.174             35.056             33.366
 Vibration     1          0.595              1.979              4.965
 Vibration     2          0.600              1.963              3.910
 Vibration     3          0.606              1.941              3.257
 Vibration     4          0.619              1.899              2.630
 Vibration     5          0.627              1.873              2.377
 Vibration     6          0.639              1.835              2.101
 Vibration     7          0.646              1.814              1.977
 Vibration     8          0.658              1.776              1.787
 Vibration     9          0.663              1.763              1.731
 Vibration    10          0.680              1.712              1.538
 Vibration    11          0.717              1.603              1.229
 Vibration    12          0.751              1.509              1.032
 Vibration    13          0.806              1.367              0.804
 Vibration    14          0.838              1.291              0.706
 Vibration    15          0.865              1.227              0.633

 Optimization completed.
    -- Stationary point found.
 Normal termination of Gaussian 16 at Tue Dec  8 12:27:49 2020.

 ----------------------------------------------------------------------
 # B3LYP/6-311++G(d,p) empiricaldispersion=gd3bj scf=xqc pop=npa geom=c
 heck
 ----------------------------------------------------------------------

 --------------------------------------
 CID_141084930_JID_576_Energie_neutraal
 --------------------------------------
 Structure from the checkpoint file:  "JID_576.chk"
 Charge =  0 Multiplicity = 1

 SCF Done:  E(RB3LYP) =  -815.033984308     A.U. after   14 cycles
 Normal termination of Gaussian 16 at Tue Dec  8 12:39:31 2020.

 ----------------------------------------------------------------------
 # B3LYP/6-311++G(d,p) empiricaldispersion=gd3bj scf=xqc pop=npa geom=c
 heck
 ----------------------------------------------------------------------

 ------------------------------------
 CID_141084930_JID_576_Energie_kation
 ------------------------------------
 Structure from the checkpoint file:  "JID_576.chk"
 Charge =  1 Multiplicity = 2

 SCF Done:  E(UB3LYP) =  -814.743860640     A.U. after   21 cycles
 Normal termination of Gaussian 16 at Tue Dec  8 12:49:57 2020.
 Gaussian 16:  ES64L-G16RevA.03 25-Dec-2016

 ----------------------------------------------------------------------
 # B3LYP/6-311++G(d,p) empiricaldispersion=gd3bj scf=xqc pop=npa geom=c
 heck
 ----------------------------------------------------------------------

 -----------------------------------
 CID_141084930_JID_576_Energie_anion
 -----------------------------------
 Structure from the checkpoint file:  "JID_576.chk"
 Charge = -1 Multiplicity = 2

                         Standard orientation:
 ---------------------------------------------------------------------
 Center     Atomic      Atomic             Coordinates (Angstroms)
 Number     Number       Type             X           Y           Z
 ---------------------------------------------------------------------
      1          6           0        3.094633   -1.236568    0.262017
      2          6           0        2.743555    0.096893   -0.389025
      3         16           0        1.417398    1.022227    0.493281
      4          6           0        0.000186    0.150628   -0.065448
      5          7           0        0.000294   -0.962859   -0.705994
      6          7           0       -1.388081   -1.294798   -0.929142
      7          7           0       -2.180049   -0.380254   -0.121870
      8          7           0       -1.275720    0.693982    0.230965
      9          6           0       -1.604795    1.954544   -0.450418
     10          6           0       -2.532481   -1.089918    1.114943
     11          1           0        3.416338   -1.097586    1.298792
     12          1           0        3.912869   -1.712802   -0.291855
     13          1           0        2.230941   -1.904514    0.243874
     14          1           0        3.594644    0.785164   -0.387088
     15          1           0        2.410866   -0.037608   -1.420933
     16          1           0       -1.568862   -1.080850   -1.914064
     17          1           0       -0.875054    2.711980   -0.156439
     18          1           0       -1.599443    1.855950   -1.545137
     19          1           0       -2.597033    2.269667   -0.123661
     20          1           0       -1.650250   -1.473046    1.645836
     21          1           0       -3.071632   -0.393383    1.761230
     22          1           0       -3.183456   -1.924574    0.846827
 ---------------------------------------------------------------------

 SCF Done:  E(UB3LYP) =  -815.017369509     A.U. after   30 cycles

 The electronic state is 2-A.
 Alpha  occ. eigenvalues --  -88.75809 -14.26716 -14.25761 -14.25482 -14.22006
 Alpha  occ. eigenvalues --  -10.15356 -10.09969 -10.09158 -10.08945 -10.05808
 Alpha  occ. eigenvalues --   -7.84432  -5.80827  -5.80408  -5.79848  -0.96905
 Alpha  occ. eigenvalues --   -0.81885  -0.78605  -0.70326  -0.66081  -0.61558
 Alpha  occ. eigenvalues --   -0.59100  -0.53517  -0.51169  -0.46408  -0.42521
 Alpha  occ. eigenvalues --   -0.38678  -0.37378  -0.35859  -0.34624  -0.33021
 Alpha  occ. eigenvalues --   -0.31423  -0.31044  -0.29967  -0.28516  -0.27758
 Alpha  occ. eigenvalues --   -0.27030  -0.25210  -0.22730  -0.20673  -0.18902
 Alpha  occ. eigenvalues --   -0.17414  -0.14258  -0.11222   0.04814
 Alpha virt. eigenvalues --    0.06722   0.07836   0.08449   0.09049   0.09682
 Alpha virt. eigenvalues --    0.10284   0.10819   0.11177   0.11708   0.12098
 Alpha virt. eigenvalues --    0.12745   0.13610   0.14299   0.14342   0.15153

  Beta  occ. eigenvalues --  -88.75805 -14.26712 -14.25744 -14.25486 -14.21946
  Beta  occ. eigenvalues --  -10.15330 -10.09933 -10.09101 -10.08932 -10.05776
  Beta  occ. eigenvalues --   -7.84427  -5.80821  -5.80399  -5.79845  -0.96873
  Beta  occ. eigenvalues --   -0.81835  -0.78559  -0.70283  -0.66033  -0.61501
  Beta  occ. eigenvalues --   -0.59031  -0.53452  -0.51085  -0.46357  -0.42442
  Beta  occ. eigenvalues --   -0.38641  -0.37324  -0.35820  -0.34566  -0.32968
  Beta  occ. eigenvalues --   -0.31366  -0.31001  -0.29922  -0.28464  -0.27698
  Beta  occ. eigenvalues --   -0.26942  -0.25150  -0.22668  -0.20588  -0.18839
  Beta  occ. eigenvalues --   -0.17340  -0.14230  -0.11135
  Beta virt. eigenvalues --    0.07181   0.07857   0.08424   0.09174   0.09515
  Beta virt. eigenvalues --    0.10238   0.10678   0.11137   0.11518   0.12055
  Beta virt. eigenvalues --    0.12722   0.13122   0.13788   0.14437   0.14575

 Mulliken charges and spin densities:
               1          2
     1  C    0.396719  -0.982658
     2  C   -0.022615  -0.300861
     3  S    0.913826  -0.717192
     4  C   -1.069498   0.519258
     5  N   -0.365401   0.087380
     6  N    0.170072  -0.100118
     7  N    0.011436   0.037657
     8  N   -0.179446   0.220987
     9  C    1.558425  -1.824185
    10  C    0.122768  -0.444354
    11  H   -0.052808   0.166739
    12  H   -0.390137   0.519448
    13  H   -0.052658   0.220205
    14  H   -0.831203   1.039895
    15  H    0.108434   0.084433
    16  H   -0.006441   0.272084
    17  H   -0.241151   0.349252
    18  H   -0.635784   0.807642
    19  H   -0.443703   0.610253
    20  H    0.054607   0.099667
    21  H   -0.106763   0.246991
    22  H    0.061322   0.087477
 Sum of Mulliken charges =  -1.00000   1.00000

 Dipole moment (field-independent basis, Debye):
    X=             -2.1875    Y=             -2.3584    Z=              2.6590  Tot=              4.1734
 Quadrupole moment (field-independent basis, Debye-Ang):
   XX=           -137.4457   YY=           -107.1790   ZZ=            -98.9466
   XY=              7.6579   XZ=             -1.7557   YZ=              2.0526

 Summary of Natural Population Analysis:

                                       Natural Population
                Natural  -----------------------------------------------
    Atom  No    Charge         Core      Valence    Rydberg      Total
 -----------------------------------------------------------------------
      C    1   -0.29298      0.99965     2.28622    0.00711     3.29298
      C    2   -0.24459      0.99961     2.23387    0.01111     3.24459
      S    3    0.13735      4.99949     2.84346    0.01970     7.86265
      C    4    0.12453      0.99954     1.85460    0.02133     2.87547
      N    5   -0.18778      0.99961     2.67169    0.01648     3.68778
      N    6   -0.16331      0.99976     2.64861    0.01493     3.66331
      N    7   -0.10418      0.99976     2.58815    0.01627     3.60418
      N    8   -0.19616      0.99966     2.68073    0.01578     3.69616
      C    9   -0.17461      0.99962     2.16579    0.00920     3.17461
      C   10   -0.17569      0.99964     2.16783    0.00822     3.17569
      H   11    0.09755      0.00000     0.40111    0.00134     0.40245
      H   12    0.10078      0.00000     0.39767    0.00155     0.39922
      H   13    0.10948      0.00000     0.38890    0.00162     0.39052
      H   14    0.10719      0.00000     0.38964    0.00317     0.39281
      H   15    0.11044      0.00000     0.38742    0.00214     0.38956
      H   16    0.17610      0.00000     0.32116    0.00274     0.32390
      H   17    0.10108      0.00000     0.39743    0.00149     0.39892
      H   18    0.09160      0.00000     0.40475    0.00366     0.40840
      H   19    0.10133      0.00000     0.39610    0.00257     0.39867
      H   20    0.08897      0.00000     0.40933    0.00171     0.41103
      H   21    0.09656      0.00000     0.40189    0.00155     0.40344
      H   22    0.09635      0.00000     0.40234    0.00131     0.40365
 =======================================================================
   * Total *   -0.00000     13.99634    28.83868    0.16498    43.00000

 Normal termination of Gaussian 16 at Tue Dec  8 13:04:38 2020.
