 Gaussian 16, Revision A.03,

 -----------------------------------------------------------
 # opt freq B3LYP/6-31G(d) empiricaldispersion=gd3bj scf=xqc
 -----------------------------------------------------------

 -------------------------------
 CID_121600853_JID_1296_neutraal
 -------------------------------
 Symbolic Z-matrix:
 Charge =  0 Multiplicity = 1

 SCF Done:  E(RB3LYP) =  -850.512651739     A.U. after   16 cycles
 SCF Done:  E(RB3LYP) =  -850.537160816     A.U. after   13 cycles
 SCF Done:  E(RB3LYP) =  -850.539073264     A.U. after   14 cycles
 SCF Done:  E(RB3LYP) =  -850.528001585     A.U. after   16 cycles
 SCF Done:  E(RB3LYP) =  -850.539443401     A.U. after   12 cycles
 SCF Done:  E(RB3LYP) =  -850.538500249     A.U. after   15 cycles
 SCF Done:  E(RB3LYP) =  -850.539021790     A.U. after   13 cycles
 SCF Done:  E(RB3LYP) =  -850.539636993     A.U. after   10 cycles
 SCF Done:  E(RB3LYP) =  -850.539959622     A.U. after   13 cycles
 SCF Done:  E(RB3LYP) =  -850.540769244     A.U. after   14 cycles
 SCF Done:  E(RB3LYP) =  -850.546494602     A.U. after   11 cycles
 SCF Done:  E(RB3LYP) =  -850.546494324     A.U. after   11 cycles
 SCF Done:  E(RB3LYP) =  -850.546518832     A.U. after   11 cycles
 SCF Done:  E(RB3LYP) =  -850.546523429     A.U. after   11 cycles
 SCF Done:  E(RB3LYP) =  -850.546524001     A.U. after    9 cycles
 SCF Done:  E(RB3LYP) =  -850.546524180     A.U. after    8 cycles
 Optimization completed.
    -- Stationary point found.
 Normal termination of Gaussian 16 at Tue Dec  8 19:42:21 2020.

 --------------------------------------------------------------------
 #N Geom=AllCheck Guess=TCheck SCRF=Check GenChk RB3LYP/6-31G(d) Freq
 --------------------------------------------------------------------

 Structure from the checkpoint file:  "JID_1296.chk"
 -------------------------------
 CID_121600853_JID_1296_neutraal
 -------------------------------
 Charge =  0 Multiplicity = 1

 SCF Done:  E(RB3LYP) =  -850.546524180     A.U. after    1 cycles

  Exact polarizability: 107.312   2.957 109.279   8.626  10.702  68.102
 Approx polarizability: 166.435  -0.125 176.709  22.979  33.061 119.382

                      1                      2                      3
                      A                      A                      A
 Frequencies --     39.8335                77.6337                97.2752
 Red. masses --      6.1623                 4.6277                 4.4579
 Frc consts  --      0.0058                 0.0164                 0.0249
 IR Inten    --      0.2095                 0.8835                 1.9012

                      4                      5                      6
                      A                      A                      A
 Frequencies --    133.6814               150.8167               205.5906
 Red. masses --      4.4135                 3.7218                 3.4674
 Frc consts  --      0.0465                 0.0499                 0.0864
 IR Inten    --      0.4096                 2.4796                15.3868

                      7                      8                      9
                      A                      A                      A
 Frequencies --    249.7544               327.8800               350.6790
 Red. masses --      4.3219                 4.6567                 1.7033
 Frc consts  --      0.1588                 0.2950                 0.1234
 IR Inten    --      3.3984                 8.9917                22.5343

                     10                     11                     12
                      A                      A                      A
 Frequencies --    360.0664               436.8138               455.2368
 Red. masses --      1.8140                 6.4204                 4.6211
 Frc consts  --      0.1386                 0.7218                 0.5642
 IR Inten    --     33.9882                 2.8061                 2.8342

                     13                     14                     15
                      A                      A                      A
 Frequencies --    520.3869               570.8728               603.5269
 Red. masses --      9.5437                 3.9394                 1.2266
 Frc consts  --      1.5227                 0.7564                 0.2632
 IR Inten    --     28.2890                 3.9471                46.0942

                     16                     17                     18
                      A                      A                      A
 Frequencies --    621.2304               632.1721               702.9338
 Red. masses --      2.1693                 1.6519                10.1351
 Frc consts  --      0.4932                 0.3890                 2.9506
 IR Inten    --     21.0813                39.4369                 6.6377

                     19                     20                     21
                      A                      A                      A
 Frequencies --    722.1180               776.3192               818.0375
 Red. masses --      3.1860                 6.9390                10.0649
 Frc consts  --      0.9788                 2.4639                 3.9683
 IR Inten    --      8.4531                24.5019                21.3061

                     22                     23                     24
                      A                      A                      A
 Frequencies --    842.5093               890.8730               949.6948
 Red. masses --      2.0708                 1.4174                 2.7622
 Frc consts  --      0.8660                 0.6628                 1.4678
 IR Inten    --     66.8134                12.1652                 5.9581

                     25                     26                     27
                      A                      A                      A
 Frequencies --    969.9017               979.9398              1045.4732
 Red. masses --      2.3935                 2.7148                 2.7062
 Frc consts  --      1.3266                 1.5360                 1.7427
 IR Inten    --     72.8807                40.9423                19.1799

                     28                     29                     30
                      A                      A                      A
 Frequencies --   1069.6542              1125.6458              1188.9577
 Red. masses --      3.2802                 2.0979                 1.9232
 Frc consts  --      2.2113                 1.5662                 1.6018
 IR Inten    --     11.5295                10.4169                18.0136

                     31                     32                     33
                      A                      A                      A
 Frequencies --   1217.5686              1227.4973              1297.7316
 Red. masses --      1.3352                 1.7336                 1.2438
 Frc consts  --      1.1662                 1.5390                 1.2342
 IR Inten    --      5.8271                10.1240                 2.6932

                     34                     35                     36
                      A                      A                      A
 Frequencies --   1326.5086              1348.1911              1362.9122
 Red. masses --      1.4487                 1.4108                 1.4066
 Frc consts  --      1.5019                 1.5109                 1.5394
 IR Inten    --     18.0656                11.7062                 7.5407

                     37                     38                     39
                      A                      A                      A
 Frequencies --   1394.0728              1416.9396              1503.0261
 Red. masses --      4.8913                 2.3921                 1.0923
 Frc consts  --      5.6007                 2.8296                 1.4539
 IR Inten    --      4.8354                 2.6388                 4.0823

                     40                     41                     42
                      A                      A                      A
 Frequencies --   1535.0193              1558.1335              1698.4707
 Red. masses --      1.1579                 6.2730                 1.0829
 Frc consts  --      1.6074                 8.9730                 1.8406
 IR Inten    --      5.0625                 2.0119                20.6294

                     43                     44                     45
                      A                      A                      A
 Frequencies --   2243.8796              3038.8710              3088.4231
 Red. masses --      5.9760                 1.0635                 1.0944
 Frc consts  --     17.7281                 5.7864                 6.1504
 IR Inten    --      1.2897                11.7592                 4.1317

                     46                     47                     48
                      A                      A                      A
 Frequencies --   3104.5350              3245.9101              3404.2789
 Red. masses --      1.0883                 1.0940                 1.0718
 Frc consts  --      6.1800                 6.7911                 7.3187
 IR Inten    --     11.1391                 1.1305                 8.9309

                     49                     50                     51
                      A                      A                      A
 Frequencies --   3426.3384              3494.9953              3552.5260
 Red. masses --      1.0539                 1.1604                 1.0903
 Frc consts  --      7.2897                 8.3511                 8.1070
 IR Inten    --      4.8858                60.6794                 0.0949

 - Thermochemistry -
 -------------------
 Temperature   298.150 Kelvin.  Pressure   1.00000 Atm.
 Atom     1 has atomic number  6 and mass  12.00000

 Molecular mass:   168.04697 amu.
 Principal axes and moments of inertia in atomic units:
                           1         2         3
     Eigenvalues --  1567.587602093.324713294.57122
           X            0.99945   0.03265  -0.00561
           Y           -0.03261   0.99945   0.00627
           Z            0.00581  -0.00609   0.99996
 This molecule is an asymmetric top.
 Rotational symmetry number  1.
 Warning -- assumption of classical behavior for rotation
           may cause significant error
 Rotational temperatures (Kelvin)      0.05525     0.04138     0.02629
 Rotational constants (GHZ):           1.15129     0.86214     0.54779
 Zero-point vibrational energy     379224.2 (Joules/Mol)
                                   90.63676 (Kcal/Mol)
 Warning -- explicit consideration of  15 degrees of freedom as
           vibrations may cause significant error
 Vibrational temperatures:     57.31   111.70   139.96   192.34   216.99
          (Kelvin)            295.80   359.34   471.75   504.55   518.06
                              628.48   654.98   748.72   821.36   868.34
                              893.81   909.55  1011.37  1038.97  1116.95
                             1176.97  1212.18  1281.77  1366.40  1395.47
                             1409.91  1504.20  1538.99  1619.55  1710.64
                             1751.81  1766.09  1867.15  1908.55  1939.75
                             1960.93  2005.76  2038.66  2162.52  2208.55
                             2241.81  2443.72  3228.44  4372.26  4443.55
                             4466.73  4670.14  4898.00  4929.74  5028.52
                             5111.29

 Zero-point correction=                           0.144439 (Hartree/Particle)
 Thermal correction to Energy=                    0.155289
 Thermal correction to Enthalpy=                  0.156233
 Thermal correction to Gibbs Free Energy=         0.106917
 Sum of electronic and zero-point Energies=           -850.402085
 Sum of electronic and thermal Energies=              -850.391236
 Sum of electronic and thermal Enthalpies=            -850.390291
 Sum of electronic and thermal Free Energies=         -850.439607

                     E (Thermal)             CV                S
                      KCal/Mol        Cal/Mol-Kelvin    Cal/Mol-Kelvin
 Total                   97.445             39.774            103.794
 Electronic               0.000              0.000              0.000
 Translational            0.889              2.981             41.265
 Rotational               0.889              2.981             30.759
 Vibrational             95.668             33.812             31.770
 Vibration     1          0.594              1.981              5.267
 Vibration     2          0.599              1.964              3.950
 Vibration     3          0.603              1.951              3.508
 Vibration     4          0.613              1.920              2.892
 Vibration     5          0.618              1.902              2.662
 Vibration     6          0.640              1.832              2.082
 Vibration     7          0.663              1.763              1.732
 Vibration     8          0.711              1.620              1.271
 Vibration     9          0.728              1.574              1.163
 Vibration    10          0.735              1.555              1.122
 Vibration    11          0.797              1.390              0.837
 Vibration    12          0.814              1.349              0.780
 Vibration    13          0.875              1.205              0.609
 Vibration    14          0.927              1.094              0.503
 Vibration    15          0.962              1.024              0.444

 Optimization completed.
    -- Stationary point found.
 Normal termination of Gaussian 16 at Tue Dec  8 19:46:18 2020.

 ----------------------------------------------------------------------
 # B3LYP/6-311++G(d,p) empiricaldispersion=gd3bj scf=xqc pop=npa geom=c
 heck
 ----------------------------------------------------------------------

 ---------------------------------------
 CID_121600853_JID_1296_Energie_neutraal
 ---------------------------------------
 Structure from the checkpoint file:  "JID_1296.chk"
 Charge =  0 Multiplicity = 1

 SCF Done:  E(RB3LYP) =  -850.711087366     A.U. after   16 cycles
 Normal termination of Gaussian 16 at Tue Dec  8 19:48:53 2020.

 ----------------------------------------------------------------------
 # B3LYP/6-311++G(d,p) empiricaldispersion=gd3bj scf=xqc pop=npa geom=c
 heck
 ----------------------------------------------------------------------

 -------------------------------------
 CID_121600853_JID_1296_Energie_kation
 -------------------------------------
 Structure from the checkpoint file:  "JID_1296.chk"
 Charge =  1 Multiplicity = 2

 SCF Done:  E(UB3LYP) =  -850.378075065     A.U. after   32 cycles
 Normal termination of Gaussian 16 at Tue Dec  8 19:54:42 2020.
 Gaussian 16:  ES64L-G16RevA.03 25-Dec-2016

 ----------------------------------------------------------------------
 # B3LYP/6-311++G(d,p) empiricaldispersion=gd3bj scf=xqc pop=npa geom=c
 heck
 ----------------------------------------------------------------------

 ------------------------------------
 CID_121600853_JID_1296_Energie_anion
 ------------------------------------
 Structure from the checkpoint file:  "JID_1296.chk"
 Charge = -1 Multiplicity = 2

                         Standard orientation:
 ---------------------------------------------------------------------
 Center     Atomic      Atomic             Coordinates (Angstroms)
 Number     Number       Type             X           Y           Z
 ---------------------------------------------------------------------
      1          6           0        2.522490    2.547943    0.091148
      2          6           0        2.357594    1.404399   -0.259037
      3          6           0        2.139138    0.017574   -0.658228
      4          6           0        1.109395   -0.722113    0.232696
      5          6           0       -0.250758   -0.050602    0.166472
      6          7           0       -1.192735   -0.544809   -0.616380
      7         16           0       -2.534027    0.436251   -0.468137
      8          7           0       -1.896173    1.518955    0.627062
      9          6           0       -0.664006    1.129139    0.875945
     10          7           0        1.085099   -2.120801   -0.174475
     11          7           0        0.255157   -2.868648    0.724161
     12          1           0        2.678602    3.560229    0.387360
     13          1           0        1.795747   -0.018003   -1.701335
     14          1           0        3.076361   -0.548801   -0.610505
     15          1           0        1.457039   -0.698163    1.269575
     16          1           0       -0.043898    1.692816    1.562840
     17          1           0        0.704950   -2.160215   -1.124029
     18          1           0       -0.721841   -2.820536    0.427008
     19          1           0        0.554927   -3.838263    0.662728
 ---------------------------------------------------------------------

 SCF Done:  E(UB3LYP) =  -850.712832538     A.U. after   32 cycles

 The electronic state is 2-A.
 Alpha  occ. eigenvalues --  -88.73481 -14.20678 -14.20459 -14.14979 -14.14926
 Alpha  occ. eigenvalues --  -10.08451 -10.07826 -10.06438 -10.04900 -10.04506
 Alpha  occ. eigenvalues --  -10.04027  -7.81829  -5.78297  -5.77749  -5.77341
 Alpha  occ. eigenvalues --   -0.85143  -0.82865  -0.71719  -0.69622  -0.65097
 Alpha  occ. eigenvalues --   -0.59941  -0.58753  -0.50692  -0.43880  -0.42471
 Alpha  occ. eigenvalues --   -0.41510  -0.39229  -0.37654  -0.35571  -0.34289
 Alpha  occ. eigenvalues --   -0.31314  -0.29750  -0.28093  -0.25837  -0.24957
 Alpha  occ. eigenvalues --   -0.20766  -0.16708  -0.16565  -0.16071  -0.14907
 Alpha  occ. eigenvalues --   -0.14359  -0.13023  -0.11812  -0.10255   0.05668
 Alpha virt. eigenvalues --    0.07980   0.08370   0.09638   0.10930   0.11818
 Alpha virt. eigenvalues --    0.12914   0.13116   0.13375   0.14126   0.14354
 Alpha virt. eigenvalues --    0.14847   0.15773   0.16578   0.16780   0.18043

  Beta  occ. eigenvalues --  -88.73405 -14.20669 -14.20452 -14.14348 -14.14282
  Beta  occ. eigenvalues --  -10.08462 -10.07796 -10.06439 -10.04879 -10.04419
  Beta  occ. eigenvalues --  -10.04014  -7.81762  -5.78270  -5.77723  -5.77076
  Beta  occ. eigenvalues --   -0.85052  -0.82181  -0.71247  -0.68937  -0.65050
  Beta  occ. eigenvalues --   -0.59743  -0.58524  -0.50534  -0.43318  -0.42355
  Beta  occ. eigenvalues --   -0.41184  -0.39131  -0.37610  -0.35362  -0.34227
  Beta  occ. eigenvalues --   -0.31125  -0.29673  -0.27626  -0.25291  -0.23878
  Beta  occ. eigenvalues --   -0.20144  -0.16505  -0.16287  -0.15767  -0.14398
  Beta  occ. eigenvalues --   -0.12625  -0.11779  -0.11310  -0.08940
  Beta virt. eigenvalues --    0.08091   0.08462   0.09897   0.10874   0.11689
  Beta virt. eigenvalues --    0.12655   0.12818   0.13127   0.13453   0.14152
  Beta virt. eigenvalues --    0.14432   0.14868   0.15784   0.16566   0.16828

 Mulliken charges and spin densities:
               1          2
     1  C   -0.643067   0.197185
     2  C    2.035825  -1.624794
     3  C   -1.126474   0.551606
     4  C   -0.889088   0.559998
     5  C    0.160430  -0.357606
     6  N   -0.177534   0.258895
     7  S    0.198340   0.198537
     8  N   -0.243384   0.234479
     9  C   -0.392388   0.037566
    10  N    0.037036  -0.020026
    11  N   -0.531256  -0.003117
    12  H   -0.276080   0.437880
    13  H    0.132652   0.002737
    14  H   -0.235700   0.431357
    15  H    0.135291   0.073472
    16  H    0.145467  -0.031451
    17  H    0.216614   0.015113
    18  H    0.244547   0.005660
    19  H    0.208767   0.032510
 Sum of Mulliken charges =  -1.00000   1.00000

 Dipole moment (field-independent basis, Debye):
    X=              0.8981    Y=             -2.8420    Z=             -0.6753  Tot=              3.0561
 Quadrupole moment (field-independent basis, Debye-Ang):
   XX=           -112.7680   YY=            -91.3416   ZZ=            -84.5871
   XY=              4.1688   XZ=              1.1888   YZ=              2.1249

 Summary of Natural Population Analysis:

                                       Natural Population
                Natural  -----------------------------------------------
    Atom  No    Charge         Core      Valence    Rydberg      Total
 -----------------------------------------------------------------------
      C    1   -0.13293      0.99926     2.13028    0.00339     3.13293
      C    2    0.01343      0.99938     1.97952    0.00767     2.98657
      C    3   -0.23231      0.99954     2.22204    0.01073     3.23231
      C    4   -0.01154      0.99955     1.99646    0.01553     3.01154
      C    5    0.06377      0.99955     1.91955    0.01713     2.93623
      N    6   -0.26119      0.99968     2.74734    0.01417     3.76119
      S    7    0.36182      4.99953     2.60254    0.03611     7.63818
      N    8   -0.22738      0.99973     2.71503    0.01261     3.72738
      C    9   -0.02223      0.99958     2.00560    0.01705     3.02223
      N   10   -0.25624      0.99973     2.74093    0.01558     3.75624
      N   11   -0.32926      0.99977     2.81893    0.01056     3.82926
      H   12    0.10835      0.00000     0.39048    0.00117     0.39165
      H   13    0.11164      0.00000     0.38682    0.00155     0.38836
      H   14    0.11537      0.00000     0.38164    0.00299     0.38463
      H   15    0.10055      0.00000     0.39749    0.00195     0.39945
      H   16    0.09278      0.00000     0.40543    0.00179     0.40722
      H   17    0.16473      0.00000     0.33127    0.00400     0.33527
      H   18    0.17460      0.00000     0.32341    0.00199     0.32540
      H   19    0.16603      0.00000     0.33243    0.00153     0.33397
 =======================================================================
   * Total *    0.00000     14.99530    28.82718    0.17752    44.00000

 Normal termination of Gaussian 16 at Tue Dec  8 19:59:46 2020.
