 Gaussian 16, Revision A.03,

 -----------------------------------------------------------
 # opt freq B3LYP/6-31G(d) empiricaldispersion=gd3bj scf=xqc
 -----------------------------------------------------------

 ------------------------------
 CID_12298892_JID_5193_neutraal
 ------------------------------
 Symbolic Z-matrix:
 Charge =  0 Multiplicity = 1

 SCF Done:  E(RB3LYP) =  -709.828004003     A.U. after   14 cycles
 SCF Done:  E(RB3LYP) =  -709.832485075     A.U. after   12 cycles
 SCF Done:  E(RB3LYP) =  -709.832957678     A.U. after   11 cycles
 SCF Done:  E(RB3LYP) =  -709.833136964     A.U. after   11 cycles
 SCF Done:  E(RB3LYP) =  -709.833251573     A.U. after   11 cycles
 SCF Done:  E(RB3LYP) =  -709.833360972     A.U. after   11 cycles
 SCF Done:  E(RB3LYP) =  -709.833463116     A.U. after   11 cycles
 SCF Done:  E(RB3LYP) =  -709.833714702     A.U. after   11 cycles
 SCF Done:  E(RB3LYP) =  -709.834018562     A.U. after   11 cycles
 SCF Done:  E(RB3LYP) =  -709.834072079     A.U. after   11 cycles
 SCF Done:  E(RB3LYP) =  -709.837377111     A.U. after   11 cycles
 SCF Done:  E(RB3LYP) =  -709.837407299     A.U. after    9 cycles
 SCF Done:  E(RB3LYP) =  -709.837410396     A.U. after    9 cycles
 SCF Done:  E(RB3LYP) =  -709.837411127     A.U. after    7 cycles
 SCF Done:  E(RB3LYP) =  -709.837411271     A.U. after    7 cycles
 SCF Done:  E(RB3LYP) =  -709.837411295     A.U. after    6 cycles
 Optimization completed.
    -- Stationary point found.
 Normal termination of Gaussian 16 at Thu Dec 10 15:09:06 2020.

 --------------------------------------------------------------------
 #N Geom=AllCheck Guess=TCheck SCRF=Check GenChk RB3LYP/6-31G(d) Freq
 --------------------------------------------------------------------

 Structure from the checkpoint file:  "JID_5193.chk"
 ------------------------------
 CID_12298892_JID_5193_neutraal
 ------------------------------
 Charge =  0 Multiplicity = 1

 SCF Done:  E(RB3LYP) =  -709.837411295     A.U. after    1 cycles

  Exact polarizability: 180.479   0.455 130.933   1.580   6.708  89.653
 Approx polarizability: 234.074   2.741 206.543   1.867  22.393 132.680

                      1                      2                      3
                      A                      A                      A
 Frequencies --     31.0191                41.7230                77.4615
 Red. masses --      4.3790                 2.9990                 3.3517
 Frc consts  --      0.0025                 0.0031                 0.0118
 IR Inten    --      0.0166                 0.3361                 1.6891

                      4                      5                      6
                      A                      A                      A
 Frequencies --     92.8218               101.2886               111.7704
 Red. masses --      2.4808                 3.8141                 3.0780
 Frc consts  --      0.0126                 0.0231                 0.0227
 IR Inten    --      2.8774                 0.9448                 1.7303

                      7                      8                      9
                      A                      A                      A
 Frequencies --    151.3766               159.7690               168.0897
 Red. masses --      1.8056                 1.7814                 1.3962
 Frc consts  --      0.0244                 0.0268                 0.0232
 IR Inten    --      2.4614                 1.7000                 0.5372

                     10                     11                     12
                      A                      A                      A
 Frequencies --    174.7511               206.6516               236.2395
 Red. masses --      2.4570                 2.5405                 1.1169
 Frc consts  --      0.0442                 0.0639                 0.0367
 IR Inten    --      3.0737                 6.9108                 1.3780

                     13                     14                     15
                      A                      A                      A
 Frequencies --    248.6477               288.9905               296.7799
 Red. masses --      4.4956                 1.0863                 5.5223
 Frc consts  --      0.1638                 0.0535                 0.2866
 IR Inten    --      5.4351                42.6998                 5.4217

                     16                     17                     18
                      A                      A                      A
 Frequencies --    352.4067               361.8405               394.5538
 Red. masses --      5.7705                 4.3195                 2.1638
 Frc consts  --      0.4222                 0.3332                 0.1985
 IR Inten    --      2.3829                 0.5943                 1.2716

                     19                     20                     21
                      A                      A                      A
 Frequencies --    425.8306               438.6287               483.4768
 Red. masses --      3.1724                 3.1192                 4.6367
 Frc consts  --      0.3389                 0.3536                 0.6386
 IR Inten    --      6.8144                 7.8379                 2.3209

                     22                     23                     24
                      A                      A                      A
 Frequencies --    494.6284               540.2243               602.2678
 Red. masses --      4.3905                 3.5930                 4.9040
 Frc consts  --      0.6329                 0.6178                 1.0480
 IR Inten    --      3.5778                 1.6839                 7.3797

                     25                     26                     27
                      A                      A                      A
 Frequencies --    637.7864               654.7254               744.2076
 Red. masses --      3.3899                 4.0899                 3.3904
 Frc consts  --      0.8124                 1.0330                 1.1063
 IR Inten    --      9.0700                 0.7934                 0.8229

                     28                     29                     30
                      A                      A                      A
 Frequencies --    762.5732               787.4242               835.7679
 Red. masses --      4.7451                 4.4732                 3.1666
 Frc consts  --      1.6258                 1.6341                 1.3032
 IR Inten    --     11.8243                22.9255                10.2469

                     31                     32                     33
                      A                      A                      A
 Frequencies --    838.9410               860.8271               928.5303
 Red. masses --      1.6711                 1.5570                 1.4745
 Frc consts  --      0.6930                 0.6798                 0.7490
 IR Inten    --     21.5843                22.0599               210.0262

                     34                     35                     36
                      A                      A                      A
 Frequencies --    944.0850               953.0282               964.5978
 Red. masses --      1.2970                 2.7203                 1.7733
 Frc consts  --      0.6811                 1.4557                 0.9721
 IR Inten    --      0.2373                11.5267                15.1553

                     37                     38                     39
                      A                      A                      A
 Frequencies --    980.5664              1040.1495              1048.3023
 Red. masses --      1.8674                 2.8374                 4.6799
 Frc consts  --      1.0579                 1.8087                 3.0301
 IR Inten    --      9.6516                45.4990               122.8843

                     40                     41                     42
                      A                      A                      A
 Frequencies --   1056.3244              1058.3027              1130.7900
 Red. masses --      1.5136                 3.2578                 1.7625
 Frc consts  --      0.9951                 2.1498                 1.3278
 IR Inten    --      7.8971               110.6095                82.2888

                     43                     44                     45
                      A                      A                      A
 Frequencies --   1133.3942              1186.1811              1188.2845
 Red. masses --      1.8601                 1.8001                 1.2542
 Frc consts  --      1.4078                 1.4923                 1.0434
 IR Inten    --      9.5138                 1.2941                 3.7266

                     46                     47                     48
                      A                      A                      A
 Frequencies --   1188.8104              1196.9468              1216.5989
 Red. masses --      1.2725                 1.8217                 1.4628
 Frc consts  --      1.0595                 1.5377                 1.2756
 IR Inten    --     25.2956                56.6568                64.1053

                     49                     50                     51
                      A                      A                      A
 Frequencies --   1233.7039              1257.5307              1275.7964
 Red. masses --      1.7227                 2.2808                 1.1679
 Frc consts  --      1.5448                 2.1251                 1.1200
 IR Inten    --    129.7682               178.3532                 5.9352

                     52                     53                     54
                      A                      A                      A
 Frequencies --   1289.0086              1296.8751              1320.7107
 Red. masses --      1.5755                 1.5868                 6.6261
 Frc consts  --      1.5423                 1.5725                 6.8096
 IR Inten    --     76.0253                 8.0652                17.4956

                     55                     56                     57
                      A                      A                      A
 Frequencies --   1366.2092              1372.5655              1417.5383
 Red. masses --      6.7013                 1.5662                 1.2950
 Frc consts  --      7.3696                 1.7384                 1.5331
 IR Inten    --     74.4184                19.7591                 5.8126

                     58                     59                     60
                      A                      A                      A
 Frequencies --   1428.0212              1448.0502              1457.3990
 Red. masses --      1.3097                 1.4118                 2.6034
 Frc consts  --      1.5735                 1.7442                 3.2580
 IR Inten    --     37.4731                21.4980                14.5231

                     61                     62                     63
                      A                      A                      A
 Frequencies --   1486.2496              1508.6294              1514.4112
 Red. masses --      1.1993                 1.3473                 1.0613
 Frc consts  --      1.5608                 1.8066                 1.4341
 IR Inten    --     33.0289                 5.8309                11.5170

                     64                     65                     66
                      A                      A                      A
 Frequencies --   1516.2167              1519.4729              1532.2780
 Red. masses --      1.0992                 1.0504                 1.0568
 Frc consts  --      1.4889                 1.4288                 1.4619
 IR Inten    --      7.6269                 8.0759                 1.3001

                     67                     68                     69
                      A                      A                      A
 Frequencies --   1538.2600              1540.9608              1546.8659
 Red. masses --      1.2312                 1.0536                 1.0531
 Frc consts  --      1.7165                 1.4740                 1.4847
 IR Inten    --    124.3458                 1.9843                 6.5507

                     70                     71                     72
                      A                      A                      A
 Frequencies --   1558.2815              1636.1194              1670.5819
 Red. masses --      2.1691                 7.8475                 6.2418
 Frc consts  --      3.1033                12.3768                10.2635
 IR Inten    --    184.6369                29.2161                70.1963

                     73                     74                     75
                      A                      A                      A
 Frequencies --   1702.7504              3002.7863              3037.2310
 Red. masses --      1.0911                 1.0558                 1.0352
 Frc consts  --      1.8638                 5.6091                 5.6264
 IR Inten    --     22.8512                25.4006                75.7073

                     76                     77                     78
                      A                      A                      A
 Frequencies --   3040.6586              3043.8165              3046.3992
 Red. masses --      1.0374                 1.0843                 1.1070
 Frc consts  --      5.6512                 5.9186                 6.0528
 IR Inten    --     51.4368                45.2211                43.0786

                     79                     80                     81
                      A                      A                      A
 Frequencies --   3059.8479              3110.1821              3119.5445
 Red. masses --      1.0373                 1.1011                 1.0975
 Frc consts  --      5.7222                 6.2755                 6.2929
 IR Inten    --     25.4364                26.5946                30.6765

                     82                     83                     84
                      A                      A                      A
 Frequencies --   3125.5994              3146.8935              3151.9955
 Red. masses --      1.1014                 1.1028                 1.1049
 Frc consts  --      6.3396                 6.4344                 6.4674
 IR Inten    --     30.0895                29.7299                31.4748

                     85                     86                     87
                      A                      A                      A
 Frequencies --   3158.0824              3207.0201              3222.7603
 Red. masses --      1.1064                 1.0879                 1.0948
 Frc consts  --      6.5015                 6.5925                 6.6995
 IR Inten    --     23.1102                 7.0384                 6.4899

                     88                     89                     90
                      A                      A                      A
 Frequencies --   3241.8210              3452.6293              3537.4063
 Red. masses --      1.0901                 1.0495                 1.0915
 Frc consts  --      6.7500                 7.3711                 8.0472
 IR Inten    --      3.2208                 2.0300                 0.9152

 - Thermochemistry -
 -------------------
 Temperature   298.150 Kelvin.  Pressure   1.00000 Atm.
 Atom     1 has atomic number  6 and mass  12.00000

 Molecular mass:   211.12084 amu.
 Principal axes and moments of inertia in atomic units:
                           1         2         3
     Eigenvalues --  1288.751726996.395027637.55360
           X            1.00000   0.00215  -0.00204
           Y           -0.00221   0.99948  -0.03212
           Z            0.00197   0.03213   0.99948
 This molecule is an asymmetric top.
 Rotational symmetry number  1.
 Warning -- assumption of classical behavior for rotation
           may cause significant error
 Rotational temperatures (Kelvin)      0.06721     0.01238     0.01134
 Rotational constants (GHZ):           1.40038     0.25795     0.23630
 Zero-point vibrational energy     717505.4 (Joules/Mol)
                                  171.48792 (Kcal/Mol)
 Warning -- explicit consideration of  24 degrees of freedom as
           vibrations may cause significant error
 Vibrational temperatures:     44.63    60.03   111.45   133.55   145.73
          (Kelvin)            160.81   217.80   229.87   241.84   251.43
                              297.33   339.90   357.75   415.79   427.00
                              507.03   520.61   567.67   612.68   631.09
                              695.62   711.66   777.26   866.53   917.63
                              942.00  1070.75  1097.17  1132.93  1202.48
                             1207.05  1238.54  1335.95  1358.33  1371.20
                             1387.84  1410.82  1496.54  1508.27  1519.82
                             1522.66  1626.95  1630.70  1706.65  1709.68
                             1710.43  1722.14  1750.41  1775.02  1809.31
                             1835.59  1854.60  1865.91  1900.21  1965.67
                             1974.82  2039.52  2054.60  2083.42  2096.87
                             2138.38  2170.58  2178.90  2181.50  2186.18
                             2204.61  2213.21  2217.10  2225.59  2242.02
                             2354.01  2403.59  2449.88  4320.34  4369.90
                             4374.83  4379.37  4383.09  4402.44  4474.86
                             4488.33  4497.04  4527.68  4535.02  4543.78
                             4614.19  4636.83  4664.26  4967.56  5089.54

 Zero-point correction=                           0.273283 (Hartree/Particle)
 Thermal correction to Energy=                    0.289477
 Thermal correction to Enthalpy=                  0.290422
 Thermal correction to Gibbs Free Energy=         0.229018
 Sum of electronic and zero-point Energies=           -709.564128
 Sum of electronic and thermal Energies=              -709.547934
 Sum of electronic and thermal Enthalpies=            -709.546990
 Sum of electronic and thermal Free Energies=         -709.608393

                     E (Thermal)             CV                S
                      KCal/Mol        Cal/Mol-Kelvin    Cal/Mol-Kelvin
 Total                  181.650             59.290            129.234
 Electronic               0.000              0.000              0.000
 Translational            0.889              2.981             41.945
 Rotational               0.889              2.981             32.599
 Vibrational            179.872             53.328             54.690
 Vibration     1          0.594              1.983              5.763
 Vibration     2          0.594              1.981              5.176
 Vibration     3          0.599              1.964              3.954
 Vibration     4          0.602              1.954              3.600
 Vibration     5          0.604              1.948              3.429
 Vibration     6          0.607              1.940              3.238
 Vibration     7          0.619              1.901              2.655
 Vibration     8          0.622              1.892              2.553
 Vibration     9          0.625              1.882              2.457
 Vibration    10          0.627              1.874              2.384
 Vibration    11          0.641              1.830              2.073
 Vibration    12          0.655              1.785              1.831
 Vibration    13          0.662              1.765              1.740
 Vibration    14          0.686              1.694              1.480
 Vibration    15          0.690              1.680              1.435
 Vibration    16          0.729              1.570              1.155
 Vibration    17          0.736              1.551              1.114
 Vibration    18          0.762              1.482              0.983
 Vibration    19          0.788              1.414              0.872
 Vibration    20          0.799              1.386              0.831
 Vibration    21          0.840              1.287              0.701
 Vibration    22          0.850              1.262              0.672
 Vibration    23          0.895              1.161              0.565
 Vibration    24          0.961              1.027              0.446

 Optimization completed.
    -- Stationary point found.
 Normal termination of Gaussian 16 at Thu Dec 10 15:18:30 2020.

 ----------------------------------------------------------------------
 # B3LYP/6-311++G(d,p) empiricaldispersion=gd3bj scf=xqc pop=npa geom=c
 heck
 ----------------------------------------------------------------------

 --------------------------------------
 CID_12298892_JID_5193_Energie_neutraal
 --------------------------------------
 Structure from the checkpoint file:  "JID_5193.chk"
 Charge =  0 Multiplicity = 1

 SCF Done:  E(RB3LYP) =  -710.045229313     A.U. after   15 cycles
 Normal termination of Gaussian 16 at Thu Dec 10 15:23:31 2020.

 ----------------------------------------------------------------------
 # B3LYP/6-311++G(d,p) empiricaldispersion=gd3bj scf=xqc pop=npa geom=c
 heck
 ----------------------------------------------------------------------

 ------------------------------------
 CID_12298892_JID_5193_Energie_kation
 ------------------------------------
 Structure from the checkpoint file:  "JID_5193.chk"
 Charge =  1 Multiplicity = 2

 SCF Done:  E(UB3LYP) =  -709.759872386     A.U. after   24 cycles
 Normal termination of Gaussian 16 at Thu Dec 10 15:36:04 2020.
 Gaussian 16:  ES64L-G16RevA.03 25-Dec-2016

 ----------------------------------------------------------------------
 # B3LYP/6-311++G(d,p) empiricaldispersion=gd3bj scf=xqc pop=npa geom=c
 heck
 ----------------------------------------------------------------------

 -----------------------------------
 CID_12298892_JID_5193_Energie_anion
 -----------------------------------
 Structure from the checkpoint file:  "JID_5193.chk"
 Charge = -1 Multiplicity = 2

                         Standard orientation:
 ---------------------------------------------------------------------
 Center     Atomic      Atomic             Coordinates (Angstroms)
 Number     Number       Type             X           Y           Z
 ---------------------------------------------------------------------
      1          6           0       -4.546357   -0.479114    1.207491
      2          6           0       -4.098634    0.569413    0.186855
      3          6           0       -2.586647    0.815470    0.262458
      4          8           0       -1.939046   -0.399114   -0.102842
      5          6           0       -0.574400   -0.434199   -0.131947
      6          6           0        0.244766    0.656493    0.174273
      7          6           0        1.634487    0.523348    0.116062
      8          6           0        2.215684   -0.703335   -0.236405
      9          6           0        1.384741   -1.780106   -0.552069
     10          6           0        0.001371   -1.654240   -0.508098
     11          8           0        3.584735   -0.863668   -0.306501
     12          6           0        4.237343   -0.843042    0.966340
     13          8           0        2.399273    1.617196    0.454042
     14          6           0        3.186614    2.146357   -0.618565
     15          7           0       -4.560806    0.174756   -1.148566
     16          1           0       -4.282030   -0.174868    2.226425
     17          1           0       -4.060836   -1.439871    1.006873
     18          1           0       -5.628874   -0.618103    1.147591
     19          1           0       -4.581616    1.525826    0.429759
     20          1           0       -2.295172    1.615791   -0.434369
     21          1           0       -2.282715    1.116185    1.275803
     22          1           0       -0.155964    1.620951    0.459000
     23          1           0        1.849531   -2.720806   -0.830118
     24          1           0       -0.649401   -2.488161   -0.748480
     25          1           0        4.085592    0.114968    1.474389
     26          1           0        3.865910   -1.655941    1.603621
     27          1           0        5.300891   -0.993274    0.767303
     28          1           0        3.895927    1.403557   -0.994673
     29          1           0        2.539323    2.482677   -1.438683
     30          1           0        3.724331    3.002330   -0.205218
     31          1           0       -4.317300    0.900332   -1.823001
     32          1           0       -4.035462   -0.652471   -1.432224
 ---------------------------------------------------------------------

 SCF Done:  E(UB3LYP) =  -710.032027704     A.U. after   32 cycles

 The electronic state is 2-A.
 Alpha  occ. eigenvalues --  -19.05971 -19.04974 -19.04954 -14.19652 -10.14370
 Alpha  occ. eigenvalues --  -10.13776 -10.12997 -10.12669 -10.12379 -10.12031
 Alpha  occ. eigenvalues --  -10.10853 -10.08716 -10.07997 -10.07974 -10.06495
 Alpha  occ. eigenvalues --   -0.97731  -0.97392  -0.95306  -0.79637  -0.76025
 Alpha  occ. eigenvalues --   -0.67537  -0.66572  -0.64643  -0.60897  -0.60398
 Alpha  occ. eigenvalues --   -0.57565  -0.52994  -0.50423  -0.48290  -0.45051
 Alpha  occ. eigenvalues --   -0.42637  -0.41827  -0.39980  -0.38910  -0.38438
 Alpha  occ. eigenvalues --   -0.37710  -0.36790  -0.36075  -0.34661  -0.34400
 Alpha  occ. eigenvalues --   -0.33612  -0.33207  -0.32109  -0.29721  -0.29184
 Alpha  occ. eigenvalues --   -0.28067  -0.26874  -0.26315  -0.25864  -0.25636
 Alpha  occ. eigenvalues --   -0.24187  -0.22482  -0.20377  -0.17992  -0.15709
 Alpha  occ. eigenvalues --   -0.15336  -0.12453   0.04224
 Alpha virt. eigenvalues --    0.05816   0.06993   0.07469   0.07547   0.07946
 Alpha virt. eigenvalues --    0.08433   0.08921   0.09398   0.09708   0.09962
 Alpha virt. eigenvalues --    0.10742   0.10958   0.11650   0.11945   0.12235

  Beta  occ. eigenvalues --  -19.05963 -19.04973 -19.04954 -14.19625 -10.14361
  Beta  occ. eigenvalues --  -10.13753 -10.12992 -10.12640 -10.12346 -10.11993
  Beta  occ. eigenvalues --  -10.10836 -10.08716 -10.07981 -10.07963 -10.06478
  Beta  occ. eigenvalues --   -0.97716  -0.97379  -0.95295  -0.79586  -0.76001
  Beta  occ. eigenvalues --   -0.67494  -0.66539  -0.64600  -0.60852  -0.60344
  Beta  occ. eigenvalues --   -0.57515  -0.52965  -0.50381  -0.48238  -0.45005
  Beta  occ. eigenvalues --   -0.42604  -0.41800  -0.39947  -0.38878  -0.38393
  Beta  occ. eigenvalues --   -0.37665  -0.36761  -0.36042  -0.34634  -0.34370
  Beta  occ. eigenvalues --   -0.33578  -0.33170  -0.32086  -0.29688  -0.29142
  Beta  occ. eigenvalues --   -0.28035  -0.26840  -0.26278  -0.25824  -0.25596
  Beta  occ. eigenvalues --   -0.24151  -0.22449  -0.20356  -0.17972  -0.15658
  Beta  occ. eigenvalues --   -0.15300  -0.12388
  Beta virt. eigenvalues --    0.06263   0.06797   0.07385   0.07712   0.07902
  Beta virt. eigenvalues --    0.08452   0.08770   0.09163   0.09592   0.10179
  Beta virt. eigenvalues --    0.10326   0.11136   0.11212   0.11867   0.12134

 Mulliken charges and spin densities:
               1          2
     1  C    0.241753  -0.698395
     2  C    0.252158  -0.953907
     3  C    0.151978  -0.339954
     4  O   -0.088056   0.041960
     5  C   -0.189090  -0.251466
     6  C   -0.332730   0.308455
     7  C    0.279766  -0.065730
     8  C    0.192827  -0.608265
     9  C   -0.300701   0.506704
    10  C   -0.266338   0.149891
    11  O   -0.168291   0.022813
    12  C    0.609945  -0.865438
    13  O   -0.147808   0.031142
    14  C    0.693524  -0.946055
    15  N   -0.291115   0.048094
    16  H   -0.071567   0.198106
    17  H    0.069320   0.082112
    18  H    0.012710   0.144587
    19  H   -0.499749   0.695348
    20  H   -0.324737   0.508346
    21  H   -0.012079   0.183775
    22  H   -0.197417   0.450493
    23  H    0.037026   0.148334
    24  H    0.058679   0.097285
    25  H   -0.035351   0.222479
    26  H   -0.131826   0.250907
    27  H   -0.228718   0.379966
    28  H    0.012113   0.169039
    29  H   -0.260408   0.392525
    30  H   -0.176921   0.330587
    31  H   -0.091127   0.331163
    32  H    0.202227   0.035097
 Sum of Mulliken charges =  -1.00000   1.00000

 Dipole moment (field-independent basis, Debye):
    X=              1.3910    Y=             -4.5108    Z=              0.1771  Tot=              4.7237
 Quadrupole moment (field-independent basis, Debye-Ang):
   XX=           -196.0279   YY=           -129.4758   ZZ=           -123.0579
   XY=              6.3850   XZ=             -4.1925   YZ=              2.0644

 Summary of Natural Population Analysis:

                                       Natural Population
                Natural  -----------------------------------------------
    Atom  No    Charge         Core      Valence    Rydberg      Total
 -----------------------------------------------------------------------
      C    1   -0.28828      0.99964     2.28311    0.00553     3.28828
      C    2   -0.02488      0.99962     2.01146    0.01380     3.02488
      C    3   -0.01724      0.99954     2.00414    0.01357     3.01724
      O    4   -0.28301      0.99985     3.27302    0.01014     4.28301
      C    5    0.16452      0.99939     1.82272    0.01336     2.83548
      C    6   -0.15308      0.99948     2.14470    0.00890     3.15308
      C    7    0.14843      0.99933     1.83842    0.01382     2.85157
      C    8    0.11612      0.99931     1.87169    0.01288     2.88388
      C    9   -0.10713      0.99953     2.09871    0.00890     3.10713
      C   10   -0.12293      0.99953     2.11444    0.00896     3.12293
      O   11   -0.29352      0.99987     3.28315    0.01050     4.29352
      C   12   -0.09929      0.99959     2.09055    0.00915     3.09929
      O   13   -0.29146      0.99987     3.28062    0.01097     4.29146
      C   14   -0.09900      0.99958     2.09063    0.00878     3.09900
      N   15   -0.42222      0.99977     2.91190    0.01055     3.92222
      H   16    0.09942      0.00000     0.39965    0.00092     0.40058
      H   17    0.09984      0.00000     0.39896    0.00120     0.40016
      H   18    0.10223      0.00000     0.39673    0.00104     0.39777
      H   19    0.09527      0.00000     0.40262    0.00210     0.40473
      H   20    0.08831      0.00000     0.40870    0.00299     0.41169
      H   21    0.08833      0.00000     0.40981    0.00187     0.41167
      H   22    0.11364      0.00000     0.38434    0.00202     0.38636
      H   23    0.10483      0.00000     0.39412    0.00105     0.39517
      H   24    0.10487      0.00000     0.39411    0.00102     0.39513
      H   25    0.09006      0.00000     0.40836    0.00158     0.40994
      H   26    0.08156      0.00000     0.41712    0.00131     0.41844
      H   27    0.08958      0.00000     0.40900    0.00142     0.41042
      H   28    0.08988      0.00000     0.40847    0.00165     0.41012
      H   29    0.08422      0.00000     0.41429    0.00149     0.41578
      H   30    0.09051      0.00000     0.40806    0.00143     0.40949
      H   31    0.17638      0.00000     0.32162    0.00200     0.32362
      H   32    0.17403      0.00000     0.32380    0.00217     0.32597
 =======================================================================
   * Total *   -0.00000     14.99390    41.81904    0.18706    57.00000

 Normal termination of Gaussian 16 at Thu Dec 10 15:50:10 2020.
