 Gaussian 16, Revision A.03,

 -----------------------------------------------------------
 # opt freq B3LYP/6-31G(d) empiricaldispersion=gd3bj scf=xqc
 -----------------------------------------------------------

 -------------------------------
 CID_115246637_JID_7748_neutraal
 -------------------------------
 Symbolic Z-matrix:
 Charge =  0 Multiplicity = 1

 SCF Done:  E(RB3LYP) =  -1110.22786102     A.U. after   15 cycles
 SCF Done:  E(RB3LYP) =  -1110.24057108     A.U. after   13 cycles
 SCF Done:  E(RB3LYP) =  -1110.24051712     A.U. after   13 cycles
 SCF Done:  E(RB3LYP) =  -1110.24198393     A.U. after   12 cycles
 SCF Done:  E(RB3LYP) =  -1110.24240823     A.U. after   13 cycles
 SCF Done:  E(RB3LYP) =  -1110.24301413     A.U. after   12 cycles
 SCF Done:  E(RB3LYP) =  -1110.24305204     A.U. after   13 cycles
 SCF Done:  E(RB3LYP) =  -1110.24366109     A.U. after   11 cycles
 SCF Done:  E(RB3LYP) =  -1110.24363153     A.U. after   12 cycles
 SCF Done:  E(RB3LYP) =  -1110.24390949     A.U. after   11 cycles
 SCF Done:  E(RB3LYP) =  -1110.24406702     A.U. after   11 cycles
 SCF Done:  E(RB3LYP) =  -1110.24407993     A.U. after   10 cycles
 SCF Done:  E(RB3LYP) =  -1110.24408346     A.U. after    9 cycles
 SCF Done:  E(RB3LYP) =  -1110.24408398     A.U. after    8 cycles
 SCF Done:  E(RB3LYP) =  -1110.24408416     A.U. after    7 cycles
 Optimization completed.
    -- Stationary point found.
 Normal termination of Gaussian 16 at Fri Dec 11 13:15:27 2020.

 --------------------------------------------------------------------
 #N Geom=AllCheck Guess=TCheck SCRF=Check GenChk RB3LYP/6-31G(d) Freq
 --------------------------------------------------------------------

 Structure from the checkpoint file:  "JID_7748.chk"
 -------------------------------
 CID_115246637_JID_7748_neutraal
 -------------------------------
 Charge =  0 Multiplicity = 1

 SCF Done:  E(RB3LYP) =  -1110.24408416     A.U. after    1 cycles

  Exact polarizability: 154.491   4.966 168.183 -11.720   2.750 138.433
 Approx polarizability: 202.638   7.261 259.568 -23.613  13.074 247.459

                      1                      2                      3
                      A                      A                      A
 Frequencies --     24.1490                35.4245                50.7228
 Red. masses --      6.8168                 4.1874                 4.4238
 Frc consts  --      0.0023                 0.0031                 0.0067
 IR Inten    --      0.6687                 0.2090                 0.3825

                      4                      5                      6
                      A                      A                      A
 Frequencies --     53.4284                63.3715                95.6755
 Red. masses --      5.7005                 5.7973                 4.3800
 Frc consts  --      0.0096                 0.0137                 0.0236
 IR Inten    --      0.3159                 0.3451                 0.7756

                      7                      8                      9
                      A                      A                      A
 Frequencies --     99.2106               124.5984               153.2600
 Red. masses --      2.3961                 3.6814                 4.1334
 Frc consts  --      0.0139                 0.0337                 0.0572
 IR Inten    --      0.5162                 0.4839                 0.0938

                     10                     11                     12
                      A                      A                      A
 Frequencies --    207.8102               234.8996               248.3872
 Red. masses --      2.9334                 1.3597                 2.7377
 Frc consts  --      0.0746                 0.0442                 0.0995
 IR Inten    --      0.6968                 0.0242                 0.3369

                     13                     14                     15
                      A                      A                      A
 Frequencies --    271.2846               298.9797               313.4682
 Red. masses --      3.7625                 2.4975                 2.4605
 Frc consts  --      0.1631                 0.1315                 0.1424
 IR Inten    --      0.8705                 0.4686                 3.7305

                     16                     17                     18
                      A                      A                      A
 Frequencies --    343.5989               351.8819               391.9711
 Red. masses --      2.5362                 2.8382                 2.4148
 Frc consts  --      0.1764                 0.2071                 0.2186
 IR Inten    --      0.5497                 0.6021                 6.5051

                     19                     20                     21
                      A                      A                      A
 Frequencies --    454.7837               463.4825               473.7968
 Red. masses --      3.6646                 4.0413                 2.8617
 Frc consts  --      0.4466                 0.5115                 0.3785
 IR Inten    --      1.4944                 2.3971                 4.3598

                     22                     23                     24
                      A                      A                      A
 Frequencies --    526.8277               561.4390               595.5187
 Red. masses --      3.3503                 4.1685                 3.2191
 Frc consts  --      0.5479                 0.7742                 0.6726
 IR Inten    --      6.3183                 0.1032                28.2145

                     25                     26                     27
                      A                      A                      A
 Frequencies --    604.6876               623.1211               680.2028
 Red. masses --      3.0707                 1.2635                 3.3743
 Frc consts  --      0.6615                 0.2890                 0.9198
 IR Inten    --      7.8896                74.0893                 5.1116

                     28                     29                     30
                      A                      A                      A
 Frequencies --    693.5222               703.6106               738.0101
 Red. masses --      1.9959                 1.2875                 2.0866
 Frc consts  --      0.5656                 0.3756                 0.6696
 IR Inten    --      9.3023                65.8831                23.1791

                     31                     32                     33
                      A                      A                      A
 Frequencies --    749.2008               769.2487               799.4403
 Red. masses --      7.2141                 2.8194                 1.9621
 Frc consts  --      2.3858                 0.9830                 0.7388
 IR Inten    --      0.5619                26.4695                 2.8620

                     34                     35                     36
                      A                      A                      A
 Frequencies --    824.5108               834.1027               835.7586
 Red. masses --      1.7118                 2.0220                 1.4891
 Frc consts  --      0.6856                 0.8288                 0.6128
 IR Inten    --      8.9056                 3.4328                 9.8478

                     37                     38                     39
                      A                      A                      A
 Frequencies --    861.1202               890.4575               906.9245
 Red. masses --      4.0039                 2.4360                 1.3210
 Frc consts  --      1.7493                 1.1380                 0.6402
 IR Inten    --      9.5869                 7.0248                 1.8481

                     40                     41                     42
                      A                      A                      A
 Frequencies --    919.9435               954.2427               974.3185
 Red. masses --      2.2792                 2.5970                 2.4264
 Frc consts  --      1.1365                 1.3933                 1.3571
 IR Inten    --      8.2523                 3.8451                 1.1450

                     43                     44                     45
                      A                      A                      A
 Frequencies --    982.2249               997.9871              1029.0742
 Red. masses --      2.7808                 1.8545                 4.3683
 Frc consts  --      1.5806                 1.0882                 2.7255
 IR Inten    --      0.0107                 3.6864                 6.4918

                     46                     47                     48
                      A                      A                      A
 Frequencies --   1037.8942              1071.9983              1080.8613
 Red. masses --      2.3330                 1.7874                 1.9480
 Frc consts  --      1.4807                 1.2102                 1.3408
 IR Inten    --      7.4135                29.7678                27.5948

                     49                     50                     51
                      A                      A                      A
 Frequencies --   1097.7154              1112.5970              1140.1311
 Red. masses --      1.1071                 1.2262                 2.0635
 Frc consts  --      0.7860                 0.8943                 1.5804
 IR Inten    --      2.3761                 4.0979               115.1600

                     52                     53                     54
                      A                      A                      A
 Frequencies --   1154.1354              1155.2968              1176.4625
 Red. masses --      2.7725                 1.8035                 2.5911
 Frc consts  --      2.1759                 1.4182                 2.1130
 IR Inten    --    120.1032                29.2300                15.9352

                     55                     56                     57
                      A                      A                      A
 Frequencies --   1194.8482              1223.1407              1241.7075
 Red. masses --      2.2673                 1.9125                 1.2750
 Frc consts  --      1.9072                 1.6858                 1.1582
 IR Inten    --      8.8886                32.5983                 0.0709

                     58                     59                     60
                      A                      A                      A
 Frequencies --   1245.2696              1245.6035              1273.3991
 Red. masses --      1.5214                 1.5059                 1.2897
 Frc consts  --      1.3900                 1.3766                 1.2322
 IR Inten    --      0.9474                 1.3530                 1.3068

                     61                     62                     63
                      A                      A                      A
 Frequencies --   1292.3943              1295.5545              1297.4424
 Red. masses --      1.5286                 1.4055                 1.3473
 Frc consts  --      1.5043                 1.3900                 1.3363
 IR Inten    --      7.1183                 1.4694                14.0950

                     64                     65                     66
                      A                      A                      A
 Frequencies --   1311.2376              1339.6447              1349.1015
 Red. masses --      1.5701                 1.5939                 1.4651
 Frc consts  --      1.5905                 1.6854                 1.5712
 IR Inten    --      4.6218                 9.3295                12.7316

                     67                     68                     69
                      A                      A                      A
 Frequencies --   1383.5507              1399.5751              1405.4884
 Red. masses --      1.4437                 2.0881                 1.9088
 Frc consts  --      1.6282                 2.4099                 2.2216
 IR Inten    --     15.3390                37.5956                 1.2877

                     70                     71                     72
                      A                      A                      A
 Frequencies --   1422.0203              1443.4343              1487.0931
 Red. masses --      1.3953                 1.3242                 1.1897
 Frc consts  --      1.6623                 1.6255                 1.5501
 IR Inten    --     31.7507                 3.4386                 0.5591

                     73                     74                     75
                      A                      A                      A
 Frequencies --   1497.1656              1504.4404              1506.4810
 Red. masses --      4.4916                 1.1280                 1.0883
 Frc consts  --      5.9318                 1.5042                 1.4552
 IR Inten    --      6.1513                 6.3638                 1.2658

                     76                     77                     78
                      A                      A                      A
 Frequencies --   1507.7657              1520.2509              1523.2726
 Red. masses --      1.1013                 1.0614                 1.0874
 Frc consts  --      1.4751                 1.4453                 1.4867
 IR Inten    --      1.9352                 4.9953                 3.1693

                     79                     80                     81
                      A                      A                      A
 Frequencies --   1532.7951              1534.8533              1539.7707
 Red. masses --      1.0818                 1.0904                 1.1070
 Frc consts  --      1.4975                 1.5135                 1.5463
 IR Inten    --      6.8476                 8.8572                 2.1268

                     82                     83                     84
                      A                      A                      A
 Frequencies --   1599.1431              1825.4998              2963.4101
 Red. masses --      5.1397                 9.5604                 1.0694
 Frc consts  --      7.7440                18.7711                 5.5333
 IR Inten    --      1.5783               248.4047                37.3479

                     85                     86                     87
                      A                      A                      A
 Frequencies --   2975.9416              2988.5588              3042.0324
 Red. masses --      1.0600                 1.0731                 1.0650
 Frc consts  --      5.5311                 5.6468                 5.8065
 IR Inten    --     76.9504                48.9876                28.2225

                     88                     89                     90
                      A                      A                      A
 Frequencies --   3078.6783              3081.3296              3083.6335
 Red. masses --      1.0576                 1.0895                 1.0604
 Frc consts  --      5.9062                 6.0949                 5.9410
 IR Inten    --     30.9651                29.4963                38.0964

                     91                     92                     93
                      A                      A                      A
 Frequencies --   3090.3974              3100.2349              3107.5454
 Red. masses --      1.0773                 1.0985                 1.0628
 Frc consts  --      6.0620                 6.2210                 6.0468
 IR Inten    --     38.6326                19.1769                22.3994

                     94                     95                     96
                      A                      A                      A
 Frequencies --   3124.4343              3128.4643              3141.1005
 Red. masses --      1.1089                 1.1022                 1.1078
 Frc consts  --      6.3779                 6.3560                 6.4399
 IR Inten    --      2.8616                42.9513                32.2045

                     97                     98                     99
                      A                      A                      A
 Frequencies --   3165.3477              3170.7512              3208.9631
 Red. masses --      1.0879                 1.1043                 1.0895
 Frc consts  --      6.4221                 6.5415                 6.6100
 IR Inten    --      3.6962                21.1120                 7.0513

                    100                    101                    102
                      A                      A                      A
 Frequencies --   3226.3381              3271.6517              3688.8981
 Red. masses --      1.0943                 1.0968                 1.0640
 Frc consts  --      6.7113                 6.9171                 8.5311
 IR Inten    --      8.6508                 0.9683                51.7496

 - Thermochemistry -
 -------------------
 Temperature   298.150 Kelvin.  Pressure   1.00000 Atm.
 Atom     1 has atomic number  6 and mass  12.00000

 Molecular mass:   253.11365 amu.
 Principal axes and moments of inertia in atomic units:
                           1         2         3
     Eigenvalues --  2703.801265693.504647036.13053
           X            0.99985  -0.00927  -0.01467
           Y            0.00908   0.99988  -0.01240
           Z            0.01478   0.01227   0.99982
 This molecule is an asymmetric top.
 Rotational symmetry number  1.
 Warning -- assumption of classical behavior for rotation
           may cause significant error
 Rotational temperatures (Kelvin)      0.03203     0.01521     0.01231
 Rotational constants (GHZ):           0.66748     0.31698     0.25650
 Zero-point vibrational energy     803988.8 (Joules/Mol)
                                  192.15793 (Kcal/Mol)
 Warning -- explicit consideration of  25 degrees of freedom as
           vibrations may cause significant error
 Vibrational temperatures:     34.75    50.97    72.98    76.87    91.18
          (Kelvin)            137.66   142.74   179.27   220.51   298.99
                              337.97   357.37   390.32   430.17   451.01
                              494.36   506.28   563.96   654.33   666.85
                              681.69   757.99   807.79   856.82   870.01
                              896.53   978.66   997.82  1012.34  1061.83
                             1077.93  1106.78  1150.22  1186.29  1200.09
                             1202.47  1238.96  1281.17  1304.86  1323.59
                             1372.94  1401.83  1413.20  1435.88  1480.61
                             1493.30  1542.37  1555.12  1579.37  1600.78
                             1640.39  1660.54  1662.21  1692.67  1719.12
                             1759.83  1786.54  1791.67  1792.15  1832.14
                             1859.47  1864.01  1866.73  1886.58  1927.45
                             1941.06  1990.62  2013.68  2022.18  2045.97
                             2076.78  2139.60  2154.09  2164.55  2167.49
                             2169.34  2187.30  2191.65  2205.35  2208.31
                             2215.39  2300.81  2626.49  4263.69  4281.72
                             4299.87  4376.81  4429.53  4433.35  4436.66
                             4446.39  4460.55  4471.06  4495.36  4501.16
                             4519.34  4554.23  4562.00  4616.98  4641.98
                             4707.18  5307.50

 Zero-point correction=                           0.306223 (Hartree/Particle)
 Thermal correction to Energy=                    0.323353
 Thermal correction to Enthalpy=                  0.324297
 Thermal correction to Gibbs Free Energy=         0.259460
 Sum of electronic and zero-point Energies=          -1109.937861
 Sum of electronic and thermal Energies=             -1109.920732
 Sum of electronic and thermal Enthalpies=           -1109.919787
 Sum of electronic and thermal Free Energies=        -1109.984624

                     E (Thermal)             CV                S
                      KCal/Mol        Cal/Mol-Kelvin    Cal/Mol-Kelvin
 Total                  202.907             64.853            136.461
 Electronic               0.000              0.000              0.000
 Translational            0.889              2.981             42.486
 Rotational               0.889              2.981             33.049
 Vibrational            201.129             58.891             60.926
 Vibration     1          0.593              1.985              6.260
 Vibration     2          0.594              1.982              5.500
 Vibration     3          0.595              1.977              4.789
 Vibration     4          0.596              1.976              4.686
 Vibration     5          0.597              1.972              4.349
 Vibration     6          0.603              1.952              3.541
 Vibration     7          0.604              1.950              3.470
 Vibration     8          0.610              1.928              3.028
 Vibration     9          0.619              1.899              2.631
 Vibration    10          0.641              1.829              2.063
 Vibration    11          0.655              1.787              1.841
 Vibration    12          0.662              1.765              1.742
 Vibration    13          0.675              1.726              1.588
 Vibration    14          0.692              1.676              1.423
 Vibration    15          0.701              1.648              1.344
 Vibration    16          0.722              1.588              1.195
 Vibration    17          0.728              1.571              1.158
 Vibration    18          0.759              1.487              0.993
 Vibration    19          0.813              1.350              0.781
 Vibration    20          0.821              1.331              0.756
 Vibration    21          0.831              1.308              0.727
 Vibration    22          0.882              1.191              0.594
 Vibration    23          0.917              1.115              0.521
 Vibration    24          0.953              1.041              0.457
 Vibration    25          0.963              1.022              0.442

 Optimization completed.
    -- Stationary point found.
 Normal termination of Gaussian 16 at Fri Dec 11 13:30:27 2020.

 ----------------------------------------------------------------------
 # B3LYP/6-311++G(d,p) empiricaldispersion=gd3bj scf=xqc pop=npa geom=c
 heck
 ----------------------------------------------------------------------

 ---------------------------------------
 CID_115246637_JID_7748_Energie_neutraal
 ---------------------------------------
 Structure from the checkpoint file:  "JID_7748.chk"
 Charge =  0 Multiplicity = 1

 SCF Done:  E(RB3LYP) =  -1110.47590972     A.U. after   16 cycles
 Normal termination of Gaussian 16 at Fri Dec 11 13:37:28 2020.

 ----------------------------------------------------------------------
 # B3LYP/6-311++G(d,p) empiricaldispersion=gd3bj scf=xqc pop=npa geom=c
 heck
 ----------------------------------------------------------------------

 -------------------------------------
 CID_115246637_JID_7748_Energie_kation
 -------------------------------------
 Structure from the checkpoint file:  "JID_7748.chk"
 Charge =  1 Multiplicity = 2

 SCF Done:  E(UB3LYP) =  -1110.19570387     A.U. after   26 cycles
 Normal termination of Gaussian 16 at Fri Dec 11 13:52:51 2020.
 Gaussian 16:  ES64L-G16RevA.03 25-Dec-2016

 ----------------------------------------------------------------------
 # B3LYP/6-311++G(d,p) empiricaldispersion=gd3bj scf=xqc pop=npa geom=c
 heck
 ----------------------------------------------------------------------

 ------------------------------------
 CID_115246637_JID_7748_Energie_anion
 ------------------------------------
 Structure from the checkpoint file:  "JID_7748.chk"
 Charge = -1 Multiplicity = 2

                         Standard orientation:
 ---------------------------------------------------------------------
 Center     Atomic      Atomic             Coordinates (Angstroms)
 Number     Number       Type             X           Y           Z
 ---------------------------------------------------------------------
      1          6           0        1.514051    2.529465   -0.627316
      2          7           0        0.341436    1.707211   -0.351578
      3          6           0       -0.834885    2.502081   -0.000485
      4          6           0       -2.154485    1.940168   -0.574180
      5          6           0       -2.558078    0.594471   -0.042392
      6          6           0       -3.038149    0.276699    1.203045
      7          6           0       -3.219623   -1.125923    1.404408
      8          6           0       -2.884332   -1.866710    0.303790
      9         16           0       -2.343515   -0.851421   -0.995551
     10          6           0        0.612652    0.668360    0.646955
     11          6           0        1.569908   -0.425192    0.151793
     12          6           0        1.193093   -1.893987    0.596799
     13          6           0        1.276781   -2.363659   -0.875878
     14          6           0        1.385617   -0.888162   -1.329403
     15          6           0        3.001472   -0.130917    0.542116
     16          8           0        3.371250    0.671209    1.374712
     17          8           0        3.892529   -0.922548   -0.115188
     18          1           0        1.265032    3.274041   -1.390183
     19          1           0        2.318218    1.905763   -1.028469
     20          1           0        1.908244    3.049877    0.263642
     21          1           0       -0.932946    2.629656    1.092446
     22          1           0       -0.708402    3.506383   -0.419239
     23          1           0       -2.950915    2.661472   -0.347154
     24          1           0       -2.059555    1.900495   -1.664290
     25          1           0       -3.239407    1.026004    1.961844
     26          1           0       -3.589943   -1.561051    2.326222
     27          1           0       -2.943224   -2.938259    0.171292
     28          1           0        1.010419    1.101883    1.580314
     29          1           0       -0.339146    0.198411    0.887444
     30          1           0        1.873679   -2.374429    1.305121
     31          1           0        0.179075   -1.925826    1.004363
     32          1           0        0.409047   -2.916589   -1.247643
     33          1           0        2.180858   -2.940401   -1.084503
     34          1           0        0.458579   -0.480277   -1.731698
     35          1           0        2.205348   -0.646231   -2.009176
     36          1           0        4.766847   -0.688122    0.247843
 ---------------------------------------------------------------------

 SCF Done:  E(UB3LYP) =  -1110.46330751     A.U. after   33 cycles
 SCF Done:  E(UB3LYP) =  -1110.46330751     a.u. after    1 cycles

 The electronic state is 2-A.
 Alpha  occ. eigenvalues --  -88.77271 -19.07196 -19.01882 -14.20759 -10.20827
 Alpha  occ. eigenvalues --  -10.09979 -10.09862 -10.09845 -10.09544 -10.08912
 Alpha  occ. eigenvalues --  -10.08773 -10.08153 -10.08043 -10.07969 -10.07150
 Alpha  occ. eigenvalues --  -10.07079 -10.06912  -7.85917  -5.82193  -5.81833
 Alpha  occ. eigenvalues --   -5.81533  -1.01347  -0.92284  -0.82862  -0.78186
 Alpha  occ. eigenvalues --   -0.75812  -0.68275  -0.63734  -0.63480  -0.61275
 Alpha  occ. eigenvalues --   -0.59075  -0.57119  -0.55205  -0.51249  -0.48725
 Alpha  occ. eigenvalues --   -0.46424  -0.44990  -0.43534  -0.40694  -0.40554
 Alpha  occ. eigenvalues --   -0.39900  -0.38465  -0.37525  -0.37153  -0.35379
 Alpha  occ. eigenvalues --   -0.34875  -0.33033  -0.32369  -0.31299  -0.30636
 Alpha  occ. eigenvalues --   -0.30017  -0.29788  -0.29273  -0.28311  -0.27570
 Alpha  occ. eigenvalues --   -0.26379  -0.25486  -0.25392  -0.24634  -0.24092
 Alpha  occ. eigenvalues --   -0.23753  -0.23064  -0.21440  -0.20997  -0.18113
 Alpha  occ. eigenvalues --   -0.15748  -0.13723  -0.11851   0.04254
 Alpha virt. eigenvalues --    0.05581   0.06480   0.07330   0.07596   0.08287
 Alpha virt. eigenvalues --    0.08473   0.08974   0.09087   0.09218   0.10241
 Alpha virt. eigenvalues --    0.10853   0.11091   0.11573   0.11681   0.12167

  Beta  occ. eigenvalues --  -88.77257 -19.07152 -19.01870 -14.20756 -10.20826
  Beta  occ. eigenvalues --  -10.09879 -10.09856 -10.09820 -10.09458 -10.08910
  Beta  occ. eigenvalues --  -10.08758 -10.08145 -10.08035 -10.07968 -10.07132
  Beta  occ. eigenvalues --  -10.07072 -10.06906  -7.85903  -5.82187  -5.81827
  Beta  occ. eigenvalues --   -5.81484  -1.01292  -0.92238  -0.82851  -0.78081
  Beta  occ. eigenvalues --   -0.75796  -0.68181  -0.63705  -0.63402  -0.61181
  Beta  occ. eigenvalues --   -0.59028  -0.57100  -0.55144  -0.51184  -0.48684
  Beta  occ. eigenvalues --   -0.46315  -0.44940  -0.43419  -0.40654  -0.40504
  Beta  occ. eigenvalues --   -0.39872  -0.38444  -0.37496  -0.37103  -0.35351
  Beta  occ. eigenvalues --   -0.34849  -0.32996  -0.32329  -0.31231  -0.30591
  Beta  occ. eigenvalues --   -0.29976  -0.29708  -0.29233  -0.28185  -0.27545
  Beta  occ. eigenvalues --   -0.26322  -0.25430  -0.25358  -0.24583  -0.24016
  Beta  occ. eigenvalues --   -0.23714  -0.23033  -0.21423  -0.20981  -0.18077
  Beta  occ. eigenvalues --   -0.15537  -0.13333  -0.11765
  Beta virt. eigenvalues --    0.06369   0.06937   0.06942   0.07786   0.08106
  Beta virt. eigenvalues --    0.08544   0.08764   0.09167   0.09365   0.09531
  Beta virt. eigenvalues --    0.10400   0.11093   0.11336   0.11627   0.11829

 Mulliken charges and spin densities:
               1          2
     1  C    0.096283  -0.414114
     2  N    0.340780   0.094750
     3  C    0.629183  -0.745487
     4  C    0.542106  -1.394820
     5  C   -0.604996   1.142964
     6  C   -0.842342   0.340012
     7  C    0.427517  -0.740468
     8  C   -0.472289   0.116670
     9  S    0.667692  -0.242494
    10  C   -2.043530   0.152183
    11  C    1.362090  -0.311522
    12  C   -0.593978   0.244023
    13  C    0.243781  -0.623242
    14  C   -0.264117   0.027899
    15  C    0.384069  -0.604519
    16  O   -0.257606   0.021622
    17  O   -0.126297   0.062175
    18  H   -0.119196   0.266000
    19  H   -0.050526   0.211250
    20  H    0.119797   0.037642
    21  H    0.069516   0.047377
    22  H   -0.213326   0.377088
    23  H   -0.335043   0.537978
    24  H   -0.067503   0.219828
    25  H   -0.313221   0.466668
    26  H   -0.123525   0.273109
    27  H   -0.015786   0.245419
    28  H    0.145162   0.035715
    29  H    0.382069  -0.111206
    30  H   -0.115185   0.324450
    31  H    0.178855  -0.049246
    32  H    0.070551   0.061216
    33  H    0.013830   0.137161
    34  H    0.231013  -0.043106
    35  H    0.037467   0.161350
    36  H   -0.383294   0.675674
 Sum of Mulliken charges =  -1.00000   1.00000

 Dipole moment (field-independent basis, Debye):
    X=             -1.7755    Y=             -2.6002    Z=             -0.4992  Tot=              3.1879
 Quadrupole moment (field-independent basis, Debye-Ang):
   XX=           -198.1415   YY=           -157.9239   ZZ=           -140.5686
   XY=             12.1525   XZ=             -0.2945   YZ=              1.2667

 Summary of Natural Population Analysis:

                                       Natural Population
                Natural  -----------------------------------------------
    Atom  No    Charge         Core      Valence    Rydberg      Total
 -----------------------------------------------------------------------
      C    1   -0.17342      0.99964     2.16587    0.00791     3.17342
      N    2   -0.28717      0.99971     2.77503    0.01243     3.78717
      C    3   -0.07313      0.99960     2.06169    0.01185     3.07313
      C    4   -0.21019      0.99956     2.19828    0.01235     3.21019
      C    5   -0.08333      0.99950     2.06936    0.01447     3.08333
      C    6   -0.13505      0.99944     2.12539    0.01022     3.13505
      C    7   -0.12953      0.99953     2.11909    0.01090     3.12953
      C    8   -0.19217      0.99954     2.18179    0.01084     3.19217
      S    9    0.20955      4.99938     2.77132    0.01975     7.79045
      C   10   -0.08419      0.99956     2.07377    0.01087     3.08419
      C   11   -0.08839      0.99951     2.07434    0.01454     3.08839
      C   12   -0.17407      0.99961     2.16589    0.00857     3.17407
      C   13   -0.19367      0.99964     2.18589    0.00814     3.19367
      C   14   -0.18260      0.99961     2.17418    0.00881     3.18260
      C   15    0.41275      0.99960     1.56149    0.02615     2.58725
      O   16   -0.31055      0.99987     3.30474    0.00594     4.31055
      O   17   -0.34866      0.99988     3.34139    0.00739     4.34866
      H   18    0.09427      0.00000     0.40485    0.00089     0.40573
      H   19    0.09383      0.00000     0.40500    0.00116     0.40617
      H   20    0.08546      0.00000     0.41362    0.00092     0.41454
      H   21    0.08324      0.00000     0.41524    0.00152     0.41676
      H   22    0.09760      0.00000     0.40062    0.00178     0.40240
      H   23    0.10931      0.00000     0.38842    0.00227     0.39069
      H   24    0.10475      0.00000     0.39369    0.00155     0.39525
      H   25    0.10726      0.00000     0.39159    0.00115     0.39274
      H   26    0.10450      0.00000     0.39466    0.00084     0.39550
      H   27    0.10720      0.00000     0.39193    0.00087     0.39280
      H   28    0.09552      0.00000     0.40307    0.00141     0.40448
      H   29    0.10581      0.00000     0.39140    0.00279     0.39419
      H   30    0.09932      0.00000     0.39962    0.00105     0.40068
      H   31    0.10467      0.00000     0.39394    0.00139     0.39533
      H   32    0.09486      0.00000     0.40418    0.00096     0.40514
      H   33    0.10042      0.00000     0.39819    0.00140     0.39958
      H   34    0.11070      0.00000     0.38749    0.00181     0.38930
      H   35    0.10242      0.00000     0.39642    0.00116     0.39758
      H   36    0.24265      0.00000     0.24330    0.01405     0.25735
 =======================================================================
   * Total *   -0.00000     20.99318    46.76672    0.24009    68.00000

 Normal termination of Gaussian 16 at Fri Dec 11 14:12:38 2020.
