 Gaussian 16, Revision A.03,

 -----------------------------------------------------------
 # opt freq B3LYP/6-31G(d) empiricaldispersion=gd3bj scf=xqc
 -----------------------------------------------------------

 ------------------------------
 CID_43398763_JID_8858_neutraal
 ------------------------------
 Symbolic Z-matrix:
 Charge =  0 Multiplicity = 1

 SCF Done:  E(RB3LYP) =  -791.905084472     A.U. after   14 cycles
 SCF Done:  E(RB3LYP) =  -791.909565520     A.U. after   12 cycles
 SCF Done:  E(RB3LYP) =  -791.910128068     A.U. after   11 cycles
 SCF Done:  E(RB3LYP) =  -791.910353690     A.U. after   11 cycles
 SCF Done:  E(RB3LYP) =  -791.910477746     A.U. after   11 cycles
 SCF Done:  E(RB3LYP) =  -791.910552386     A.U. after   11 cycles
 SCF Done:  E(RB3LYP) =  -791.910768940     A.U. after   12 cycles
 SCF Done:  E(RB3LYP) =  -791.910956948     A.U. after   11 cycles
 SCF Done:  E(RB3LYP) =  -791.911066200     A.U. after   11 cycles
 SCF Done:  E(RB3LYP) =  -791.911173340     A.U. after   11 cycles
 SCF Done:  E(RB3LYP) =  -791.911280942     A.U. after   10 cycles
 SCF Done:  E(RB3LYP) =  -791.911279420     A.U. after    9 cycles
 SCF Done:  E(RB3LYP) =  -791.911281636     A.U. after    9 cycles
 SCF Done:  E(RB3LYP) =  -791.911281678     A.U. after    8 cycles
 SCF Done:  E(RB3LYP) =  -791.911281844     A.U. after    7 cycles
 Optimization completed.
    -- Stationary point found.
 Normal termination of Gaussian 16 at Fri Dec 11 22:28:40 2020.

 --------------------------------------------------------------------
 #N Geom=AllCheck Guess=TCheck SCRF=Check GenChk RB3LYP/6-31G(d) Freq
 --------------------------------------------------------------------

 Structure from the checkpoint file:  "JID_8858.chk"
 ------------------------------
 CID_43398763_JID_8858_neutraal
 ------------------------------
 Charge =  0 Multiplicity = 1

 SCF Done:  E(RB3LYP) =  -791.911281844     A.U. after    1 cycles

  Exact polarizability: 208.995   5.653 168.350 -20.384   3.187 132.336
 Approx polarizability: 269.561   4.171 270.531 -42.033  12.032 202.255

                      1                      2                      3
                      A                      A                      A
 Frequencies --     15.9458                22.7634                43.7905
 Red. masses --      4.2352                 3.9111                 3.5159
 Frc consts  --      0.0006                 0.0012                 0.0040
 IR Inten    --      0.2606                 0.7105                 0.3926

                      4                      5                      6
                      A                      A                      A
 Frequencies --     44.0986                69.4380                78.7751
 Red. masses --      4.2209                 2.9142                 3.4342
 Frc consts  --      0.0048                 0.0083                 0.0126
 IR Inten    --      0.2455                 0.8337                 2.8111

                      7                      8                      9
                      A                      A                      A
 Frequencies --     92.5418               124.5873               147.3550
 Red. masses --      2.3209                 3.9872                 2.6944
 Frc consts  --      0.0117                 0.0365                 0.0345
 IR Inten    --      0.1675                 0.3158                 0.8440

                     10                     11                     12
                      A                      A                      A
 Frequencies --    172.5453               199.9144               203.3645
 Red. masses --      3.8025                 1.3253                 2.0792
 Frc consts  --      0.0667                 0.0312                 0.0507
 IR Inten    --      0.6964                 0.0217                 0.1336

                     13                     14                     15
                      A                      A                      A
 Frequencies --    224.8064               241.2494               255.5908
 Red. masses --      2.2869                 1.3457                 1.9455
 Frc consts  --      0.0681                 0.0461                 0.0749
 IR Inten    --      0.9688                 0.0957                 0.5401

                     16                     17                     18
                      A                      A                      A
 Frequencies --    279.7004               299.9721               323.8974
 Red. masses --      1.8149                 2.0493                 2.3601
 Frc consts  --      0.0837                 0.1086                 0.1459
 IR Inten    --      0.2365                 0.2575                 4.3927

                     19                     20                     21
                      A                      A                      A
 Frequencies --    338.3260               351.5909               372.6068
 Red. masses --      2.8116                 2.8039                 2.6427
 Frc consts  --      0.1896                 0.2042                 0.2162
 IR Inten    --      3.3294                 1.0006                 2.8970

                     22                     23                     24
                      A                      A                      A
 Frequencies --    387.2328               436.8714               439.7385
 Red. masses --      2.4919                 2.2760                 2.1699
 Frc consts  --      0.2202                 0.2559                 0.2472
 IR Inten    --      0.4899                 4.1632                 0.7815

                     25                     26                     27
                      A                      A                      A
 Frequencies --    445.6487               468.1360               473.4304
 Red. masses --      1.5657                 1.7837                 3.0367
 Frc consts  --      0.1832                 0.2303                 0.4010
 IR Inten    --     60.4086                42.5372                 6.2905

                     28                     29                     30
                      A                      A                      A
 Frequencies --    527.3749               540.8291               555.3702
 Red. masses --      3.4836                 3.1364                 3.3340
 Frc consts  --      0.5708                 0.5405                 0.6059
 IR Inten    --      0.3014                 4.6725                 1.5792

                     31                     32                     33
                      A                      A                      A
 Frequencies --    567.3361               648.4077               707.1307
 Red. masses --      5.3001                 3.6972                 4.3686
 Frc consts  --      1.0051                 0.9158                 1.2870
 IR Inten    --     15.3463                 9.8465                17.8107

                     34                     35                     36
                      A                      A                      A
 Frequencies --    708.2625               726.5117               768.2435
 Red. masses --      2.6529                 1.2569                 2.8125
 Frc consts  --      0.7841                 0.3909                 0.9780
 IR Inten    --     34.1009                12.5804                66.8240

                     37                     38                     39
                      A                      A                      A
 Frequencies --    777.4603               816.8421               829.6923
 Red. masses --      1.6811                 3.1297                 2.2813
 Frc consts  --      0.5987                 1.2304                 0.9253
 IR Inten    --     19.1269                12.9941                 8.7569

                     40                     41                     42
                      A                      A                      A
 Frequencies --    837.9583               856.3711               869.7857
 Red. masses --      1.5435                 1.5177                 1.5218
 Frc consts  --      0.6386                 0.6558                 0.6783
 IR Inten    --     10.3256                19.2362                18.7073

                     43                     44                     45
                      A                      A                      A
 Frequencies --    888.6357               918.6039               934.8413
 Red. masses --      1.7598                 1.6996                 1.3575
 Frc consts  --      0.8188                 0.8450                 0.6990
 IR Inten    --      1.2697                 1.2953                 1.1216

                     46                     47                     48
                      A                      A                      A
 Frequencies --    948.1100               957.2875               969.7298
 Red. masses --      2.3324                 1.6056                 2.0949
 Frc consts  --      1.2353                 0.8669                 1.1607
 IR Inten    --      1.8384                 1.4521                 1.5732

                     49                     50                     51
                      A                      A                      A
 Frequencies --    997.6971              1035.1470              1050.9478
 Red. masses --      1.5814                 1.7503                 1.8910
 Frc consts  --      0.9274                 1.1050                 1.2306
 IR Inten    --      4.9773                 2.2031                 1.8985

                     52                     53                     54
                      A                      A                      A
 Frequencies --   1073.5475              1079.7223              1105.1305
 Red. masses --      1.3216                 4.1956                 2.4952
 Frc consts  --      0.8974                 2.8818                 1.7955
 IR Inten    --      0.3732                47.9356                 5.8963

                     55                     56                     57
                      A                      A                      A
 Frequencies --   1130.2471              1152.3457              1156.4534
 Red. masses --      2.9555                 1.6925                 2.2045
 Frc consts  --      2.2245                 1.3242                 1.7371
 IR Inten    --     29.8635                30.7170                 5.4651

                     58                     59                     60
                      A                      A                      A
 Frequencies --   1168.8530              1183.9935              1188.0607
 Red. masses --      1.5765                 1.9756                 1.3401
 Frc consts  --      1.2690                 1.6318                 1.1145
 IR Inten    --     26.1666                50.1085                 8.6535

                     61                     62                     63
                      A                      A                      A
 Frequencies --   1188.3052              1221.3613              1237.4890
 Red. masses --      2.1599                 1.5571                 1.3445
 Frc consts  --      1.7969                 1.3686                 1.2131
 IR Inten    --     48.8533                20.2985                 9.4214

                     64                     65                     66
                      A                      A                      A
 Frequencies --   1244.4527              1248.0601              1284.9786
 Red. masses --      1.3737                 1.4173                 1.5834
 Frc consts  --      1.2534                 1.3007                 1.5404
 IR Inten    --      3.8356                77.1916                19.3672

                     67                     68                     69
                      A                      A                      A
 Frequencies --   1286.8701              1310.5591              1317.6063
 Red. masses --      2.5971                 1.3395                 3.4321
 Frc consts  --      2.5340                 1.3556                 3.5106
 IR Inten    --    117.0529                 8.9092               248.1590

                     70                     71                     72
                      A                      A                      A
 Frequencies --   1337.0416              1346.5170              1361.6346
 Red. masses --      1.2068                 1.5445                 1.2203
 Frc consts  --      1.2711                 1.6499                 1.3330
 IR Inten    --      2.4274                 9.5638                 4.0323

                     73                     74                     75
                      A                      A                      A
 Frequencies --   1373.5546              1386.1969              1391.4908
 Red. masses --      1.3698                 1.3587                 1.3154
 Frc consts  --      1.5226                 1.5383                 1.5006
 IR Inten    --      3.1631                16.0878                10.3502

                     76                     77                     78
                      A                      A                      A
 Frequencies --   1406.9243              1415.9930              1424.3144
 Red. masses --      1.3564                 1.4033                 1.3820
 Frc consts  --      1.5819                 1.6578                 1.6519
 IR Inten    --      4.3008                 3.2309                 1.2106

                     79                     80                     81
                      A                      A                      A
 Frequencies --   1433.0682              1438.4989              1443.5090
 Red. masses --      2.2725                 1.3273                 1.2706
 Frc consts  --      2.7498                 1.6182                 1.5599
 IR Inten    --     40.3561                12.0096                 6.3872

                     82                     83                     84
                      A                      A                      A
 Frequencies --   1485.2960              1496.5438              1507.4690
 Red. masses --      2.3459                 1.1133                 1.0889
 Frc consts  --      3.0492                 1.4691                 1.4579
 IR Inten    --     42.1065                 4.4781                 2.7245

                     85                     86                     87
                      A                      A                      A
 Frequencies --   1508.4860              1513.7687              1517.9791
 Red. masses --      1.3307                 1.1341                 1.0478
 Frc consts  --      1.7841                 1.5312                 1.4226
 IR Inten    --      3.0271                10.2511                 7.0449

                     88                     89                     90
                      A                      A                      A
 Frequencies --   1520.8142              1524.1873              1526.4408
 Red. masses --      1.0989                 1.0647                 1.0872
 Frc consts  --      1.4974                 1.4573                 1.4926
 IR Inten    --      3.0875                 3.8765                 0.6588

                     91                     92                     93
                      A                      A                      A
 Frequencies --   1531.3874              1534.8750              1536.2140
 Red. masses --      1.0693                 1.0662                 1.0776
 Frc consts  --      1.4775                 1.4799                 1.4983
 IR Inten    --      3.9612                13.8631                47.6934

                     94                     95                     96
                      A                      A                      A
 Frequencies --   1539.5624              1546.3716              1566.7832
 Red. masses --      1.0697                 1.0740                 3.1244
 Frc consts  --      1.4938                 1.5131                 4.5189
 IR Inten    --      8.9451                 1.0114               169.0276

                     97                     98                     99
                      A                      A                      A
 Frequencies --   1664.2205              1673.3699              3025.7269
 Red. masses --      5.9929                 6.2518                 1.0632
 Frc consts  --      9.7793                10.3142                 5.7349
 IR Inten    --     20.0375                17.5532                30.0266

                    100                    101                    102
                      A                      A                      A
 Frequencies --   3026.6405              3031.5228              3034.4903
 Red. masses --      1.0674                 1.0340                 1.0570
 Frc consts  --      5.7609                 5.5990                 5.7347
 IR Inten    --      5.4045                43.6789                 8.6076

                    103                    104                    105
                      A                      A                      A
 Frequencies --   3035.9394              3040.1251              3043.3752
 Red. masses --      1.0564                 1.0594                 1.0429
 Frc consts  --      5.7369                 5.7686                 5.6912
 IR Inten    --     40.5807                48.7540                16.6818

                    106                    107                    108
                      A                      A                      A
 Frequencies --   3047.8488              3052.7971              3058.5363
 Red. masses --      1.0576                 1.0814                 1.0942
 Frc consts  --      5.7883                 5.9378                 6.0307
 IR Inten    --     21.5059                14.3896                33.3663

                    109                    110                    111
                      A                      A                      A
 Frequencies --   3066.0154              3075.6860              3083.0463
 Red. masses --      1.1004                 1.1005                 1.1045
 Frc consts  --      6.0946                 6.1337                 6.1857
 IR Inten    --     29.6619               102.7297                17.5526

                    112                    113                    114
                      A                      A                      A
 Frequencies --   3090.0981              3091.9867              3105.0982
 Red. masses --      1.0967                 1.1069                 1.0944
 Frc consts  --      6.1699                 6.2350                 6.2170
 IR Inten    --     71.9786                40.5058                34.1212

                    115                    116                    117
                      A                      A                      A
 Frequencies --   3108.5889              3117.2802              3155.0419
 Red. masses --      1.1014                 1.1019                 1.0976
 Frc consts  --      6.2706                 6.3088                 6.4374
 IR Inten    --     50.7885                47.2973                18.8940

                    118                    119                    120
                      A                      A                      A
 Frequencies --   3162.6107              3185.6587              3198.0041
 Red. masses --      1.1007                 1.0886                 1.0889
 Frc consts  --      6.4863                 6.5090                 6.5612
 IR Inten    --     25.4689                13.4833                10.5294

                    121                    122                    123
                      A                      A                      A
 Frequencies --   3216.0768              3486.6595              3702.9754
 Red. masses --      1.0930                 1.0737                 1.0647
 Frc consts  --      6.6609                 7.6906                 8.6013
 IR Inten    --      8.1309                 1.3298                88.6145

 - Thermochemistry -
 -------------------
 Temperature   298.150 Kelvin.  Pressure   1.00000 Atm.
 Atom     1 has atomic number  6 and mass  12.00000

 Molecular mass:   251.18853 amu.
 Principal axes and moments of inertia in atomic units:
                           1         2         3
     Eigenvalues --  2176.74137********************
           X            0.99991   0.01371   0.00016
           Y           -0.01370   0.99964  -0.02299
           Z           -0.00047   0.02299   0.99974
 This molecule is an asymmetric top.
 Rotational symmetry number  1.
 Warning -- assumption of classical behavior for rotation
           may cause significant error
 Rotational temperatures (Kelvin)      0.03979     0.00800     0.00756
 Rotational constants (GHZ):           0.82910     0.16675     0.15755
 Zero-point vibrational energy    1009438.1 (Joules/Mol)
                                  241.26150 (Kcal/Mol)
 Warning -- explicit consideration of  31 degrees of freedom as
           vibrations may cause significant error
 Vibrational temperatures:     22.94    32.75    63.00    63.45    99.91
          (Kelvin)            113.34   133.15   179.25   212.01   248.25
                              287.63   292.60   323.45   347.10   367.74
                              402.43   431.59   466.02   486.78   505.86
                              536.10   557.14   628.56   632.69   641.19
                              673.54   681.16   758.77   778.13   799.05
                              816.27   932.91  1017.40  1019.03  1045.29
                             1105.33  1118.59  1175.25  1193.74  1205.64
                             1232.13  1251.43  1278.55  1321.67  1345.03
                             1364.12  1377.32  1395.22  1435.46  1489.35
                             1512.08  1544.60  1553.48  1590.04  1626.17
                             1657.97  1663.88  1681.72  1703.50  1709.35
                             1709.71  1757.27  1780.47  1790.49  1795.68
                             1848.80  1851.52  1885.60  1895.74  1923.70
                             1937.34  1959.09  1976.24  1994.43  2002.04
                             2024.25  2037.30  2049.27  2061.87  2069.68
                             2076.89  2137.01  2153.19  2168.91  2170.37
                             2177.98  2184.03  2188.11  2192.97  2196.21
                             2203.32  2208.34  2210.27  2215.09  2224.88
                             2254.25  2394.44  2407.61  4353.35  4354.66
                             4361.69  4365.95  4368.04  4374.06  4378.74
                             4385.17  4392.29  4400.55  4411.31  4425.23
                             4435.82  4445.96  4448.68  4467.54  4472.57
                             4485.07  4539.40  4550.29  4583.45  4601.21
                             4627.22  5016.53  5327.76

 Zero-point correction=                           0.384475 (Hartree/Particle)
 Thermal correction to Energy=                    0.404235
 Thermal correction to Enthalpy=                  0.405180
 Thermal correction to Gibbs Free Energy=         0.334341
 Sum of electronic and zero-point Energies=           -791.526807
 Sum of electronic and thermal Energies=              -791.507046
 Sum of electronic and thermal Enthalpies=            -791.506102
 Sum of electronic and thermal Free Energies=         -791.576940

                     E (Thermal)             CV                S
                      KCal/Mol        Cal/Mol-Kelvin    Cal/Mol-Kelvin
 Total                  253.662             74.685            149.092
 Electronic               0.000              0.000              0.000
 Translational            0.889              2.981             42.463
 Rotational               0.889              2.981             33.956
 Vibrational            251.884             68.724             72.672
 Vibration     1          0.593              1.986              7.084
 Vibration     2          0.593              1.985              6.377
 Vibration     3          0.595              1.980              5.080
 Vibration     4          0.595              1.980              5.066
 Vibration     5          0.598              1.969              4.169
 Vibration     6          0.600              1.963              3.921
 Vibration     7          0.602              1.955              3.606
 Vibration     8          0.610              1.928              3.028
 Vibration     9          0.617              1.906              2.706
 Vibration    10          0.626              1.876              2.408
 Vibration    11          0.638              1.840              2.134
 Vibration    12          0.639              1.835              2.102
 Vibration    13          0.649              1.803              1.920
 Vibration    14          0.658              1.777              1.794
 Vibration    15          0.666              1.753              1.692
 Vibration    16          0.680              1.711              1.536
 Vibration    17          0.693              1.674              1.417
 Vibration    18          0.708              1.628              1.290
 Vibration    19          0.719              1.599              1.220
 Vibration    20          0.728              1.572              1.159
 Vibration    21          0.744              1.528              1.069
 Vibration    22          0.756              1.497              1.011
 Vibration    23          0.797              1.390              0.836
 Vibration    24          0.800              1.384              0.827
 Vibration    25          0.805              1.370              0.809
 Vibration    26          0.825              1.321              0.743
 Vibration    27          0.830              1.309              0.728
 Vibration    28          0.882              1.189              0.593
 Vibration    29          0.896              1.160              0.564
 Vibration    30          0.911              1.128              0.533
 Vibration    31          0.923              1.102              0.509

 Optimization completed.
    -- Stationary point found.
 Normal termination of Gaussian 16 at Fri Dec 11 22:50:08 2020.

 ----------------------------------------------------------------------
 # B3LYP/6-311++G(d,p) empiricaldispersion=gd3bj scf=xqc pop=npa geom=c
 heck
 ----------------------------------------------------------------------

 --------------------------------------
 CID_43398763_JID_8858_Energie_neutraal
 --------------------------------------
 Structure from the checkpoint file:  "JID_8858.chk"
 Charge =  0 Multiplicity = 1

 SCF Done:  E(RB3LYP) =  -792.142626703     A.U. after   15 cycles
 Normal termination of Gaussian 16 at Fri Dec 11 23:00:47 2020.

 ----------------------------------------------------------------------
 # B3LYP/6-311++G(d,p) empiricaldispersion=gd3bj scf=xqc pop=npa geom=c
 heck
 ----------------------------------------------------------------------

 ------------------------------------
 CID_43398763_JID_8858_Energie_kation
 ------------------------------------
 Structure from the checkpoint file:  "JID_8858.chk"
 Charge =  1 Multiplicity = 2

 SCF Done:  E(UB3LYP) =  -791.868755562     A.U. after   24 cycles
 Normal termination of Gaussian 16 at Fri Dec 11 23:25:17 2020.
 Gaussian 16:  ES64L-G16RevA.03 25-Dec-2016

 ----------------------------------------------------------------------
 # B3LYP/6-311++G(d,p) empiricaldispersion=gd3bj scf=xqc pop=npa geom=c
 heck
 ----------------------------------------------------------------------

 -----------------------------------
 CID_43398763_JID_8858_Energie_anion
 -----------------------------------
 Structure from the checkpoint file:  "JID_8858.chk"
 Charge = -1 Multiplicity = 2

                         Standard orientation:
 ---------------------------------------------------------------------
 Center     Atomic      Atomic             Coordinates (Angstroms)
 Number     Number       Type             X           Y           Z
 ---------------------------------------------------------------------
      1          6           0       -5.953116   -0.500766    0.674069
      2          6           0       -4.599399   -1.160883    0.396668
      3          6           0       -4.051244   -0.887917   -1.012402
      4          6           0       -3.825829    0.595852   -1.348448
      5          6           0       -2.911767    1.347350   -0.369088
      6          6           0       -1.516041    0.736703   -0.153773
      7          6           0       -0.720483    0.638148   -1.463955
      8          7           0       -0.832052    1.515613    0.894248
      9          6           0        0.039051    0.759503    1.800065
     10          6           0        1.179536   -0.014547    1.164692
     11          6           0        2.309879    0.672092    0.688322
     12          6           0        3.317322   -0.012575    0.022018
     13          6           0        3.220369   -1.405209   -0.179981
     14          6           0        2.111220   -2.088534    0.299328
     15          6           0        1.099705   -1.392243    0.969111
     16          8           0        4.214103   -2.068909   -0.835237
     17          8           0        4.469089    0.536636   -0.490151
     18          6           0        4.646982    1.937363   -0.362070
     19          1           0       -5.882384    0.592181    0.649069
     20          1           0       -6.336421   -0.783526    1.660850
     21          1           0       -6.698078   -0.801719   -0.073173
     22          1           0       -3.872361   -0.827352    1.148742
     23          1           0       -4.693651   -2.246859    0.528868
     24          1           0       -3.109082   -1.438190   -1.137617
     25          1           0       -4.746620   -1.310645   -1.751100
     26          1           0       -3.419392    0.665024   -2.365480
     27          1           0       -4.793584    1.112429   -1.382095
     28          1           0       -2.784808    2.381762   -0.719724
     29          1           0       -3.390220    1.422095    0.614076
     30          1           0       -1.640637   -0.276485    0.248553
     31          1           0       -0.590816    1.637400   -1.902637
     32          1           0        0.268286    0.205549   -1.297677
     33          1           0       -1.239959    0.020614   -2.204776
     34          1           0       -0.305073    2.272994    0.462879
     35          1           0        0.436788    1.477261    2.528730
     36          1           0       -0.596401    0.063077    2.360414
     37          1           0        2.382291    1.744889    0.838953
     38          1           0        2.052996   -3.160679    0.141799
     39          1           0        0.232788   -1.934917    1.336705
     40          1           0        4.882657   -1.404070   -1.076317
     41          1           0        5.602429    2.167572   -0.835996
     42          1           0        3.843622    2.486351   -0.869841
     43          1           0        4.679349    2.238109    0.692829
 ---------------------------------------------------------------------

 SCF Done:  E(UB3LYP) =  -792.132395417     A.U. after   33 cycles
 SCF Done:  E(UB3LYP) =  -792.132395417     a.u. after    1 cycles

 The electronic state is 2-A.
 Alpha  occ. eigenvalues --  -19.07632 -19.06867 -14.20506 -10.14988 -10.14809
 Alpha  occ. eigenvalues --  -10.13025 -10.10869 -10.10738 -10.08861 -10.08856
 Alpha  occ. eigenvalues --  -10.08768 -10.08573 -10.08331 -10.08112 -10.07877
 Alpha  occ. eigenvalues --  -10.07748 -10.07129 -10.06512  -0.99884  -0.96989
 Alpha  occ. eigenvalues --   -0.81898  -0.76840  -0.72527  -0.68972  -0.67250
 Alpha  occ. eigenvalues --   -0.66581  -0.63815  -0.61630  -0.59557  -0.57666
 Alpha  occ. eigenvalues --   -0.54630  -0.52515  -0.50790  -0.49846  -0.47167
 Alpha  occ. eigenvalues --   -0.46139  -0.43740  -0.40796  -0.39716  -0.39251
 Alpha  occ. eigenvalues --   -0.38618  -0.37770  -0.36861  -0.36053  -0.35762
 Alpha  occ. eigenvalues --   -0.34297  -0.33444  -0.33293  -0.32753  -0.32252
 Alpha  occ. eigenvalues --   -0.31607  -0.31031  -0.29936  -0.29483  -0.28743
 Alpha  occ. eigenvalues --   -0.27526  -0.26917  -0.26339  -0.26307  -0.25958
 Alpha  occ. eigenvalues --   -0.25583  -0.25235  -0.24016  -0.23067  -0.23025
 Alpha  occ. eigenvalues --   -0.22331  -0.16129  -0.13846  -0.12576   0.03808
 Alpha virt. eigenvalues --    0.04972   0.06447   0.06628   0.06870   0.07301
 Alpha virt. eigenvalues --    0.07581   0.08134   0.08647   0.08715   0.09029
 Alpha virt. eigenvalues --    0.09366   0.09818   0.10022   0.10704   0.10951

  Beta  occ. eigenvalues --  -19.07622 -19.06863 -14.20495 -10.14989 -10.14807
  Beta  occ. eigenvalues --  -10.12952 -10.10862 -10.10736 -10.08859 -10.08854
  Beta  occ. eigenvalues --  -10.08748 -10.08570 -10.08322 -10.08104 -10.07870
  Beta  occ. eigenvalues --  -10.07725 -10.07122 -10.06498  -0.99869  -0.96977
  Beta  occ. eigenvalues --   -0.81880  -0.76830  -0.72510  -0.68955  -0.67223
  Beta  occ. eigenvalues --   -0.66562  -0.63789  -0.61559  -0.59529  -0.57643
  Beta  occ. eigenvalues --   -0.54598  -0.52463  -0.50767  -0.49814  -0.47149
  Beta  occ. eigenvalues --   -0.46108  -0.43694  -0.40775  -0.39695  -0.39232
  Beta  occ. eigenvalues --   -0.38582  -0.37746  -0.36842  -0.36015  -0.35739
  Beta  occ. eigenvalues --   -0.34252  -0.33421  -0.33274  -0.32733  -0.32231
  Beta  occ. eigenvalues --   -0.31590  -0.31011  -0.29916  -0.29461  -0.28725
  Beta  occ. eigenvalues --   -0.27506  -0.26895  -0.26319  -0.26292  -0.25915
  Beta  occ. eigenvalues --   -0.25556  -0.25213  -0.23996  -0.23048  -0.23009
  Beta  occ. eigenvalues --   -0.22313  -0.16113  -0.13832  -0.12564
  Beta virt. eigenvalues --    0.05390   0.06435   0.06565   0.06842   0.07254
  Beta virt. eigenvalues --    0.07432   0.07876   0.08399   0.08730   0.09108
  Beta virt. eigenvalues --    0.09179   0.09474   0.10046   0.10391   0.10885

 Mulliken charges and spin densities:
               1          2
     1  C    0.205993  -0.845204
     2  C   -0.412113   0.253045
     3  C   -0.070039  -0.109445
     4  C    0.142127  -0.519559
     5  C   -0.348323   0.400542
     6  C   -0.626456   0.140230
     7  C    0.011176  -0.747710
     8  N    0.175400   0.013218
     9  C    0.010197  -0.704521
    10  C    1.796093  -1.063775
    11  C   -0.335717   0.550854
    12  C   -1.879383   1.409467
    13  C   -0.130096  -0.419553
    14  C   -0.171969   0.132998
    15  C    0.457748  -0.597225
    16  O   -0.257504   0.012762
    17  O   -0.307267   0.073562
    18  C    1.428384  -1.758552
    19  H   -0.009652   0.147087
    20  H   -0.148436   0.284272
    21  H   -0.011235   0.145090
    22  H    0.106180   0.053938
    23  H   -0.126037   0.268626
    24  H    0.129456   0.032495
    25  H   -0.065804   0.230864
    26  H    0.095771   0.050596
    27  H    0.047402   0.118174
    28  H    0.017737   0.112472
    29  H    0.144501   0.066364
    30  H    0.114773  -0.126461
    31  H   -0.043762   0.195700
    32  H    0.284611  -0.075585
    33  H    0.073836   0.046688
    34  H    0.062765   0.165816
    35  H   -0.178580   0.365539
    36  H    0.178378  -0.032196
    37  H    0.100306   0.122647
    38  H    0.100486   0.083204
    39  H    0.056281   0.082024
    40  H    0.229656   0.059396
    41  H   -0.957804   1.148992
    42  H   -0.399110   0.572069
    43  H   -0.489972   0.661055
 Sum of Mulliken charges =  -1.00000   1.00000

 Dipole moment (field-independent basis, Debye):
    X=             -4.3608    Y=             -4.8915    Z=              0.1526  Tot=              6.5549
 Quadrupole moment (field-independent basis, Debye-Ang):
   XX=           -244.9933   YY=           -165.8948   ZZ=           -147.2554
   XY=            -27.0664   XZ=              5.9804   YZ=             -0.0817

 Summary of Natural Population Analysis:

                                       Natural Population
                Natural  -----------------------------------------------
    Atom  No    Charge         Core      Valence    Rydberg      Total
 -----------------------------------------------------------------------
      C    1   -0.28623      0.99967     2.28220    0.00437     3.28623
      C    2   -0.19412      0.99964     2.18608    0.00839     3.19412
      C    3   -0.19159      0.99963     2.18343    0.00853     3.19159
      C    4   -0.19266      0.99963     2.18560    0.00743     3.19266
      C    5   -0.19181      0.99961     2.18216    0.01004     3.19181
      C    6   -0.01699      0.99960     2.00612    0.01127     3.01699
      C    7   -0.29573      0.99964     2.28966    0.00643     3.29573
      N    8   -0.33752      0.99974     2.82593    0.01184     3.83752
      C    9   -0.09187      0.99958     2.07944    0.01285     3.09187
      C   10   -0.03310      0.99951     2.02365    0.00994     3.03310
      C   11   -0.13417      0.99947     2.12513    0.00957     3.13417
      C   12    0.13455      0.99935     1.85297    0.01313     2.86545
      C   13    0.14016      0.99936     1.84778    0.01270     2.85984
      C   14   -0.12361      0.99953     2.11504    0.00904     3.12361
      C   15   -0.10756      0.99951     2.09993    0.00812     3.10756
      O   16   -0.34221      0.99988     3.33575    0.00658     4.34221
      O   17   -0.28697      0.99986     3.27566    0.01146     4.28697
      C   18   -0.09819      0.99960     2.08925    0.00934     3.09819
      H   19    0.09669      0.00000     0.40228    0.00103     0.40331
      H   20    0.09864      0.00000     0.40036    0.00100     0.40136
      H   21    0.09489      0.00000     0.40392    0.00119     0.40511
      H   22    0.09464      0.00000     0.40404    0.00132     0.40536
      H   23    0.09532      0.00000     0.40370    0.00098     0.40468
      H   24    0.09600      0.00000     0.40290    0.00110     0.40400
      H   25    0.09529      0.00000     0.40376    0.00095     0.40471
      H   26    0.09690      0.00000     0.40201    0.00109     0.40310
      H   27    0.09660      0.00000     0.40238    0.00102     0.40340
      H   28    0.09766      0.00000     0.40136    0.00098     0.40234
      H   29    0.10072      0.00000     0.39789    0.00139     0.39928
      H   30    0.08927      0.00000     0.40821    0.00252     0.41073
      H   31    0.09601      0.00000     0.40295    0.00103     0.40399
      H   32    0.10771      0.00000     0.39094    0.00135     0.39229
      H   33    0.09753      0.00000     0.40160    0.00087     0.40247
      H   34    0.17262      0.00000     0.32444    0.00294     0.32738
      H   35    0.09945      0.00000     0.39958    0.00098     0.40055
      H   36    0.09213      0.00000     0.40658    0.00129     0.40787
      H   37    0.10911      0.00000     0.38891    0.00198     0.39089
      H   38    0.10477      0.00000     0.39436    0.00087     0.39523
      H   39    0.09940      0.00000     0.39953    0.00107     0.40060
      H   40    0.24345      0.00000     0.25350    0.00304     0.25655
      H   41    0.09787      0.00000     0.39919    0.00293     0.40213
      H   42    0.08878      0.00000     0.40831    0.00291     0.41122
      H   43    0.08816      0.00000     0.40902    0.00282     0.41184
 =======================================================================
   * Total *   -0.00000     17.99280    50.79753    0.20967    69.00000

 Normal termination of Gaussian 16 at Fri Dec 11 23:59:03 2020.
