 Gaussian 16, Revision A.03,

 -----------------------------------------------------------
 # opt freq B3LYP/6-31G(d) empiricaldispersion=gd3bj scf=xqc
 -----------------------------------------------------------

 ------------------------------
 CID_82746990_JID_7952_neutraal
 ------------------------------
 Symbolic Z-matrix:
 Charge =  0 Multiplicity = 1

 SCF Done:  E(RB3LYP) =  -710.471309035     A.U. after   14 cycles
 SCF Done:  E(RB3LYP) =  -710.477574764     A.U. after   12 cycles
 SCF Done:  E(RB3LYP) =  -710.478437027     A.U. after   12 cycles
 SCF Done:  E(RB3LYP) =  -710.478645865     A.U. after   12 cycles
 SCF Done:  E(RB3LYP) =  -710.478737416     A.U. after   11 cycles
 SCF Done:  E(RB3LYP) =  -710.478784453     A.U. after   10 cycles
 SCF Done:  E(RB3LYP) =  -710.478795291     A.U. after   10 cycles
 SCF Done:  E(RB3LYP) =  -710.478797632     A.U. after    8 cycles
 SCF Done:  E(RB3LYP) =  -710.478798513     A.U. after    8 cycles
 SCF Done:  E(RB3LYP) =  -710.478798702     A.U. after    7 cycles
 SCF Done:  E(RB3LYP) =  -710.478798864     A.U. after    7 cycles
 SCF Done:  E(RB3LYP) =  -710.478798893     A.U. after    7 cycles
 Optimization completed.
    -- Stationary point found.
 Normal termination of Gaussian 16 at Fri Dec 11 13:25:42 2020.

 --------------------------------------------------------------------
 #N Geom=AllCheck Guess=TCheck SCRF=Check GenChk RB3LYP/6-31G(d) Freq
 --------------------------------------------------------------------

 Structure from the checkpoint file:  "JID_7952.chk"
 ------------------------------
 CID_82746990_JID_7952_neutraal
 ------------------------------
 Charge =  0 Multiplicity = 1

 SCF Done:  E(RB3LYP) =  -710.478798893     A.U. after    1 cycles

  Exact polarizability: 219.681 -12.039 166.020   1.784  12.500 112.699
 Approx polarizability: 290.162 -20.929 256.670  -1.573  35.294 180.878

                      1                      2                      3
                      A                      A                      A
 Frequencies --     50.4582                56.2869                83.0536
 Red. masses --      3.8636                 3.4555                 3.8798
 Frc consts  --      0.0058                 0.0065                 0.0158
 IR Inten    --      1.2295                 0.5168                 0.9046

                      4                      5                      6
                      A                      A                      A
 Frequencies --    127.2031               170.3390               176.1900
 Red. masses --      3.2766                 2.4678                 3.0456
 Frc consts  --      0.0312                 0.0422                 0.0557
 IR Inten    --      5.5169                 0.3384                 3.6141

                      7                      8                      9
                      A                      A                      A
 Frequencies --    202.0491               216.3536               227.5690
 Red. masses --      2.1542                 1.1849                 2.2249
 Frc consts  --      0.0518                 0.0327                 0.0679
 IR Inten    --      2.3484                 0.6472                 2.9505

                     10                     11                     12
                      A                      A                      A
 Frequencies --    238.7750               247.5872               300.7703
 Red. masses --      1.1503                 3.0610                 3.0520
 Frc consts  --      0.0386                 0.1106                 0.1627
 IR Inten    --     23.4064                 1.7356                 0.4473

                     13                     14                     15
                      A                      A                      A
 Frequencies --    318.4120               345.5041               364.8010
 Red. masses --      1.8674                 2.5625                 3.7029
 Frc consts  --      0.1116                 0.1802                 0.2903
 IR Inten    --      0.2707                 0.9528                 0.7171

                     16                     17                     18
                      A                      A                      A
 Frequencies --    405.0112               419.6234               447.7261
 Red. masses --      3.3600                 3.5341                 4.0352
 Frc consts  --      0.3247                 0.3666                 0.4766
 IR Inten    --      0.9389                 8.7640                15.0051

                     19                     20                     21
                      A                      A                      A
 Frequencies --    464.8502               483.1978               515.0099
 Red. masses --      3.3599                 2.6239                 3.2820
 Frc consts  --      0.4278                 0.3610                 0.5129
 IR Inten    --      1.9657                 1.4368                 7.1150

                     22                     23                     24
                      A                      A                      A
 Frequencies --    530.1257               575.2805               586.7885
 Red. masses --      3.0296                 2.8911                 2.7679
 Frc consts  --      0.5016                 0.5637                 0.5615
 IR Inten    --      1.0341                 1.0903                29.6959

                     25                     26                     27
                      A                      A                      A
 Frequencies --    603.9333               619.4793               692.4898
 Red. masses --      5.1153                 2.7629                 1.7310
 Frc consts  --      1.0993                 0.6247                 0.4891
 IR Inten    --     17.2803                 1.8488               348.2342

                     28                     29                     30
                      A                      A                      A
 Frequencies --    742.4139               767.8083               777.9574
 Red. masses --      4.0035                 4.1673                 2.7887
 Frc consts  --      1.3001                 1.4475                 0.9944
 IR Inten    --     44.4206                 1.7054                 2.2891

                     31                     32                     33
                      A                      A                      A
 Frequencies --    812.0049               852.4583               874.8792
 Red. masses --      1.9973                 1.9665                 1.9410
 Frc consts  --      0.7759                 0.8420                 0.8753
 IR Inten    --      0.1191                 2.6089                 1.1313

                     34                     35                     36
                      A                      A                      A
 Frequencies --    889.1789               891.7347               900.2582
 Red. masses --      1.5639                 2.0388                 1.5907
 Frc consts  --      0.7285                 0.9552                 0.7596
 IR Inten    --     32.1300                 1.3153                 5.3562

                     37                     38                     39
                      A                      A                      A
 Frequencies --    903.2134               948.3997               955.6828
 Red. masses --      1.3255                 2.1200                 1.9075
 Frc consts  --      0.6371                 1.1235                 1.0265
 IR Inten    --      0.2109                 0.5361                 1.2029

                     40                     41                     42
                      A                      A                      A
 Frequencies --    979.7937              1003.3279              1016.1420
 Red. masses --      2.5141                 3.2988                 1.3742
 Frc consts  --      1.4220                 1.9565                 0.8360
 IR Inten    --      3.9733                 1.1654                 2.1103

                     43                     44                     45
                      A                      A                      A
 Frequencies --   1035.3857              1043.0690              1074.4956
 Red. masses --      1.7456                 3.1462                 1.5935
 Frc consts  --      1.1025                 2.0168                 1.0840
 IR Inten    --     16.5456                16.3748                 1.7152

                     46                     47                     48
                      A                      A                      A
 Frequencies --   1077.2217              1077.4586              1108.4681
 Red. masses --      1.4810                 1.5917                 2.1748
 Frc consts  --      1.0126                 1.0887                 1.5744
 IR Inten    --      4.2080                 0.6010                 5.7586

                     49                     50                     51
                      A                      A                      A
 Frequencies --   1117.5441              1130.0535              1134.0132
 Red. masses --      2.0491                 2.2287                 1.5222
 Frc consts  --      1.5078                 1.6769                 1.1533
 IR Inten    --      5.7869                 0.1550                 3.9550

                     52                     53                     54
                      A                      A                      A
 Frequencies --   1169.2596              1184.0114              1199.8719
 Red. masses --      1.8377                 2.2054                 2.4613
 Frc consts  --      1.4803                 1.8216                 2.0878
 IR Inten    --      1.4734                 1.3269                24.2743

                     55                     56                     57
                      A                      A                      A
 Frequencies --   1217.9194              1234.4087              1259.8478
 Red. masses --      1.5085                 1.4657                 1.3570
 Frc consts  --      1.3184                 1.3158                 1.2690
 IR Inten    --     13.2645                 0.6726                17.9503

                     58                     59                     60
                      A                      A                      A
 Frequencies --   1276.1450              1285.9869              1293.7094
 Red. masses --      1.4491                 1.3473                 1.6269
 Frc consts  --      1.3904                 1.3128                 1.6043
 IR Inten    --     31.0168                11.5938                13.9803

                     61                     62                     63
                      A                      A                      A
 Frequencies --   1318.6437              1330.3047              1337.0486
 Red. masses --      1.3886                 2.2303                 1.8458
 Frc consts  --      1.4226                 2.3255                 1.9441
 IR Inten    --      4.6676                10.9623                 9.0726

                     64                     65                     66
                      A                      A                      A
 Frequencies --   1351.5791              1356.9654              1366.7512
 Red. masses --      1.8095                 1.3939                 1.4822
 Frc consts  --      1.9475                 1.5123                 1.6313
 IR Inten    --     90.5801                17.1001                13.9816

                     67                     68                     69
                      A                      A                      A
 Frequencies --   1371.2281              1386.4544              1393.0038
 Red. masses --      2.4025                 1.4272                 1.4631
 Frc consts  --      2.6616                 1.6164                 1.6727
 IR Inten    --     34.4039                 3.1450                20.5155

                     70                     71                     72
                      A                      A                      A
 Frequencies --   1393.7567              1406.4696              1425.6238
 Red. masses --      1.3674                 1.6116                 1.5680
 Frc consts  --      1.5650                 1.8783                 1.8776
 IR Inten    --     12.0691                26.9502                 1.2870

                     73                     74                     75
                      A                      A                      A
 Frequencies --   1433.8848              1441.0700              1492.1847
 Red. masses --      1.5595                 1.2625                 3.5331
 Frc consts  --      1.8891                 1.5447                 4.6350
 IR Inten    --     34.8185                 2.1398                76.9982

                     76                     77                     78
                      A                      A                      A
 Frequencies --   1501.5485              1510.8688              1515.0102
 Red. masses --      2.1178                 1.0553                 1.0954
 Frc consts  --      2.8133                 1.4193                 1.4814
 IR Inten    --    200.1849                 7.2443                 1.2229

                     79                     80                     81
                      A                      A                      A
 Frequencies --   1516.8895              1522.2749              1526.4194
 Red. masses --      1.0930                 1.0956                 1.0954
 Frc consts  --      1.4817                 1.4958                 1.5037
 IR Inten    --      7.0642                 2.8978                 6.9520

                     82                     83                     84
                      A                      A                      A
 Frequencies --   1533.9408              1540.0230              1560.3711
 Red. masses --      1.0998                 1.2637                 1.1396
 Frc consts  --      1.5247                 1.7659                 1.6348
 IR Inten    --      1.9175               113.9125                11.3464

                     85                     86                     87
                      A                      A                      A
 Frequencies --   1618.4781              1670.5683              1693.7850
 Red. masses --      6.3936                 3.6700                 1.2799
 Frc consts  --      9.8676                 6.0346                 2.1634
 IR Inten    --     15.3313                 6.4278                60.3121

                     88                     89                     90
                      A                      A                      A
 Frequencies --   2976.5212              3001.7502              3025.0255
 Red. masses --      1.0801                 1.0820                 1.0697
 Frc consts  --      5.6379                 5.7443                 5.7670
 IR Inten    --     16.5345                12.1975                22.2060

                     91                     92                     93
                      A                      A                      A
 Frequencies --   3028.1837              3030.9054              3038.1281
 Red. masses --      1.0630                 1.0634                 1.0547
 Frc consts  --      5.7429                 5.7557                 5.7359
 IR Inten    --     29.7186                19.9073                21.3033

                     94                     95                     96
                      A                      A                      A
 Frequencies --   3042.1972              3048.4982              3053.1133
 Red. masses --      1.0671                 1.0391                 1.0689
 Frc consts  --      5.8188                 5.6894                 5.8702
 IR Inten    --     32.3680                54.5181                40.0010

                     97                     98                     99
                      A                      A                      A
 Frequencies --   3070.8744              3074.3754              3075.1494
 Red. masses --      1.0976                 1.1020                 1.0961
 Frc consts  --      6.0985                 6.1366                 6.1073
 IR Inten    --     58.9399                35.2651                53.8088

                    100                    101                    102
                      A                      A                      A
 Frequencies --   3081.2467              3102.5551              3108.6079
 Red. masses --      1.1024                 1.0996                 1.1037
 Frc consts  --      6.1663                 6.2360                 6.2840
 IR Inten    --     78.5351                20.0306                55.8338

                    103                    104                    105
                      A                      A                      A
 Frequencies --   3114.6996              3125.0728              3140.6019
 Red. masses --      1.0962                 1.1028                 1.0895
 Frc consts  --      6.2658                 6.3455                 6.3317
 IR Inten    --     26.4693                19.4031                47.7088

                    106                    107                    108
                      A                      A                      A
 Frequencies --   3164.7531              3529.5637              3625.7162
 Red. masses --      1.0901                 1.0481                 1.0969
 Frc consts  --      6.4327                 7.6933                 8.4957
 IR Inten    --     27.7808                 5.7519                 5.2231

 - Thermochemistry -
 -------------------
 Temperature   298.150 Kelvin.  Pressure   1.00000 Atm.
 Atom     1 has atomic number  6 and mass  12.00000

 Molecular mass:   231.17355 amu.
 Principal axes and moments of inertia in atomic units:
                           1         2         3
     Eigenvalues --  1905.420716451.597617628.24547
           X            0.99996   0.00821   0.00434
           Y           -0.00822   0.99996   0.00179
           Z           -0.00433  -0.00182   0.99999
 This molecule is an asymmetric top.
 Rotational symmetry number  1.
 Warning -- assumption of classical behavior for rotation
           may cause significant error
 Rotational temperatures (Kelvin)      0.04546     0.01343     0.01135
 Rotational constants (GHZ):           0.94716     0.27974     0.23659
 Zero-point vibrational energy     889278.0 (Joules/Mol)
                                  212.54255 (Kcal/Mol)
 Warning -- explicit consideration of  26 degrees of freedom as
           vibrations may cause significant error
 Vibrational temperatures:     72.60    80.98   119.50   183.02   245.08
          (Kelvin)            253.50   290.70   311.28   327.42   343.54
                              356.22   432.74   458.12   497.10   524.87
                              582.72   603.74   644.18   668.82   695.21
                              740.98   762.73   827.70   844.26   868.93
                              891.29   996.34  1068.17  1104.70  1119.31
                             1168.29  1226.50  1258.76  1279.33  1283.01
                             1295.27  1299.52  1364.54  1375.01  1409.70
                             1443.57  1462.00  1489.69  1500.74  1545.96
                             1549.88  1550.22  1594.84  1607.90  1625.89
                             1631.59  1682.30  1703.53  1726.35  1752.31
                             1776.04  1812.64  1836.09  1850.25  1861.36
                             1897.23  1914.01  1923.71  1944.62  1952.37
                             1966.45  1972.89  1994.80  2004.22  2005.31
                             2023.60  2051.15  2063.04  2073.38  2146.92
                             2160.39  2173.80  2179.76  2182.47  2190.21
                             2196.18  2207.00  2215.75  2245.03  2328.63
                             2403.58  2436.98  4282.55  4318.85  4352.34
                             4356.88  4360.80  4371.19  4377.04  4386.11
                             4392.75  4418.30  4423.34  4424.45  4433.23
                             4463.88  4472.59  4481.36  4496.28  4518.63
                             4553.37  5078.25  5216.60

 Zero-point correction=                           0.338708 (Hartree/Particle)
 Thermal correction to Energy=                    0.353942
 Thermal correction to Enthalpy=                  0.354886
 Thermal correction to Gibbs Free Energy=         0.297027
 Sum of electronic and zero-point Energies=           -710.140091
 Sum of electronic and thermal Energies=              -710.124857
 Sum of electronic and thermal Enthalpies=            -710.123913
 Sum of electronic and thermal Free Energies=         -710.181772

                     E (Thermal)             CV                S
                      KCal/Mol        Cal/Mol-Kelvin    Cal/Mol-Kelvin
 Total                  222.102             61.865            121.775
 Electronic               0.000              0.000              0.000
 Translational            0.889              2.981             42.216
 Rotational               0.889              2.981             32.905
 Vibrational            220.324             55.903             46.653
 Vibration     1          0.595              1.977              4.799
 Vibration     2          0.596              1.975              4.583
 Vibration     3          0.600              1.961              3.817
 Vibration     4          0.611              1.926              2.988
 Vibration     5          0.625              1.879              2.432
 Vibration     6          0.628              1.872              2.368
 Vibration     7          0.639              1.837              2.114
 Vibration     8          0.645              1.816              1.989
 Vibration     9          0.651              1.799              1.898
 Vibration    10          0.657              1.781              1.812
 Vibration    11          0.661              1.767              1.748
 Vibration    12          0.693              1.672              1.413
 Vibration    13          0.705              1.638              1.318
 Vibration    14          0.724              1.584              1.187
 Vibration    15          0.738              1.545              1.102
 Vibration    16          0.770              1.459              0.944
 Vibration    17          0.782              1.428              0.893
 Vibration    18          0.807              1.366              0.803
 Vibration    19          0.822              1.328              0.752
 Vibration    20          0.839              1.287              0.701
 Vibration    21          0.870              1.217              0.622
 Vibration    22          0.885              1.183              0.587
 Vibration    23          0.932              1.085              0.494
 Vibration    24          0.944              1.060              0.473
 Vibration    25          0.962              1.023              0.443
 Vibration    26          0.979              0.991              0.417

 Optimization completed.
    -- Stationary point found.
 Normal termination of Gaussian 16 at Fri Dec 11 13:40:04 2020.

 ----------------------------------------------------------------------
 # B3LYP/6-311++G(d,p) empiricaldispersion=gd3bj scf=xqc pop=npa geom=c
 heck
 ----------------------------------------------------------------------

 --------------------------------------
 CID_82746990_JID_7952_Energie_neutraal
 --------------------------------------
 Structure from the checkpoint file:  "JID_7952.chk"
 Charge =  0 Multiplicity = 1

 SCF Done:  E(RB3LYP) =  -710.668494295     A.U. after   14 cycles
 Normal termination of Gaussian 16 at Fri Dec 11 13:47:09 2020.

 ----------------------------------------------------------------------
 # B3LYP/6-311++G(d,p) empiricaldispersion=gd3bj scf=xqc pop=npa geom=c
 heck
 ----------------------------------------------------------------------

 ------------------------------------
 CID_82746990_JID_7952_Energie_kation
 ------------------------------------
 Structure from the checkpoint file:  "JID_7952.chk"
 Charge =  1 Multiplicity = 2

 SCF Done:  E(UB3LYP) =  -710.420825566     A.U. after   21 cycles
 Normal termination of Gaussian 16 at Fri Dec 11 14:01:59 2020.
 Gaussian 16:  ES64L-G16RevA.03 25-Dec-2016

 ----------------------------------------------------------------------
 # B3LYP/6-311++G(d,p) empiricaldispersion=gd3bj scf=xqc pop=npa geom=c
 heck
 ----------------------------------------------------------------------

 -----------------------------------
 CID_82746990_JID_7952_Energie_anion
 -----------------------------------
 Structure from the checkpoint file:  "JID_7952.chk"
 Charge = -1 Multiplicity = 2

                         Standard orientation:
 ---------------------------------------------------------------------
 Center     Atomic      Atomic             Coordinates (Angstroms)
 Number     Number       Type             X           Y           Z
 ---------------------------------------------------------------------
      1          6           0        1.976133    2.301324    1.172311
      2          6           0        2.140894    0.982327    0.463692
      3          6           0        3.402467    0.427117    0.284331
      4          6           0        3.559616   -0.851557   -0.269415
      5          6           0        2.385647   -1.533123   -0.600303
      6          7           0        1.164578   -1.010137   -0.472161
      7          6           0        1.024980    0.224519    0.025165
      8          7           0       -0.277881    0.728662    0.153563
      9          6           0       -0.599797    2.034637   -0.483725
     10          6           0       -2.016463    1.859538   -1.069011
     11          6           0       -2.593047    0.748809   -0.191556
     12          6           0       -1.396638   -0.194552   -0.073780
     13          6           0       -1.635196   -1.252867    0.996191
     14          6           0       -2.902411   -2.043897    0.619278
     15          6           0       -4.124146   -1.136985    0.381984
     16          6           0       -3.837293   -0.013700   -0.633556
     17          7           0        4.828986   -1.401298   -0.510806
     18          1           0        2.884695    2.559205    1.725533
     19          1           0        1.764058    3.127967    0.483870
     20          1           0        1.140046    2.248972    1.878500
     21          1           0        4.280325    0.984634    0.606812
     22          1           0        2.436634   -2.548502   -0.995468
     23          1           0        0.137919    2.285363   -1.255099
     24          1           0       -0.588068    2.840035    0.260186
     25          1           0       -1.962951    1.520663   -2.111105
     26          1           0       -2.592780    2.790032   -1.045957
     27          1           0       -2.782901    1.168170    0.809195
     28          1           0       -1.262692   -0.716967   -1.035831
     29          1           0       -1.762690   -0.759994    1.969786
     30          1           0       -0.773965   -1.922881    1.071246
     31          1           0       -3.133222   -2.779887    1.398964
     32          1           0       -2.698499   -2.615790   -0.297165
     33          1           0       -4.978083   -1.739930    0.049302
     34          1           0       -4.418897   -0.677877    1.336673
     35          1           0       -3.669430   -0.443853   -1.631482
     36          1           0       -4.702878    0.655862   -0.715920
     37          1           0        5.539132   -1.091841    0.143288
     38          1           0        4.826006   -2.413516   -0.569143
 ---------------------------------------------------------------------

 SCF Done:  E(UB3LYP) =  -710.655208622     A.U. after   33 cycles
 SCF Done:  E(UB3LYP) =  -710.655208622     a.u. after    1 cycles

 The electronic state is 2-A.
 Alpha  occ. eigenvalues --  -14.21858 -14.21392 -14.20152 -10.12750 -10.10998
 Alpha  occ. eigenvalues --  -10.10625 -10.09795 -10.09498 -10.08659 -10.08029
 Alpha  occ. eigenvalues --  -10.07992 -10.07949 -10.07926 -10.07848 -10.07791
 Alpha  occ. eigenvalues --  -10.07346 -10.06723  -0.87093  -0.82718  -0.80092
 Alpha  occ. eigenvalues --   -0.73988  -0.70859  -0.69223  -0.65397  -0.63468
 Alpha  occ. eigenvalues --   -0.62688  -0.59641  -0.53903  -0.53110  -0.51290
 Alpha  occ. eigenvalues --   -0.49608  -0.48324  -0.46926  -0.42914  -0.42221
 Alpha  occ. eigenvalues --   -0.39756  -0.39055  -0.36843  -0.36162  -0.35647
 Alpha  occ. eigenvalues --   -0.34835  -0.33888  -0.33276  -0.33168  -0.31261
 Alpha  occ. eigenvalues --   -0.30895  -0.30579  -0.29855  -0.28883  -0.28260
 Alpha  occ. eigenvalues --   -0.27560  -0.27040  -0.25984  -0.25398  -0.24273
 Alpha  occ. eigenvalues --   -0.23687  -0.22860  -0.22508  -0.20779  -0.16985
 Alpha  occ. eigenvalues --   -0.16208  -0.15092  -0.09223   0.04096
 Alpha virt. eigenvalues --    0.05302   0.06222   0.06967   0.07237   0.07460
 Alpha virt. eigenvalues --    0.07749   0.08795   0.09129   0.09481   0.09790
 Alpha virt. eigenvalues --    0.10215   0.10307   0.11102   0.11265   0.11979

  Beta  occ. eigenvalues --  -14.21859 -14.21324 -14.20151 -10.12747 -10.10991
  Beta  occ. eigenvalues --  -10.10613 -10.09792 -10.09487 -10.08658 -10.08018
  Beta  occ. eigenvalues --  -10.07980 -10.07940 -10.07917 -10.07844 -10.07771
  Beta  occ. eigenvalues --  -10.07328 -10.06719  -0.87087  -0.82684  -0.80031
  Beta  occ. eigenvalues --   -0.73974  -0.70840  -0.69203  -0.65370  -0.63441
  Beta  occ. eigenvalues --   -0.62656  -0.59611  -0.53873  -0.53078  -0.51248
  Beta  occ. eigenvalues --   -0.49582  -0.48283  -0.46905  -0.42885  -0.42184
  Beta  occ. eigenvalues --   -0.39676  -0.39036  -0.36807  -0.36132  -0.35606
  Beta  occ. eigenvalues --   -0.34813  -0.33870  -0.33258  -0.33139  -0.31230
  Beta  occ. eigenvalues --   -0.30873  -0.30557  -0.29834  -0.28857  -0.28236
  Beta  occ. eigenvalues --   -0.27539  -0.27019  -0.25965  -0.25381  -0.24254
  Beta  occ. eigenvalues --   -0.23666  -0.22830  -0.22489  -0.20760  -0.16972
  Beta  occ. eigenvalues --   -0.16195  -0.15068  -0.09195
  Beta virt. eigenvalues --    0.05857   0.06600   0.06980   0.07101   0.07381
  Beta virt. eigenvalues --    0.07913   0.08247   0.09150   0.09373   0.09749
  Beta virt. eigenvalues --    0.10142   0.10259   0.10536   0.11201   0.11480

 Mulliken charges and spin densities:
               1          2
     1  C    0.985498  -1.711089
     2  C   -0.136566   0.705890
     3  C    0.093696   0.559900
     4  C    0.427990  -1.047682
     5  C    0.119942   0.150707
     6  N    0.052249  -0.005834
     7  C   -1.271237  -0.543484
     8  N    0.565922   0.040578
     9  C   -0.130587   0.185902
    10  C    0.640402  -1.540156
    11  C   -0.362197   1.013494
    12  C   -0.389693  -0.433754
    13  C    0.317206  -0.299213
    14  C   -0.212626  -0.163411
    15  C    0.013373  -0.476978
    16  C   -0.347496  -0.098247
    17  N   -0.254948  -0.066072
    18  H   -0.186477   0.344108
    19  H   -0.038822   0.198671
    20  H    0.080248   0.096987
    21  H   -0.596802   0.773694
    22  H   -0.149394   0.329351
    23  H    0.133186   0.014986
    24  H   -0.013830   0.169272
    25  H    0.113724   0.030525
    26  H   -0.308095   0.486144
    27  H    0.010283   0.190494
    28  H    0.216983   0.037272
    29  H    0.095729   0.032420
    30  H    0.128799   0.049869
    31  H    0.051826   0.121413
    32  H    0.158229  -0.036716
    33  H   -0.135838   0.310667
    34  H    0.058384   0.057891
    35  H    0.101414   0.018119
    36  H   -0.226874   0.411918
    37  H   -0.347499   0.595713
    38  H   -0.256105   0.496650
 Sum of Mulliken charges =  -1.00000   1.00000

 Dipole moment (field-independent basis, Debye):
    X=             -7.0066    Y=              0.2772    Z=             -0.7972  Tot=              7.0573
 Quadrupole moment (field-independent basis, Debye-Ang):
   XX=           -225.9462   YY=           -150.3009   ZZ=           -131.7154
   XY=             15.4467   XZ=             -2.2953   YZ=             -2.4010

 Summary of Natural Population Analysis:

                                       Natural Population
                Natural  -----------------------------------------------
    Atom  No    Charge         Core      Valence    Rydberg      Total
 -----------------------------------------------------------------------
      C    1   -0.29579      0.99964     2.29020    0.00595     3.29579
      C    2   -0.03427      0.99949     2.02566    0.00913     3.03427
      C    3   -0.09904      0.99948     2.08930    0.01026     3.09904
      C    4    0.05824      0.99948     1.93085    0.01143     2.94176
      C    5    0.00597      0.99954     1.98011    0.01439     2.99403
      N    6   -0.24917      0.99967     2.73953    0.00997     3.74917
      C    7    0.19373      0.99947     1.79307    0.01374     2.80627
      N    8   -0.27192      0.99965     2.76138    0.01089     3.77192
      C    9   -0.07792      0.99962     2.06860    0.00970     3.07792
      C   10   -0.18999      0.99961     2.18203    0.00835     3.18999
      C   11   -0.11334      0.99956     2.10243    0.01135     3.11334
      C   12   -0.00099      0.99955     1.98737    0.01407     3.00099
      C   13   -0.19219      0.99959     2.18490    0.00770     3.19219
      C   14   -0.18792      0.99963     2.18149    0.00680     3.18792
      C   15   -0.18897      0.99963     2.18084    0.00849     3.18897
      C   16   -0.18689      0.99961     2.17820    0.00909     3.18689
      N   17   -0.39745      0.99972     2.88677    0.01096     3.89745
      H   18    0.10312      0.00000     0.39597    0.00091     0.39688
      H   19    0.10372      0.00000     0.39514    0.00113     0.39628
      H   20    0.10745      0.00000     0.39130    0.00125     0.39255
      H   21    0.10102      0.00000     0.39761    0.00137     0.39898
      H   22    0.08697      0.00000     0.41178    0.00126     0.41303
      H   23    0.09391      0.00000     0.40508    0.00101     0.40609
      H   24    0.09187      0.00000     0.40677    0.00137     0.40813
      H   25    0.09503      0.00000     0.40378    0.00119     0.40497
      H   26    0.10254      0.00000     0.39636    0.00110     0.39746
      H   27    0.09553      0.00000     0.40257    0.00190     0.40447
      H   28    0.09320      0.00000     0.40474    0.00206     0.40680
      H   29    0.09418      0.00000     0.40431    0.00151     0.40582
      H   30    0.10973      0.00000     0.38899    0.00128     0.39027
      H   31    0.09805      0.00000     0.40108    0.00088     0.40195
      H   32    0.09348      0.00000     0.40538    0.00113     0.40652
      H   33    0.09710      0.00000     0.40204    0.00086     0.40290
      H   34    0.09313      0.00000     0.40569    0.00118     0.40687
      H   35    0.09335      0.00000     0.40551    0.00114     0.40665
      H   36    0.10040      0.00000     0.39854    0.00106     0.39960
      H   37    0.18830      0.00000     0.30362    0.00808     0.31170
      H   38    0.18583      0.00000     0.30982    0.00435     0.31417
 =======================================================================
   * Total *    0.00000     16.99293    45.79880    0.20827    63.00000

 Normal termination of Gaussian 16 at Fri Dec 11 14:25:48 2020.
