 Gaussian 16, Revision A.03,

 -----------------------------------------------------------
 # opt freq B3LYP/6-31G(d) empiricaldispersion=gd3bj scf=xqc
 -----------------------------------------------------------

 -------------------------------
 CID_105724445_JID_5214_neutraal
 -------------------------------
 Symbolic Z-matrix:
 Charge =  0 Multiplicity = 1

 SCF Done:  E(RB3LYP) =  -719.601212426     A.U. after   16 cycles
 SCF Done:  E(RB3LYP) =  -719.604182107     A.U. after   15 cycles
 SCF Done:  E(RB3LYP) =  -719.605971610     A.U. after   15 cycles
 SCF Done:  E(RB3LYP) =  -719.606724394     A.U. after   13 cycles
 SCF Done:  E(RB3LYP) =  -719.607029860     A.U. after   13 cycles
 SCF Done:  E(RB3LYP) =  -719.607122159     A.U. after   12 cycles
 SCF Done:  E(RB3LYP) =  -719.607157235     A.U. after   11 cycles
 SCF Done:  E(RB3LYP) =  -719.607184205     A.U. after   12 cycles
 SCF Done:  E(RB3LYP) =  -719.607197369     A.U. after   10 cycles
 SCF Done:  E(RB3LYP) =  -719.607201309     A.U. after   10 cycles
 SCF Done:  E(RB3LYP) =  -719.607204246     A.U. after   10 cycles
 SCF Done:  E(RB3LYP) =  -719.607204390     A.U. after   10 cycles
 SCF Done:  E(RB3LYP) =  -719.607204622     A.U. after    8 cycles
 SCF Done:  E(RB3LYP) =  -719.607204681     A.U. after   10 cycles
 SCF Done:  E(RB3LYP) =  -719.607204731     A.U. after    9 cycles
 SCF Done:  E(RB3LYP) =  -719.607204730     A.U. after    8 cycles
 Optimization completed.
    -- Stationary point found.
 Normal termination of Gaussian 16 at Thu Dec 10 15:00:52 2020.

 --------------------------------------------------------------------
 #N Geom=AllCheck Guess=TCheck SCRF=Check GenChk RB3LYP/6-31G(d) Freq
 --------------------------------------------------------------------

 Structure from the checkpoint file:  "JID_5214.chk"
 -------------------------------
 CID_105724445_JID_5214_neutraal
 -------------------------------
 Charge =  0 Multiplicity = 1

 SCF Done:  E(RB3LYP) =  -719.607204730     A.U. after    1 cycles

  Exact polarizability: 142.432  -6.276 119.602  14.538   1.511 103.000
 Approx polarizability: 190.854  -7.393 191.651  34.660   3.301 195.293

                      1                      2                      3
                      A                      A                      A
 Frequencies --     10.9637                28.2236                38.4925
 Red. masses --      9.6631                 6.0046                 5.0556
 Frc consts  --      0.0007                 0.0028                 0.0044
 IR Inten    --      0.6379                 1.0875                 0.9327

                      4                      5                      6
                      A                      A                      A
 Frequencies --     63.7037                93.2604               107.6149
 Red. masses --      3.0599                 4.0594                 5.8545
 Frc consts  --      0.0073                 0.0208                 0.0399
 IR Inten    --      0.3804                 0.8486                 3.1321

                      7                      8                      9
                      A                      A                      A
 Frequencies --    131.3618               147.4999               167.4582
 Red. masses --      4.7252                 4.5456                 2.2296
 Frc consts  --      0.0480                 0.0583                 0.0368
 IR Inten    --      2.0447                 2.1759                 0.6263

                     10                     11                     12
                      A                      A                      A
 Frequencies --    229.2568               239.1443               245.2679
 Red. masses --      1.6269                 4.1232                 4.3233
 Frc consts  --      0.0504                 0.1389                 0.1532
 IR Inten    --      0.9237                 2.3096                 2.8052

                     13                     14                     15
                      A                      A                      A
 Frequencies --    315.0835               316.9724               410.2400
 Red. masses --      2.4838                 2.3414                 4.1761
 Frc consts  --      0.1453                 0.1386                 0.4141
 IR Inten    --      4.6257                 1.5076                 6.2521

                     16                     17                     18
                      A                      A                      A
 Frequencies --    435.8917               465.1163               547.7409
 Red. masses --      4.6481                 3.3803                 3.6800
 Frc consts  --      0.5203                 0.4309                 0.6505
 IR Inten    --      5.3110                13.9521                10.4963

                     19                     20                     21
                      A                      A                      A
 Frequencies --    561.4902               616.9746               636.7867
 Red. masses --     12.9180                 4.2265                 3.6307
 Frc consts  --      2.3995                 0.9479                 0.8674
 IR Inten    --     10.9962                 2.7378                26.9106

                     22                     23                     24
                      A                      A                      A
 Frequencies --    652.4476               675.2633               695.3719
 Red. masses --      5.0930                 3.7903                 3.2284
 Frc consts  --      1.2774                 1.0183                 0.9198
 IR Inten    --      8.6438                19.0924                 7.7632

                     25                     26                     27
                      A                      A                      A
 Frequencies --    736.3632               764.2193               804.1264
 Red. masses --      1.4375                 2.0016                 1.8970
 Frc consts  --      0.4593                 0.6887                 0.7227
 IR Inten    --     26.7223                24.3472                52.1924

                     28                     29                     30
                      A                      A                      A
 Frequencies --    817.4004               858.1362               863.5611
 Red. masses --      1.5060                 2.1358                 1.7165
 Frc consts  --      0.5929                 0.9267                 0.7542
 IR Inten    --     15.7236                 1.7747                 5.6639

                     31                     32                     33
                      A                      A                      A
 Frequencies --    897.7724               916.6244               983.0221
 Red. masses --      2.0987                 5.4613                 2.3119
 Frc consts  --      0.9966                 2.7035                 1.3163
 IR Inten    --     29.2216                19.4451                 0.2140

                     34                     35                     36
                      A                      A                      A
 Frequencies --   1016.8015              1028.5526              1061.3983
 Red. masses --      2.8878                 2.2453                 1.8003
 Frc consts  --      1.7591                 1.3995                 1.1949
 IR Inten    --     34.0358                16.6872                 4.8642

                     37                     38                     39
                      A                      A                      A
 Frequencies --   1098.3806              1099.3438              1144.6237
 Red. masses --      1.9132                 1.9016                 2.4154
 Frc consts  --      1.3599                 1.3540                 1.8645
 IR Inten    --     12.4017                21.8762                10.3351

                     40                     41                     42
                      A                      A                      A
 Frequencies --   1157.2923              1172.0368              1214.2480
 Red. masses --      2.5394                 2.5030                 2.1954
 Frc consts  --      2.0038                 2.0258                 1.9071
 IR Inten    --     11.8379                17.2141               101.1459

                     43                     44                     45
                      A                      A                      A
 Frequencies --   1258.9690              1262.9788              1285.2867
 Red. masses --      1.7892                 1.9458                 1.3735
 Frc consts  --      1.6708                 1.8287                 1.3369
 IR Inten    --      4.3413                26.2990                37.7753

                     46                     47                     48
                      A                      A                      A
 Frequencies --   1317.3192              1358.3060              1371.9380
 Red. masses --      1.2841                 2.7779                 1.5162
 Frc consts  --      1.3129                 3.0197                 1.6814
 IR Inten    --      7.3386               158.1543                 6.9271

                     49                     50                     51
                      A                      A                      A
 Frequencies --   1372.8179              1396.8146              1416.8828
 Red. masses --      2.5506                 1.4023                 1.3875
 Frc consts  --      2.8321                 1.6120                 1.6412
 IR Inten    --     80.2867                 9.5442                12.8281

                     52                     53                     54
                      A                      A                      A
 Frequencies --   1436.9985              1465.4136              1486.2088
 Red. masses --      1.2664                 3.4536                 1.6319
 Frc consts  --      1.5408                 4.3697                 2.1238
 IR Inten    --      7.1130                50.5854                67.5987

                     55                     56                     57
                      A                      A                      A
 Frequencies --   1511.4212              1513.9668              1522.0323
 Red. masses --      1.0833                 1.0771                 1.0999
 Frc consts  --      1.4580                 1.4546                 1.5013
 IR Inten    --     10.1044                 8.5938                 0.1551

                     58                     59                     60
                      A                      A                      A
 Frequencies --   1526.4591              1537.2427              1567.9528
 Red. masses --      1.0425                 1.0738                 4.7530
 Frc consts  --      1.4311                 1.4950                 6.8846
 IR Inten    --      8.2318                 8.1052                24.9728

                     61                     62                     63
                      A                      A                      A
 Frequencies --   1643.1624              1775.3755              2267.1202
 Red. masses --      7.8360                 8.4719                13.6597
 Frc consts  --     12.4654                15.7330                41.3658
 IR Inten    --     27.3140               331.3947               491.7757

                     64                     65                     66
                      A                      A                      A
 Frequencies --   3020.6934              3034.5878              3063.2125
 Red. masses --      1.0712                 1.0725                 1.0349
 Frc consts  --      5.7586                 5.8192                 5.7217
 IR Inten    --     26.7369                36.9214                28.2664

                     67                     68                     69
                      A                      A                      A
 Frequencies --   3068.8231              3112.7062              3123.4538
 Red. masses --      1.0578                 1.0917                 1.1078
 Frc consts  --      5.8696                 6.2318                 6.3675
 IR Inten    --     26.9794                 5.1751                22.1662

                     70                     71                     72
                      A                      A                      A
 Frequencies --   3132.3343              3145.7612              3147.0013
 Red. masses --      1.1035                 1.1017                 1.0926
 Frc consts  --      6.3789                 6.4233                 6.3752
 IR Inten    --     27.8543                26.5592                 4.6759

                     73                     74                     75
                      A                      A                      A
 Frequencies --   3283.9949              3309.4606              3557.1832
 Red. masses --      1.0908                 1.1065                 1.0744
 Frc consts  --      6.9309                 7.1404                 8.0103
 IR Inten    --      0.4108                 1.3591                21.1486

 - Thermochemistry -
 -------------------
 Temperature   298.150 Kelvin.  Pressure   1.00000 Atm.
 Atom     1 has atomic number  6 and mass  12.00000

 Molecular mass:   208.09603 amu.
 Principal axes and moments of inertia in atomic units:
                           1         2         3
     Eigenvalues --  1880.351305180.388465994.39570
           X            0.99992   0.00824  -0.00991
           Y           -0.00862   0.99923  -0.03833
           Z            0.00959   0.03841   0.99922
 This molecule is an asymmetric top.
 Rotational symmetry number  1.
 Warning -- assumption of classical behavior for rotation
           may cause significant error
 Rotational temperatures (Kelvin)      0.04606     0.01672     0.01445
 Rotational constants (GHZ):           0.95979     0.34838     0.30107
 Zero-point vibrational energy     566787.1 (Joules/Mol)
                                  135.46538 (Kcal/Mol)
 Warning -- explicit consideration of  20 degrees of freedom as
           vibrations may cause significant error
 Vibrational temperatures:     15.77    40.61    55.38    91.66   134.18
          (Kelvin)            154.83   189.00   212.22   240.93   329.85
                              344.08   352.89   453.33   456.05   590.24
                              627.15   669.20   788.08   807.86   887.69
                              916.19   938.73   971.55  1000.49  1059.46
                             1099.54  1156.96  1176.06  1234.67  1242.47
                             1291.69  1318.82  1414.35  1462.95  1479.86
                             1527.12  1580.32  1581.71  1646.86  1665.09
                             1686.30  1747.03  1811.38  1817.14  1849.24
                             1895.33  1954.30  1973.91  1975.18  2009.70
                             2038.58  2067.52  2108.40  2138.32  2174.60
                             2178.26  2189.87  2196.23  2211.75  2255.93
                             2364.14  2554.37  3261.88  4346.10  4366.10
                             4407.28  4415.35  4478.49  4493.95  4506.73
                             4526.05  4527.83  4724.94  4761.58  5117.99

 Zero-point correction=                           0.215878 (Hartree/Particle)
 Thermal correction to Energy=                    0.230724
 Thermal correction to Enthalpy=                  0.231668
 Thermal correction to Gibbs Free Energy=         0.170469
 Sum of electronic and zero-point Energies=           -719.391327
 Sum of electronic and thermal Energies=              -719.376481
 Sum of electronic and thermal Enthalpies=            -719.375536
 Sum of electronic and thermal Free Energies=         -719.436736

                     E (Thermal)             CV                S
                      KCal/Mol        Cal/Mol-Kelvin    Cal/Mol-Kelvin
 Total                  144.782             52.784            128.805
 Electronic               0.000              0.000              0.000
 Translational            0.889              2.981             41.902
 Rotational               0.889              2.981             32.435
 Vibrational            143.004             46.822             54.468
 Vibration     1          0.593              1.987              7.828
 Vibration     2          0.593              1.984              5.951
 Vibration     3          0.594              1.982              5.335
 Vibration     4          0.597              1.972              4.339
 Vibration     5          0.602              1.954              3.590
 Vibration     6          0.606              1.943              3.311
 Vibration     7          0.612              1.922              2.926
 Vibration     8          0.617              1.905              2.704
 Vibration     9          0.624              1.883              2.464
 Vibration    10          0.652              1.796              1.885
 Vibration    11          0.657              1.781              1.809
 Vibration    12          0.660              1.771              1.764
 Vibration    13          0.702              1.645              1.335
 Vibration    14          0.704              1.641              1.326
 Vibration    15          0.774              1.448              0.926
 Vibration    16          0.796              1.392              0.840
 Vibration    17          0.823              1.327              0.751
 Vibration    18          0.903              1.145              0.549
 Vibration    19          0.917              1.115              0.521
 Vibration    20          0.977              0.996              0.421

 Optimization completed.
    -- Stationary point found.
 Normal termination of Gaussian 16 at Thu Dec 10 15:09:32 2020.

 ----------------------------------------------------------------------
 # B3LYP/6-311++G(d,p) empiricaldispersion=gd3bj scf=xqc pop=npa geom=c
 heck
 ----------------------------------------------------------------------

 ---------------------------------------
 CID_105724445_JID_5214_Energie_neutraal
 ---------------------------------------
 Structure from the checkpoint file:  "JID_5214.chk"
 Charge =  0 Multiplicity = 1

 SCF Done:  E(RB3LYP) =  -719.811592270     A.U. after   16 cycles
 Normal termination of Gaussian 16 at Thu Dec 10 15:13:35 2020.

 ----------------------------------------------------------------------
 # B3LYP/6-311++G(d,p) empiricaldispersion=gd3bj scf=xqc pop=npa geom=c
 heck
 ----------------------------------------------------------------------

 -------------------------------------
 CID_105724445_JID_5214_Energie_kation
 -------------------------------------
 Structure from the checkpoint file:  "JID_5214.chk"
 Charge =  1 Multiplicity = 2

 SCF Done:  E(UB3LYP) =  -719.500486252     A.U. after   27 cycles
 Normal termination of Gaussian 16 at Thu Dec 10 15:23:28 2020.
 Gaussian 16:  ES64L-G16RevA.03 25-Dec-2016

 ----------------------------------------------------------------------
 # B3LYP/6-311++G(d,p) empiricaldispersion=gd3bj scf=xqc pop=npa geom=c
 heck
 ----------------------------------------------------------------------

 ------------------------------------
 CID_105724445_JID_5214_Energie_anion
 ------------------------------------
 Structure from the checkpoint file:  "JID_5214.chk"
 Charge = -1 Multiplicity = 2

                         Standard orientation:
 ---------------------------------------------------------------------
 Center     Atomic      Atomic             Coordinates (Angstroms)
 Number     Number       Type             X           Y           Z
 ---------------------------------------------------------------------
      1          6           0        1.529761    2.847687   -0.956853
      2          6           0        0.902416    1.794987   -0.028963
      3          6           0        1.750301    0.577415    0.125336
      4          6           0        1.540721   -0.762829   -0.089436
      5          6           0        2.809017   -1.413910    0.114789
      6          6           0        3.683646   -0.438974    0.462135
      7          8           0        3.057316    0.780967    0.466336
      8          6           0        0.328170   -1.464774   -0.575963
      9          8           0        0.405160   -2.355024   -1.413267
     10          7           0       -0.903719   -1.056338   -0.084130
     11          6           0       -1.154844   -0.615231    1.283280
     12          6           0       -2.268985    0.428609    1.339620
     13          7           0       -3.529935   -0.130369    0.799098
     14          7           0       -3.865350    0.290085   -0.313350
     15          7           0       -4.287334    0.608308   -1.325573
     16          1           0        2.498767    3.178165   -0.572560
     17          1           0        0.875213    3.721260   -1.040394
     18          1           0        1.684229    2.436046   -1.959362
     19          1           0        0.709857    2.246105    0.955712
     20          1           0       -0.063373    1.472271   -0.428026
     21          1           0        3.002138   -2.470923    0.007240
     22          1           0        4.730114   -0.425944    0.723527
     23          1           0       -1.640650   -1.637411   -0.472617
     24          1           0       -1.434987   -1.468169    1.917192
     25          1           0       -0.236945   -0.188973    1.692078
     26          1           0       -2.463401    0.698055    2.382540
     27          1           0       -1.977629    1.332290    0.794136
 ---------------------------------------------------------------------

 SCF Done:  E(UB3LYP) =  -719.811113662     A.U. after   30 cycles

 The electronic state is 2-A.
 Alpha  occ. eigenvalues --  -19.08795 -18.97881 -14.34499 -14.24568 -14.23617
 Alpha  occ. eigenvalues --  -14.22590 -10.16421 -10.12729 -10.12538 -10.10573
 Alpha  occ. eigenvalues --  -10.10437 -10.08101 -10.07806 -10.07472 -10.06716
 Alpha  occ. eigenvalues --   -1.01400  -1.01239  -0.93076  -0.85714  -0.81352
 Alpha  occ. eigenvalues --   -0.71225  -0.69992  -0.66645  -0.63028  -0.55801
 Alpha  occ. eigenvalues --   -0.54373  -0.53599  -0.48410  -0.45153  -0.43418
 Alpha  occ. eigenvalues --   -0.41923  -0.40594  -0.38777  -0.37829  -0.37300
 Alpha  occ. eigenvalues --   -0.36522  -0.34265  -0.33523  -0.33344  -0.32870
 Alpha  occ. eigenvalues --   -0.31140  -0.31003  -0.29742  -0.29031  -0.28287
 Alpha  occ. eigenvalues --   -0.27793  -0.27008  -0.26096  -0.25244  -0.18801
 Alpha  occ. eigenvalues --   -0.18678  -0.16370  -0.14933  -0.13523  -0.13135
 Alpha  occ. eigenvalues --    0.04193
 Alpha virt. eigenvalues --    0.06627   0.07345   0.07807   0.08075   0.09238
 Alpha virt. eigenvalues --    0.09916   0.10370   0.10587   0.11004   0.11277
 Alpha virt. eigenvalues --    0.11811   0.12515   0.13467   0.13836   0.14837

  Beta  occ. eigenvalues --  -19.08722 -18.97777 -14.34289 -14.24230 -14.23672
  Beta  occ. eigenvalues --  -14.22600 -10.16328 -10.12590 -10.12524 -10.10549
  Beta  occ. eigenvalues --  -10.10338 -10.08093 -10.07810 -10.07470 -10.06686
  Beta  occ. eigenvalues --   -1.01268  -1.00799  -0.92893  -0.85488  -0.81289
  Beta  occ. eigenvalues --   -0.71119  -0.69897  -0.66509  -0.62949  -0.55583
  Beta  occ. eigenvalues --   -0.54246  -0.53520  -0.48328  -0.45073  -0.43319
  Beta  occ. eigenvalues --   -0.41786  -0.40275  -0.38602  -0.37174  -0.37026
  Beta  occ. eigenvalues --   -0.36389  -0.34181  -0.33384  -0.32924  -0.32473
  Beta  occ. eigenvalues --   -0.30986  -0.30838  -0.29650  -0.28929  -0.28097
  Beta  occ. eigenvalues --   -0.27527  -0.26862  -0.25944  -0.25186  -0.18562
  Beta  occ. eigenvalues --   -0.18188  -0.16261  -0.14780  -0.13353  -0.12768
  Beta virt. eigenvalues --    0.06775   0.07525   0.08018   0.08819   0.09466
  Beta virt. eigenvalues --    0.09677   0.10113   0.10688   0.10968   0.11180
  Beta virt. eigenvalues --    0.11451   0.11957   0.12678   0.13735   0.14042

 Mulliken charges and spin densities:
               1          2
     1  C    0.272994  -0.972436
     2  C   -0.651503   0.209771
     3  C   -0.013585   0.299202
     4  C    0.558579  -0.188282
     5  C    0.348921  -0.289349
     6  C   -0.148764   0.014133
     7  O   -0.000999   0.027361
     8  C   -0.575881   0.154453
     9  O   -0.348590   0.032698
    10  N   -0.183332  -0.030874
    11  C   -0.195456   0.011772
    12  C    0.626436  -1.168454
    13  N   -0.559030  -0.101444
    14  N    0.585381   0.125229
    15  N   -0.272627   0.293338
    16  H    0.019152   0.139760
    17  H   -0.179466   0.329849
    18  H    0.056248   0.082624
    19  H   -0.525204   0.728923
    20  H    0.542740  -0.391087
    21  H    0.149868   0.034087
    22  H    0.066835   0.085855
    23  H    0.259438   0.021170
    24  H   -0.224232   0.432257
    25  H    0.236411  -0.076238
    26  H   -0.788434   0.987260
    27  H   -0.055900   0.208420
 Sum of Mulliken charges =  -1.00000   1.00000

 Dipole moment (field-independent basis, Debye):
    X=              5.2873    Y=             -1.7037    Z=             -0.3799  Tot=              5.5680
 Quadrupole moment (field-independent basis, Debye-Ang):
   XX=           -140.0438   YY=           -126.3492   ZZ=           -124.4051
   XY=             -0.2184   XZ=              3.9977   YZ=             -9.0738

 Summary of Natural Population Analysis:

                                       Natural Population
                Natural  -----------------------------------------------
    Atom  No    Charge         Core      Valence    Rydberg      Total
 -----------------------------------------------------------------------
      C    1   -0.27979      0.99966     2.27471    0.00542     3.27979
      C    2   -0.22055      0.99960     2.21211    0.00885     3.22055
      C    3    0.19887      0.99943     1.78702    0.01468     2.80113
      C    4   -0.11625      0.99940     2.10590    0.01095     3.11625
      C    5   -0.13361      0.99953     2.12525    0.00883     3.13361
      C    6    0.04981      0.99951     1.93708    0.01360     2.95019
      O    7   -0.23285      0.99986     3.22529    0.00771     4.23285
      C    8    0.35089      0.99962     1.62796    0.02153     2.64911
      O    9   -0.30992      0.99988     3.30470    0.00534     4.30992
      N   10   -0.32722      0.99968     2.81838    0.00917     3.82722
      C   11   -0.09298      0.99960     2.08253    0.01085     3.09298
      C   12   -0.09178      0.99958     2.08020    0.01200     3.09178
      N   13   -0.21173      0.99970     2.69770    0.01433     3.71173
      N   14    0.13010      0.99970     2.35484    0.01535     3.36990
      N   15   -0.01817      0.99982     2.50457    0.01378     3.51817
      H   16    0.09961      0.00000     0.39929    0.00110     0.40039
      H   17    0.10013      0.00000     0.39885    0.00102     0.39987
      H   18    0.09743      0.00000     0.40179    0.00078     0.40257
      H   19    0.10949      0.00000     0.38738    0.00312     0.39051
      H   20    0.11077      0.00000     0.38726    0.00197     0.38923
      H   21    0.11191      0.00000     0.38729    0.00080     0.38809
      H   22    0.09203      0.00000     0.40716    0.00081     0.40797
      H   23    0.19230      0.00000     0.30505    0.00265     0.30770
      H   24    0.09218      0.00000     0.40635    0.00147     0.40782
      H   25    0.10578      0.00000     0.39259    0.00163     0.39422
      H   26    0.10067      0.00000     0.39597    0.00336     0.39933
      H   27    0.09289      0.00000     0.40501    0.00211     0.40711
 =======================================================================
   * Total *   -0.00000     14.99458    39.81223    0.19319    55.00000

 Normal termination of Gaussian 16 at Thu Dec 10 15:34:28 2020.
