 Gaussian 16, Revision A.03,

 -----------------------------------------------------------
 # opt freq B3LYP/6-31G(d) empiricaldispersion=gd3bj scf=xqc
 -----------------------------------------------------------

 ------------------------------
 CID_81080264_JID_7699_neutraal
 ------------------------------
 Symbolic Z-matrix:
 Charge =  0 Multiplicity = 1

 SCF Done:  E(RB3LYP) =  -695.620813872     A.U. after   14 cycles
 SCF Done:  E(RB3LYP) =  -695.625653083     A.U. after   12 cycles
 SCF Done:  E(RB3LYP) =  -695.625645714     A.U. after   11 cycles
 SCF Done:  E(RB3LYP) =  -695.625976967     A.U. after   12 cycles
 SCF Done:  E(RB3LYP) =  -695.626084358     A.U. after   11 cycles
 SCF Done:  E(RB3LYP) =  -695.626109347     A.U. after    9 cycles
 SCF Done:  E(RB3LYP) =  -695.626114461     A.U. after    9 cycles
 SCF Done:  E(RB3LYP) =  -695.626116927     A.U. after    8 cycles
 SCF Done:  E(RB3LYP) =  -695.626117826     A.U. after    8 cycles
 SCF Done:  E(RB3LYP) =  -695.626118024     A.U. after    7 cycles
 SCF Done:  E(RB3LYP) =  -695.626118045     A.U. after    6 cycles
 Optimization completed.
    -- Stationary point found.
 Normal termination of Gaussian 16 at Mon Dec 14 13:19:14 2020.

 --------------------------------------------------------------------
 #N Geom=AllCheck Guess=TCheck SCRF=Check GenChk RB3LYP/6-31G(d) Freq
 --------------------------------------------------------------------

 Structure from the checkpoint file:  "JID_7699.chk"
 ------------------------------
 CID_81080264_JID_7699_neutraal
 ------------------------------
 Charge =  0 Multiplicity = 1

 SCF Done:  E(RB3LYP) =  -695.626118045     A.U. after    1 cycles

  Exact polarizability: 178.508  13.356 173.056 -22.105   8.969 147.444
 Approx polarizability: 247.978  26.381 259.615 -40.075  20.767 224.087

                      1                      2                      3
                      A                      A                      A
 Frequencies --     23.1750                43.6589                64.1535
 Red. masses --      3.7538                 3.4063                 3.6127
 Frc consts  --      0.0012                 0.0038                 0.0088
 IR Inten    --      0.2367                 0.2942                 0.4441

                      4                      5                      6
                      A                      A                      A
 Frequencies --     96.6653               107.9739               124.2685
 Red. masses --      3.3424                 2.8558                 2.4669
 Frc consts  --      0.0184                 0.0196                 0.0224
 IR Inten    --      0.8035                 1.1453                 5.2329

                      7                      8                      9
                      A                      A                      A
 Frequencies --    135.4744               201.2781               221.8153
 Red. masses --      3.7558                 1.9845                 1.4850
 Frc consts  --      0.0406                 0.0474                 0.0430
 IR Inten    --      1.4783                 6.9347                13.1373

                     10                     11                     12
                      A                      A                      A
 Frequencies --    235.7644               248.7194               268.8522
 Red. masses --      2.1709                 3.1136                 2.2404
 Frc consts  --      0.0711                 0.1135                 0.0954
 IR Inten    --      4.0592                 6.8948                 2.2216

                     13                     14                     15
                      A                      A                      A
 Frequencies --    281.3940               324.9245               335.8817
 Red. masses --      1.1098                 2.8737                 3.2285
 Frc consts  --      0.0518                 0.1788                 0.2146
 IR Inten    --     21.2708                 0.2796                 0.8755

                     16                     17                     18
                      A                      A                      A
 Frequencies --    354.8322               362.8278               377.3749
 Red. masses --      3.1498                 2.3466                 2.6872
 Frc consts  --      0.2337                 0.1820                 0.2255
 IR Inten    --      1.2149                 2.4969                 2.9827

                     19                     20                     21
                      A                      A                      A
 Frequencies --    394.8868               435.3363               468.4045
 Red. masses --      1.9125                 2.4984                 2.0371
 Frc consts  --      0.1757                 0.2790                 0.2633
 IR Inten    --      0.6809                 2.1932                 5.1836

                     22                     23                     24
                      A                      A                      A
 Frequencies --    481.7009               528.7608               551.5495
 Red. masses --      3.7568                 2.5845                 2.4460
 Frc consts  --      0.5136                 0.4257                 0.4384
 IR Inten    --      3.0627                 1.6506                 4.9337

                     25                     26                     27
                      A                      A                      A
 Frequencies --    578.3275               591.3334               619.4635
 Red. masses --      3.1520                 3.1583                 3.8560
 Frc consts  --      0.6211                 0.6507                 0.8718
 IR Inten    --      2.0196                 1.0738                 2.5015

                     28                     29                     30
                      A                      A                      A
 Frequencies --    713.1963               761.3563               775.1876
 Red. masses --      3.6771                 2.0353                 1.8132
 Frc consts  --      1.1020                 0.6951                 0.6420
 IR Inten    --      4.4477                21.8564                23.4823

                     31                     32                     33
                      A                      A                      A
 Frequencies --    777.8856               800.9884               834.6531
 Red. masses --      2.7537                 2.8823                 1.9450
 Frc consts  --      0.9818                 1.0895                 0.7983
 IR Inten    --      2.2277                 1.6162                 1.7916

                     34                     35                     36
                      A                      A                      A
 Frequencies --    850.1887               871.5341               872.5876
 Red. masses --      2.4574                 1.3743                 1.3013
 Frc consts  --      1.0466                 0.6150                 0.5838
 IR Inten    --      3.0648                 0.7589                70.2961

                     37                     38                     39
                      A                      A                      A
 Frequencies --    893.0864               900.2915               924.2974
 Red. masses --      1.7547                 1.9843                 1.7820
 Frc consts  --      0.8246                 0.9476                 0.8970
 IR Inten    --     25.3635                 0.6545                 3.0680

                     40                     41                     42
                      A                      A                      A
 Frequencies --    938.6913               954.9296               958.5749
 Red. masses --      1.4179                 1.3582                 2.4645
 Frc consts  --      0.7361                 0.7297                 1.3342
 IR Inten    --      4.2481                67.8067                11.5134

                     43                     44                     45
                      A                      A                      A
 Frequencies --    969.5047               971.7046              1011.7489
 Red. masses --      2.1259                 1.2944                 1.6665
 Frc consts  --      1.1773                 0.7201                 1.0051
 IR Inten    --      4.3185                 1.6551                 2.0009

                     46                     47                     48
                      A                      A                      A
 Frequencies --   1022.2540              1058.6009              1061.9259
 Red. masses --      1.8271                 2.1326                 2.1560
 Frc consts  --      1.1249                 1.4080                 1.4324
 IR Inten    --      2.9497                 3.7343                 7.1990

                     49                     50                     51
                      A                      A                      A
 Frequencies --   1078.9269              1086.5353              1100.6709
 Red. masses --      2.4432                 2.3496                 1.8938
 Frc consts  --      1.6757                 1.6343                 1.3518
 IR Inten    --     11.1870                15.0427                 1.3982

                     52                     53                     54
                      A                      A                      A
 Frequencies --   1114.8957              1131.6295              1145.3719
 Red. masses --      1.9676                 2.3438                 1.6587
 Frc consts  --      1.4410                 1.7684                 1.2821
 IR Inten    --      1.1167                11.3270                17.3916

                     55                     56                     57
                      A                      A                      A
 Frequencies --   1164.0766              1185.5841              1197.9456
 Red. masses --      1.8447                 1.8170                 1.1134
 Frc consts  --      1.4728                 1.5048                 0.9414
 IR Inten    --     11.2813                19.6389                 0.1176

                     58                     59                     60
                      A                      A                      A
 Frequencies --   1211.6712              1216.0077              1243.9084
 Red. masses --      1.5043                 1.8220                 1.5677
 Frc consts  --      1.3012                 1.5873                 1.4292
 IR Inten    --     11.7861                 5.0701                 5.2175

                     61                     62                     63
                      A                      A                      A
 Frequencies --   1253.6937              1269.5506              1275.6776
 Red. masses --      1.5902                 1.4147                 1.2533
 Frc consts  --      1.4726                 1.3434                 1.2016
 IR Inten    --     14.3144                31.8148                10.9687

                     64                     65                     66
                      A                      A                      A
 Frequencies --   1296.3307              1316.0911              1334.7055
 Red. masses --      1.3129                 1.7484                 1.5309
 Frc consts  --      1.2999                 1.7843                 1.6068
 IR Inten    --     11.3498                19.5010                 3.1342

                     67                     68                     69
                      A                      A                      A
 Frequencies --   1341.6970              1361.0394              1367.0811
 Red. masses --      1.2422                 1.8843                 1.9247
 Frc consts  --      1.3175                 2.0566                 2.1193
 IR Inten    --     12.5523                15.9585                 3.0263

                     70                     71                     72
                      A                      A                      A
 Frequencies --   1375.0757              1390.8640              1396.5152
 Red. masses --      1.3223                 1.4460                 1.3734
 Frc consts  --      1.4731                 1.6481                 1.5781
 IR Inten    --     12.9786                 1.2954                13.7238

                     73                     74                     75
                      A                      A                      A
 Frequencies --   1396.8749              1400.8487              1418.0660
 Red. masses --      1.3363                 1.3579                 1.4728
 Frc consts  --      1.5363                 1.5700                 1.7450
 IR Inten    --      0.3502                12.8367                 2.0644

                     76                     77                     78
                      A                      A                      A
 Frequencies --   1433.9314              1437.3432              1439.6161
 Red. masses --      1.3333                 1.3838                 1.3676
 Frc consts  --      1.6152                 1.6844                 1.6699
 IR Inten    --     10.9196                 4.2125                12.6674

                     79                     80                     81
                      A                      A                      A
 Frequencies --   1454.6051              1496.7490              1504.2616
 Red. masses --      1.3888                 1.7145                 1.2135
 Frc consts  --      1.7313                 2.2630                 1.6179
 IR Inten    --      8.0838                10.3387                11.5528

                     82                     83                     84
                      A                      A                      A
 Frequencies --   1507.0662              1510.9417              1517.9608
 Red. masses --      1.0918                 1.2041                 1.1077
 Frc consts  --      1.4610                 1.6196                 1.5038
 IR Inten    --      5.0029                 3.8923                 4.6424

                     85                     86                     87
                      A                      A                      A
 Frequencies --   1523.1947              1524.1599              1527.5502
 Red. masses --      1.1115                 1.1543                 1.0791
 Frc consts  --      1.5194                 1.5799                 1.4836
 IR Inten    --     12.8655                 4.1226                 4.2797

                     88                     89                     90
                      A                      A                      A
 Frequencies --   1535.0164              1545.9208              1551.9063
 Red. masses --      1.0770                 1.2051                 1.6474
 Frc consts  --      1.4952                 1.6968                 2.3376
 IR Inten    --      6.2711                45.0296                18.8893

                     91                     92                     93
                      A                      A                      A
 Frequencies --   1636.1378              1660.6403              1701.4310
 Red. masses --      6.0656                 5.6228                 1.0861
 Frc consts  --      9.5667                 9.1359                 1.8525
 IR Inten    --      5.0377                22.9968                27.0808

                     94                     95                     96
                      A                      A                      A
 Frequencies --   2957.3151              2994.9852              3001.8257
 Red. masses --      1.0745                 1.0714                 1.0690
 Frc consts  --      5.5365                 5.6625                 5.6756
 IR Inten    --     62.3056                55.4484                56.0281

                     97                     98                     99
                      A                      A                      A
 Frequencies --   3029.0247              3031.0773              3036.9458
 Red. masses --      1.0684                 1.0605                 1.0624
 Frc consts  --      5.7754                 5.7408                 5.7731
 IR Inten    --     26.2192                20.0901                34.5902

                    100                    101                    102
                      A                      A                      A
 Frequencies --   3040.7119              3041.8930              3042.2567
 Red. masses --      1.0623                 1.0737                 1.0394
 Frc consts  --      5.7870                 5.8535                 5.6678
 IR Inten    --     12.6066                60.2783                20.9519

                    103                    104                    105
                      A                      A                      A
 Frequencies --   3068.0435              3069.1355              3077.0482
 Red. masses --      1.1011                 1.1008                 1.0958
 Frc consts  --      6.1064                 6.1090                 6.1127
 IR Inten    --     37.6711                48.8116                51.8139

                    106                    107                    108
                      A                      A                      A
 Frequencies --   3081.4360              3086.8085              3095.9492
 Red. masses --      1.0994                 1.1020                 1.0922
 Frc consts  --      6.1507                 6.1866                 6.1681
 IR Inten    --     54.4452                36.2650                44.3862

                    109                    110                    111
                      A                      A                      A
 Frequencies --   3103.1098              3115.4318              3126.5210
 Red. masses --      1.1009                 1.1003                 1.0876
 Frc consts  --      6.2456                 6.2922                 6.2636
 IR Inten    --     46.4286                36.4391                22.8757

                    112                    113                    114
                      A                      A                      A
 Frequencies --   3173.3052              3185.0717              3203.7419
 Red. masses --      1.0867                 1.0881                 1.0936
 Frc consts  --      6.4476                 6.5037                 6.6131
 IR Inten    --     10.4956                13.9538                37.2658

                    115                    116                    117
                      A                      A                      A
 Frequencies --   3214.6142              3465.4020              3545.6371
 Red. masses --      1.0941                 1.0502                 1.0915
 Frc consts  --      6.6615                 7.4304                 8.0847
 IR Inten    --     15.5306                 2.9505                 0.7944

 - Thermochemistry -
 -------------------
 Temperature   298.150 Kelvin.  Pressure   1.00000 Atm.
 Atom     1 has atomic number  6 and mass  12.00000

 Molecular mass:   232.19395 amu.
 Principal axes and moments of inertia in atomic units:
                           1         2         3
     Eigenvalues --  2973.837195339.013396009.10121
           X            0.99972  -0.02367  -0.00245
           Y            0.02369   0.99968   0.00844
           Z            0.00225  -0.00850   0.99996
 This molecule is an asymmetric top.
 Rotational symmetry number  1.
 Warning -- assumption of classical behavior for rotation
           may cause significant error
 Rotational temperatures (Kelvin)      0.02913     0.01622     0.01441
 Rotational constants (GHZ):           0.60687     0.33803     0.30033
 Zero-point vibrational energy     979436.8 (Joules/Mol)
                                  234.09101 (Kcal/Mol)
 Warning -- explicit consideration of  27 degrees of freedom as
           vibrations may cause significant error
 Vibrational temperatures:     33.34    62.82    92.30   139.08   155.35
          (Kelvin)            178.79   194.92   289.59   319.14   339.21
                              357.85   386.82   404.86   467.49   483.26
                              510.52   522.03   542.96   568.15   626.35
                              673.93   693.06   760.77   793.56   832.08
                              850.80   891.27  1026.13  1095.42  1115.32
                             1119.20  1152.44  1200.88  1223.23  1253.94
                             1255.46  1284.95  1295.32  1329.86  1350.57
                             1373.93  1379.18  1394.90  1398.07  1455.68
                             1470.80  1523.09  1527.87  1552.34  1563.28
                             1583.62  1604.09  1628.16  1647.93  1674.85
                             1705.79  1723.58  1743.32  1749.56  1789.71
                             1803.79  1826.60  1835.42  1865.13  1893.56
                             1920.34  1930.40  1958.23  1966.92  1978.43
                             2001.14  2009.27  2009.79  2015.51  2040.28
                             2063.11  2068.02  2071.29  2092.85  2153.49
                             2164.30  2168.33  2173.91  2184.01  2191.54
                             2192.93  2197.80  2208.55  2224.24  2232.85
                             2354.04  2389.29  2447.98  4254.92  4309.12
                             4318.96  4358.09  4361.04  4369.49  4374.91
                             4376.61  4377.13  4414.23  4415.80  4427.19
                             4433.50  4441.23  4454.38  4464.68  4482.41
                             4498.37  4565.68  4582.61  4609.47  4625.11
                             4985.94  5101.38

 Zero-point correction=                           0.373048 (Hartree/Particle)
 Thermal correction to Energy=                    0.389661
 Thermal correction to Enthalpy=                  0.390605
 Thermal correction to Gibbs Free Energy=         0.328705
 Sum of electronic and zero-point Energies=           -695.253070
 Sum of electronic and thermal Energies=              -695.236457
 Sum of electronic and thermal Enthalpies=            -695.235513
 Sum of electronic and thermal Free Energies=         -695.297413

                     E (Thermal)             CV                S
                      KCal/Mol        Cal/Mol-Kelvin    Cal/Mol-Kelvin
 Total                  244.516             65.853            130.280
 Electronic               0.000              0.000              0.000
 Translational            0.889              2.981             42.229
 Rotational               0.889              2.981             32.923
 Vibrational            242.738             59.892             55.129
 Vibration     1          0.593              1.985              6.342
 Vibration     2          0.595              1.980              5.086
 Vibration     3          0.597              1.971              4.325
 Vibration     4          0.603              1.952              3.520
 Vibration     5          0.606              1.943              3.305
 Vibration     6          0.610              1.929              3.033
 Vibration     7          0.613              1.918              2.867
 Vibration     8          0.638              1.838              2.121
 Vibration     9          0.648              1.808              1.944
 Vibration    10          0.655              1.786              1.835
 Vibration    11          0.662              1.765              1.740
 Vibration    12          0.673              1.730              1.604
 Vibration    13          0.681              1.708              1.525
 Vibration    14          0.709              1.626              1.285
 Vibration    15          0.717              1.604              1.232
 Vibration    16          0.731              1.565              1.145
 Vibration    17          0.737              1.549              1.110
 Vibration    18          0.748              1.518              1.050
 Vibration    19          0.762              1.481              0.982
 Vibration    20          0.796              1.393              0.841
 Vibration    21          0.826              1.320              0.742
 Vibration    22          0.838              1.291              0.705
 Vibration    23          0.884              1.186              0.590
 Vibration    24          0.907              1.136              0.541
 Vibration    25          0.935              1.078              0.488
 Vibration    26          0.949              1.050              0.465
 Vibration    27          0.979              0.991              0.417

 Optimization completed.
    -- Stationary point found.
 Normal termination of Gaussian 16 at Mon Dec 14 13:39:56 2020.

 ----------------------------------------------------------------------
 # B3LYP/6-311++G(d,p) empiricaldispersion=gd3bj scf=xqc pop=npa geom=c
 heck
 ----------------------------------------------------------------------

 --------------------------------------
 CID_81080264_JID_7699_Energie_neutraal
 --------------------------------------
 Structure from the checkpoint file:  "JID_7699.chk"
 Charge =  0 Multiplicity = 1

 SCF Done:  E(RB3LYP) =  -695.817716379     A.U. after   14 cycles
 Normal termination of Gaussian 16 at Mon Dec 14 13:49:12 2020.

 ----------------------------------------------------------------------
 # B3LYP/6-311++G(d,p) empiricaldispersion=gd3bj scf=xqc pop=npa geom=c
 heck
 ----------------------------------------------------------------------

 ------------------------------------
 CID_81080264_JID_7699_Energie_kation
 ------------------------------------
 Structure from the checkpoint file:  "JID_7699.chk"
 Charge =  1 Multiplicity = 2

 SCF Done:  E(UB3LYP) =  -695.552704169     A.U. after   23 cycles
 Normal termination of Gaussian 16 at Mon Dec 14 14:11:19 2020.
 Gaussian 16:  ES64L-G16RevA.03 25-Dec-2016

 ----------------------------------------------------------------------
 # B3LYP/6-311++G(d,p) empiricaldispersion=gd3bj scf=xqc pop=npa geom=c
 heck
 ----------------------------------------------------------------------

 -----------------------------------
 CID_81080264_JID_7699_Energie_anion
 -----------------------------------
 Structure from the checkpoint file:  "JID_7699.chk"
 Charge = -1 Multiplicity = 2

                         Standard orientation:
 ---------------------------------------------------------------------
 Center     Atomic      Atomic             Coordinates (Angstroms)
 Number     Number       Type             X           Y           Z
 ---------------------------------------------------------------------
      1          6           0        3.287381   -1.861558    0.274451
      2          6           0        3.069922   -0.378156   -0.059912
      3          6           0        2.373770   -0.191160   -1.424123
      4          6           0        0.947828   -0.750223   -1.546662
      5          7           0       -0.058003    0.122951   -0.939490
      6          6           0       -0.357258    1.330896   -1.727457
      7          6           0       -0.388522    2.623670   -0.911348
      8          6           0       -1.501004    2.684132    0.136681
      9          6           0       -1.434499    1.543866    1.168959
     10          6           0       -1.895352    0.196763    0.663306
     11          6           0       -3.020782   -0.408433    1.229490
     12          6           0       -3.451555   -1.676969    0.841027
     13          6           0       -2.745129   -2.358998   -0.146327
     14          6           0       -1.632075   -1.767041   -0.741456
     15          6           0       -1.189943   -0.493944   -0.348720
     16          6           0        2.360655    0.354071    1.088009
     17          7           0        3.207336    0.380237    2.291510
     18          1           0        2.342990   -2.367938    0.510466
     19          1           0        3.951323   -1.975695    1.137803
     20          1           0        3.751442   -2.393013   -0.564790
     21          1           0        4.061872    0.085663   -0.147672
     22          1           0        2.371111    0.875521   -1.683152
     23          1           0        2.991453   -0.685566   -2.186462
     24          1           0        0.721521   -0.942661   -2.610500
     25          1           0        0.902207   -1.716913   -1.041107
     26          1           0       -1.312826    1.202742   -2.261005
     27          1           0        0.418170    1.424767   -2.493867
     28          1           0        0.584048    2.742399   -0.416017
     29          1           0       -0.497935    3.465979   -1.607866
     30          1           0       -1.432933    3.643439    0.665338
     31          1           0       -2.481871    2.665716   -0.357593
     32          1           0       -2.048140    1.812866    2.036130
     33          1           0       -0.398937    1.460707    1.525293
     34          1           0       -3.558013    0.124373    2.010818
     35          1           0       -4.323270   -2.125702    1.308350
     36          1           0       -3.065462   -3.345467   -0.470671
     37          1           0       -1.113750   -2.293890   -1.535375
     38          1           0        2.183002    1.393432    0.787988
     39          1           0        1.368523   -0.094960    1.251252
     40          1           0        2.777522    0.986832    2.988239
     41          1           0        3.221996   -0.546441    2.714747
 ---------------------------------------------------------------------

 SCF Done:  E(UB3LYP) =  -695.803634261     A.U. after   33 cycles
 SCF Done:  E(UB3LYP) =  -695.803634261     a.u. after    1 cycles

 The electronic state is 2-A.
 Alpha  occ. eigenvalues --  -14.21970 -14.19393 -10.11140 -10.10293 -10.10147
 Alpha  occ. eigenvalues --  -10.08623 -10.08208 -10.07995 -10.07673 -10.07609
 Alpha  occ. eigenvalues --  -10.07581 -10.07420 -10.07195 -10.07139 -10.07088
 Alpha  occ. eigenvalues --  -10.07007 -10.06314  -0.84635  -0.78449  -0.75610
 Alpha  occ. eigenvalues --   -0.71290  -0.69959  -0.66936  -0.64872  -0.63227
 Alpha  occ. eigenvalues --   -0.59169  -0.57328  -0.56114  -0.53633  -0.50442
 Alpha  occ. eigenvalues --   -0.47631  -0.47324  -0.45118  -0.42911  -0.39651
 Alpha  occ. eigenvalues --   -0.39171  -0.39022  -0.38035  -0.36055  -0.35574
 Alpha  occ. eigenvalues --   -0.34172  -0.33675  -0.33504  -0.32579  -0.32360
 Alpha  occ. eigenvalues --   -0.31272  -0.30704  -0.30117  -0.29243  -0.28467
 Alpha  occ. eigenvalues --   -0.27247  -0.26712  -0.25745  -0.24898  -0.24088
 Alpha  occ. eigenvalues --   -0.23469  -0.23221  -0.22938  -0.22679  -0.22512
 Alpha  occ. eigenvalues --   -0.17365  -0.15363  -0.14648  -0.11229   0.04211
 Alpha virt. eigenvalues --    0.06055   0.06319   0.06563   0.07814   0.07917
 Alpha virt. eigenvalues --    0.08042   0.08323   0.08460   0.08852   0.09985
 Alpha virt. eigenvalues --    0.10076   0.10504   0.10823   0.11131   0.11359

  Beta  occ. eigenvalues --  -14.21967 -14.19365 -10.11139 -10.10280 -10.10134
  Beta  occ. eigenvalues --  -10.08612 -10.08209 -10.07986 -10.07654 -10.07593
  Beta  occ. eigenvalues --  -10.07572 -10.07416 -10.07181 -10.07125 -10.07073
  Beta  occ. eigenvalues --  -10.06991 -10.06288  -0.84624  -0.78405  -0.75589
  Beta  occ. eigenvalues --   -0.71260  -0.69928  -0.66912  -0.64840  -0.63194
  Beta  occ. eigenvalues --   -0.59136  -0.57279  -0.56079  -0.53595  -0.50401
  Beta  occ. eigenvalues --   -0.47590  -0.47295  -0.45079  -0.42884  -0.39621
  Beta  occ. eigenvalues --   -0.39141  -0.38988  -0.38000  -0.36019  -0.35552
  Beta  occ. eigenvalues --   -0.34141  -0.33639  -0.33480  -0.32553  -0.32325
  Beta  occ. eigenvalues --   -0.31240  -0.30674  -0.30092  -0.29212  -0.28436
  Beta  occ. eigenvalues --   -0.27223  -0.26685  -0.25712  -0.24877  -0.24058
  Beta  occ. eigenvalues --   -0.23443  -0.23194  -0.22905  -0.22653  -0.22484
  Beta  occ. eigenvalues --   -0.17326  -0.15311  -0.14620  -0.11200
  Beta virt. eigenvalues --    0.06117   0.06746   0.06852   0.07147   0.08031
  Beta virt. eigenvalues --    0.08203   0.08376   0.08649   0.08780   0.09161
  Beta virt. eigenvalues --    0.10078   0.10503   0.10871   0.11140   0.11405

 Mulliken charges and spin densities:
               1          2
     1  C    0.093346  -0.752876
     2  C   -0.101723   0.461752
     3  C    0.157553  -0.725709
     4  C    0.031721  -0.177292
     5  N    0.599562   0.020738
     6  C    0.334114  -0.645447
     7  C   -0.392993   0.159904
     8  C    0.603843  -1.138573
     9  C    0.340399  -0.344395
    10  C   -0.448715   0.601224
    11  C   -0.297134  -0.020870
    12  C    0.285495  -0.750477
    13  C    0.350594  -0.658317
    14  C    0.151933   0.052890
    15  C   -0.917035   0.278781
    16  C   -0.226337  -0.389122
    17  N   -0.299432  -0.003373
    18  H   -0.113605   0.264328
    19  H   -0.062314   0.182383
    20  H   -0.083001   0.219249
    21  H    0.129474   0.071634
    22  H    0.018630   0.096770
    23  H   -0.274767   0.445968
    24  H   -0.177760   0.353631
    25  H    0.302608  -0.239919
    26  H    0.070021   0.051473
    27  H   -0.006685   0.176986
    28  H    0.076362   0.042200
    29  H   -0.297793   0.457368
    30  H   -0.421189   0.602067
    31  H    0.173820  -0.038687
    32  H   -0.309729   0.511852
    33  H   -0.072484   0.224690
    34  H   -0.159366   0.299717
    35  H   -0.120116   0.263912
    36  H   -0.114072   0.272739
    37  H   -0.150028   0.306461
    38  H   -0.113520   0.304836
    39  H    0.360117  -0.219874
    40  H   -0.011137   0.248572
    41  H    0.091346   0.132807
 Sum of Mulliken charges =  -1.00000   1.00000

 Dipole moment (field-independent basis, Debye):
    X=             -1.6512    Y=             -1.7596    Z=             -1.6869  Tot=              2.9442
 Quadrupole moment (field-independent basis, Debye-Ang):
   XX=           -173.9386   YY=           -161.7669   ZZ=           -154.2404
   XY=              1.7692   XZ=              0.0079   YZ=             -5.8228

 Summary of Natural Population Analysis:

                                       Natural Population
                Natural  -----------------------------------------------
    Atom  No    Charge         Core      Valence    Rydberg      Total
 -----------------------------------------------------------------------
      C    1   -0.29078      0.99965     2.28533    0.00580     3.29078
      C    2   -0.11379      0.99959     2.10384    0.01036     3.11379
      C    3   -0.18855      0.99960     2.17959    0.00935     3.18855
      C    4   -0.08490      0.99960     2.07384    0.01146     3.08490
      N    5   -0.28310      0.99966     2.76986    0.01358     3.78310
      C    6   -0.07810      0.99959     2.06850    0.01001     3.07810
      C    7   -0.19240      0.99961     2.18432    0.00847     3.19240
      C    8   -0.18397      0.99962     2.17625    0.00810     3.18397
      C    9   -0.19997      0.99959     2.19024    0.01013     3.19997
      C   10   -0.02173      0.99946     2.01158    0.01068     3.02173
      C   11   -0.09423      0.99952     2.08495    0.00977     3.09423
      C   12   -0.11225      0.99956     2.10305    0.00965     3.11225
      C   13   -0.09960      0.99956     2.09075    0.00929     3.09960
      C   14   -0.11844      0.99952     2.10947    0.00945     3.11844
      C   15    0.09516      0.99942     1.89452    0.01089     2.90484
      C   16   -0.08973      0.99959     2.07927    0.01086     3.08973
      N   17   -0.42287      0.99977     2.91349    0.00961     3.92287
      H   18    0.09633      0.00000     0.40258    0.00109     0.40367
      H   19    0.10046      0.00000     0.39863    0.00092     0.39954
      H   20    0.09929      0.00000     0.39972    0.00099     0.40071
      H   21    0.09790      0.00000     0.40034    0.00176     0.40210
      H   22    0.09863      0.00000     0.39992    0.00145     0.40137
      H   23    0.09830      0.00000     0.40065    0.00105     0.40170
      H   24    0.08610      0.00000     0.41249    0.00141     0.41390
      H   25    0.10114      0.00000     0.39700    0.00186     0.39886
      H   26    0.08757      0.00000     0.41121    0.00122     0.41243
      H   27    0.09822      0.00000     0.40039    0.00139     0.40178
      H   28    0.09619      0.00000     0.40164    0.00217     0.40381
      H   29    0.09757      0.00000     0.40128    0.00115     0.40243
      H   30    0.10066      0.00000     0.39788    0.00146     0.39934
      H   31    0.09276      0.00000     0.40595    0.00129     0.40724
      H   32    0.10127      0.00000     0.39732    0.00141     0.39873
      H   33    0.10575      0.00000     0.39195    0.00231     0.39425
      H   34    0.09910      0.00000     0.39980    0.00109     0.40090
      H   35    0.09882      0.00000     0.40036    0.00082     0.40118
      H   36    0.09866      0.00000     0.40048    0.00086     0.40134
      H   37    0.10285      0.00000     0.39569    0.00146     0.39715
      H   38    0.09129      0.00000     0.40695    0.00176     0.40871
      H   39    0.08377      0.00000     0.41317    0.00306     0.41623
      H   40    0.17554      0.00000     0.32285    0.00161     0.32446
      H   41    0.17108      0.00000     0.32718    0.00174     0.32892
 =======================================================================
   * Total *    0.00000     16.99293    46.80429    0.20279    64.00000

 Normal termination of Gaussian 16 at Mon Dec 14 14:41:43 2020.
