 Gaussian 16, Revision A.03,

 -----------------------------------------------------------
 # opt freq B3LYP/6-31G(d) empiricaldispersion=gd3bj scf=xqc
 -----------------------------------------------------------

 -------------------------------
 CID_114813280_JID_3912_neutraal
 -------------------------------
 Symbolic Z-matrix:
 Charge =  0 Multiplicity = 1

 SCF Done:  E(RB3LYP) =  -1005.85780472     A.U. after   15 cycles
 SCF Done:  E(RB3LYP) =  -1005.86814516     A.U. after   13 cycles
 SCF Done:  E(RB3LYP) =  -1005.86918448     A.U. after   12 cycles
 SCF Done:  E(RB3LYP) =  -1005.87013916     A.U. after   12 cycles
 SCF Done:  E(RB3LYP) =  -1005.87088413     A.U. after   12 cycles
 SCF Done:  E(RB3LYP) =  -1005.87158149     A.U. after   15 cycles
 SCF Done:  E(RB3LYP) =  -1005.87303097     A.U. after   11 cycles
 SCF Done:  E(RB3LYP) =  -1005.87646432     A.U. after   12 cycles
 SCF Done:  E(RB3LYP) =  -1005.87957630     A.U. after   15 cycles
 SCF Done:  E(RB3LYP) =  -1005.88114920     A.U. after   12 cycles
 SCF Done:  E(RB3LYP) =  -1005.88427342     A.U. after   10 cycles
 SCF Done:  E(RB3LYP) =  -1005.88427477     A.U. after    8 cycles
 SCF Done:  E(RB3LYP) =  -1005.88427515     A.U. after    8 cycles
 SCF Done:  E(RB3LYP) =  -1005.88427521     A.U. after    8 cycles
 SCF Done:  E(RB3LYP) =  -1005.88427524     A.U. after    7 cycles
 Optimization completed.
    -- Stationary point found.
 Normal termination of Gaussian 16 at Mon Dec 14 13:25:52 2020.

 --------------------------------------------------------------------
 #N Geom=AllCheck Guess=TCheck SCRF=Check GenChk RB3LYP/6-31G(d) Freq
 --------------------------------------------------------------------

 Structure from the checkpoint file:  "JID_3912.chk"
 -------------------------------
 CID_114813280_JID_3912_neutraal
 -------------------------------
 Charge =  0 Multiplicity = 1

 SCF Done:  E(RB3LYP) =  -1005.88427524     A.U. after    1 cycles

  Exact polarizability: 129.559   1.981 104.125  -2.384   0.548  99.880
 Approx polarizability: 157.387   4.520 153.025 -12.789   1.549 168.704

                      1                      2                      3
                      A                      A                      A
 Frequencies --     34.9339                50.3038                61.9702
 Red. masses --      4.0829                 3.4556                 3.0219
 Frc consts  --      0.0029                 0.0052                 0.0068
 IR Inten    --      2.7289                 0.3141                 1.0640

                      4                      5                      6
                      A                      A                      A
 Frequencies --     79.4059                87.1163               101.4972
 Red. masses --      2.0740                 3.0734                 4.3974
 Frc consts  --      0.0077                 0.0137                 0.0267
 IR Inten    --      0.9620                 0.2724                 2.6733

                      7                      8                      9
                      A                      A                      A
 Frequencies --    138.0874               169.6864               206.5007
 Red. masses --      2.6463                 1.5818                 2.9436
 Frc consts  --      0.0297                 0.0268                 0.0740
 IR Inten    --      4.3350                 4.7385                 3.8393

                     10                     11                     12
                      A                      A                      A
 Frequencies --    219.0870               233.5621               248.5203
 Red. masses --      1.9983                 3.9987                 1.2727
 Frc consts  --      0.0565                 0.1285                 0.0463
 IR Inten    --      2.5140                 2.3649                 0.5779

                     13                     14                     15
                      A                      A                      A
 Frequencies --    296.4122               308.0338               327.9282
 Red. masses --      4.2743                 3.7616                 4.4528
 Frc consts  --      0.2213                 0.2103                 0.2821
 IR Inten    --     10.3621                 0.8672                 8.0324

                     16                     17                     18
                      A                      A                      A
 Frequencies --    357.6797               378.3612               414.1204
 Red. masses --      2.9628                 3.6635                 1.3317
 Frc consts  --      0.2233                 0.3090                 0.1346
 IR Inten    --      0.8221                 0.7909                75.1261

                     19                     20                     21
                      A                      A                      A
 Frequencies --    426.7892               492.5969               508.5476
 Red. masses --      3.0534                 5.8084                 2.1340
 Frc consts  --      0.3277                 0.8304                 0.3252
 IR Inten    --     29.7892                11.5032                58.1631

                     22                     23                     24
                      A                      A                      A
 Frequencies --    535.3907               577.8925               614.6211
 Red. masses --      3.4715                 5.3711                 2.1838
 Frc consts  --      0.5863                 1.0568                 0.4861
 IR Inten    --     12.8791                30.9921               169.7862

                     25                     26                     27
                      A                      A                      A
 Frequencies --    664.9802               703.2656               759.1634
 Red. masses --      2.9836                 2.7410                 1.4431
 Frc consts  --      0.7773                 0.7987                 0.4900
 IR Inten    --     47.2300               160.2203                37.7831

                     28                     29                     30
                      A                      A                      A
 Frequencies --    790.3982               848.5476               863.5823
 Red. masses --      1.9321                 1.6788                 4.0436
 Frc consts  --      0.7112                 0.7122                 1.7768
 IR Inten    --     22.3756               111.9322                22.8368

                     31                     32                     33
                      A                      A                      A
 Frequencies --    895.0627               908.3319               920.4238
 Red. masses --      1.5002                 1.3068                 1.4547
 Frc consts  --      0.7081                 0.6352                 0.7261
 IR Inten    --     17.7453                 4.3352                52.9934

                     34                     35                     36
                      A                      A                      A
 Frequencies --    955.3416              1036.3441              1057.3311
 Red. masses --      1.9910                 2.1894                 2.7857
 Frc consts  --      1.0706                 1.3854                 1.8349
 IR Inten    --     73.1878               137.1647                 1.5061

                     37                     38                     39
                      A                      A                      A
 Frequencies --   1066.7354              1119.0969              1135.8744
 Red. masses --      3.4313                 5.9405                 2.0955
 Frc consts  --      2.3005                 4.3834                 1.5929
 IR Inten    --     53.0349               112.7678                29.5642

                     40                     41                     42
                      A                      A                      A
 Frequencies --   1142.4787              1159.9766              1164.2183
 Red. masses --      1.9955                 1.3911                 1.5589
 Frc consts  --      1.5346                 1.1028                 1.2449
 IR Inten    --      3.4106                10.1214                19.9211

                     43                     44                     45
                      A                      A                      A
 Frequencies --   1182.4434              1198.1474              1214.8877
 Red. masses --      2.2446                 1.5252                 2.4972
 Frc consts  --      1.8490                 1.2901                 2.1715
 IR Inten    --     31.4599                75.6934                27.9603

                     46                     47                     48
                      A                      A                      A
 Frequencies --   1295.1721              1308.3071              1322.0063
 Red. masses --      1.2361                 7.9251                 1.2430
 Frc consts  --      1.2217                 7.9923                 1.2799
 IR Inten    --     18.0536               211.5055                 2.5529

                     49                     50                     51
                      A                      A                      A
 Frequencies --   1355.9292              1366.8473              1377.9682
 Red. masses --      1.3135                 1.1886                 1.3128
 Frc consts  --      1.4228                 1.3084                 1.4687
 IR Inten    --     14.2022                17.1621                 8.5726

                     52                     53                     54
                      A                      A                      A
 Frequencies --   1436.4630              1438.7636              1444.2635
 Red. masses --      1.4007                 1.3016                 1.2299
 Frc consts  --      1.7029                 1.5874                 1.5115
 IR Inten    --     11.9731                28.8216                 2.1520

                     55                     56                     57
                      A                      A                      A
 Frequencies --   1462.0448              1473.1059              1510.7438
 Red. masses --      2.1284                 1.1490                 1.0772
 Frc consts  --      2.6805                 1.4691                 1.4485
 IR Inten    --     48.3469                 1.5995                11.5198

                     58                     59                     60
                      A                      A                      A
 Frequencies --   1521.2969              1523.2047              1530.2374
 Red. masses --      1.0512                 1.0582                 1.0398
 Frc consts  --      1.4334                 1.4466                 1.4346
 IR Inten    --      9.0202                 4.0155                 6.0308

                     61                     62                     63
                      A                      A                      A
 Frequencies --   1532.0843              1543.9735              1544.3984
 Red. masses --      1.0754                 1.0860                 1.0434
 Frc consts  --      1.4872                 1.5253                 1.4663
 IR Inten    --      2.0155                 8.6559                 9.5933

                     64                     65                     66
                      A                      A                      A
 Frequencies --   1655.5520              1749.5574              3043.0089
 Red. masses --      1.2393                 5.4525                 1.0598
 Frc consts  --      2.0013                 9.8333                 5.7823
 IR Inten    --     52.1639               150.1175                11.3410

                     67                     68                     69
                      A                      A                      A
 Frequencies --   3049.5362              3050.0818              3054.1017
 Red. masses --      1.0437                 1.0429                 1.0648
 Frc consts  --      5.7186                 5.7162                 5.8515
 IR Inten    --     54.1589                 8.8994                40.7599

                     70                     71                     72
                      A                      A                      A
 Frequencies --   3068.3160              3081.3508              3118.2106
 Red. masses --      1.0706                 1.0983                 1.1028
 Frc consts  --      5.9384                 6.1438                 6.3176
 IR Inten    --     39.5178                18.4321                41.6251

                     73                     74                     75
                      A                      A                      A
 Frequencies --   3124.1987              3131.1837              3138.5614
 Red. masses --      1.1022                 1.0958                 1.0944
 Frc consts  --      6.3387                 6.3300                 6.3514
 IR Inten    --     31.4785                17.8694                 2.9230

                     76                     77                     78
                      A                      A                      A
 Frequencies --   3159.4475              3181.2872              3481.5994
 Red. masses --      1.0950                 1.1022                 1.0747
 Frc consts  --      6.4402                 6.5723                 7.6754
 IR Inten    --      6.8917                 3.9295                34.1720

                     79                     80                     81
                      A                      A                      A
 Frequencies --   3520.7087              3551.6326              3663.9384
 Red. masses --      1.0749                 1.0466                 1.0998
 Frc consts  --      7.8498                 7.7786                 8.6987
 IR Inten    --     15.5061                14.0771                12.8721

 - Thermochemistry -
 -------------------
 Temperature   298.150 Kelvin.  Pressure   1.00000 Atm.
 Atom     1 has atomic number  6 and mass  12.00000

 Molecular mass:   208.09940 amu.
 Principal axes and moments of inertia in atomic units:
                           1         2         3
     Eigenvalues --  2005.083443521.567784579.80248
           X            0.99886  -0.04658   0.01027
           Y            0.04664   0.99890  -0.00569
           Z           -0.00999   0.00616   0.99993
 This molecule is an asymmetric top.
 Rotational symmetry number  1.
 Warning -- assumption of classical behavior for rotation
           may cause significant error
 Rotational temperatures (Kelvin)      0.04320     0.02460     0.01891
 Rotational constants (GHZ):           0.90008     0.51248     0.39407
 Zero-point vibrational energy     648763.3 (Joules/Mol)
                                  155.05816 (Kcal/Mol)
 Warning -- explicit consideration of  24 degrees of freedom as
           vibrations may cause significant error
 Vibrational temperatures:     50.26    72.38    89.16   114.25   125.34
          (Kelvin)            146.03   198.68   244.14   297.11   315.22
                              336.04   357.57   426.47   443.19   471.82
                              514.62   544.38   595.83   614.05   708.74
                              731.69   770.31   831.46   884.30   956.76
                             1011.84  1092.27  1137.21  1220.87  1242.50
                             1287.80  1306.89  1324.28  1374.52  1491.07
                             1521.26  1534.79  1610.13  1634.27  1643.77
                             1668.95  1675.05  1701.27  1723.87  1747.95
                             1863.46  1882.36  1902.07  1950.88  1966.59
                             1982.59  2066.75  2070.06  2077.97  2103.56
                             2119.47  2173.62  2188.81  2191.55  2201.67
                             2204.33  2221.43  2222.04  2381.97  2517.22
                             4378.21  4387.60  4388.39  4394.17  4414.62
                             4433.38  4486.41  4495.03  4505.08  4515.69
                             4545.74  4577.16  5009.25  5065.51  5110.01
                             5271.59

 Zero-point correction=                           0.247101 (Hartree/Particle)
 Thermal correction to Energy=                    0.262630
 Thermal correction to Enthalpy=                  0.263574
 Thermal correction to Gibbs Free Energy=         0.203637
 Sum of electronic and zero-point Energies=          -1005.637174
 Sum of electronic and thermal Energies=             -1005.621645
 Sum of electronic and thermal Enthalpies=           -1005.620701
 Sum of electronic and thermal Free Energies=        -1005.680638

                     E (Thermal)             CV                S
                      KCal/Mol        Cal/Mol-Kelvin    Cal/Mol-Kelvin
 Total                  164.803             56.110            126.147
 Electronic               0.000              0.000              0.000
 Translational            0.889              2.981             41.902
 Rotational               0.889              2.981             31.848
 Vibrational            163.025             50.148             52.397
 Vibration     1          0.594              1.983              5.527
 Vibration     2          0.595              1.977              4.805
 Vibration     3          0.597              1.972              4.393
 Vibration     4          0.600              1.963              3.906
 Vibration     5          0.601              1.958              3.724
 Vibration     6          0.604              1.948              3.425
 Vibration     7          0.614              1.915              2.830
 Vibration     8          0.625              1.880              2.439
 Vibration     9          0.641              1.831              2.074
 Vibration    10          0.647              1.812              1.967
 Vibration    11          0.654              1.790              1.851
 Vibration    12          0.662              1.765              1.741
 Vibration    13          0.690              1.680              1.437
 Vibration    14          0.698              1.658              1.373
 Vibration    15          0.711              1.620              1.270
 Vibration    16          0.733              1.559              1.132
 Vibration    17          0.749              1.516              1.046
 Vibration    18          0.778              1.440              0.912
 Vibration    19          0.788              1.412              0.869
 Vibration    20          0.848              1.266              0.677
 Vibration    21          0.864              1.231              0.637
 Vibration    22          0.890              1.172              0.575
 Vibration    23          0.934              1.079              0.489
 Vibration    24          0.974              1.001              0.425

                           ! Non-Optimized Parameters !
 Normal termination of Gaussian 16 at Mon Dec 14 13:33:25 2020.

 ----------------------------------------------------------------------
 # B3LYP/6-311++G(d,p) empiricaldispersion=gd3bj scf=xqc pop=npa geom=c
 heck
 ----------------------------------------------------------------------

 ---------------------------------------
 CID_114813280_JID_3912_Energie_neutraal
 ---------------------------------------
 Structure from the checkpoint file:  "JID_3912.chk"
 Charge =  0 Multiplicity = 1

 SCF Done:  E(RB3LYP) =  -1006.10361711     A.U. after   15 cycles
 Normal termination of Gaussian 16 at Mon Dec 14 13:36:29 2020.

 ----------------------------------------------------------------------
 # B3LYP/6-311++G(d,p) empiricaldispersion=gd3bj scf=xqc pop=npa geom=c
 heck
 ----------------------------------------------------------------------

 -------------------------------------
 CID_114813280_JID_3912_Energie_kation
 -------------------------------------
 Structure from the checkpoint file:  "JID_3912.chk"
 Charge =  1 Multiplicity = 2

 SCF Done:  E(UB3LYP) =  -1005.78286204     A.U. after   33 cycles
 SCF Done:  E(UB3LYP) =  -1005.78286204     a.u. after    1 cycles
 Normal termination of Gaussian 16 at Mon Dec 14 13:45:23 2020.
 Gaussian 16:  ES64L-G16RevA.03 25-Dec-2016

 ----------------------------------------------------------------------
 # B3LYP/6-311++G(d,p) empiricaldispersion=gd3bj scf=xqc pop=npa geom=c
 heck
 ----------------------------------------------------------------------

 ------------------------------------
 CID_114813280_JID_3912_Energie_anion
 ------------------------------------
 Structure from the checkpoint file:  "JID_3912.chk"
 Charge = -1 Multiplicity = 2

                         Standard orientation:
 ---------------------------------------------------------------------
 Center     Atomic      Atomic             Coordinates (Angstroms)
 Number     Number       Type             X           Y           Z
 ---------------------------------------------------------------------
      1          6           0       -3.310863    2.397117   -0.011847
      2          6           0       -2.291915    1.453234    0.631591
      3          6           0       -1.173478    1.101151   -0.349384
      4          7           0       -0.121153    0.292793    0.300629
      5          6           0       -0.519097   -0.999619    0.870268
      6          6           0       -1.347368   -1.880831   -0.071293
      7          7           0       -1.111335   -2.109896   -1.304339
      8          7           0       -2.399744   -2.517767    0.568976
      9         16           0        1.412686    0.370237   -0.366663
     10          8           0        1.752448   -0.802959   -1.180125
     11          8           0        1.551576    1.709319   -0.945001
     12          7           0        2.293546    0.185464    1.060787
     13          6           0        3.718893   -0.133572    0.879187
     14          1           0       -4.122485    2.634490    0.683573
     15          1           0       -3.756468    1.945684   -0.905842
     16          1           0       -2.839818    3.339523   -0.313845
     17          1           0       -1.852816    1.914015    1.525209
     18          1           0       -2.806275    0.541570    0.960978
     19          1           0       -1.587634    0.565998   -1.213444
     20          1           0       -0.697320    2.013398   -0.709377
     21          1           0        0.384670   -1.535648    1.168046
     22          1           0       -1.075318   -0.799384    1.792550
     23          1           0       -0.233329   -1.672799   -1.591952
     24          1           0       -2.883748   -2.005563    1.294558
     25          1           0       -3.013459   -3.014553   -0.066574
     26          1           0        2.141351    1.016324    1.630289
     27          1           0        4.281059    0.660955    0.372518
     28          1           0        4.147074   -0.304889    1.869947
     29          1           0        3.793128   -1.052826    0.297484
 ---------------------------------------------------------------------

 SCF Done:  E(UB3LYP) =  -1006.09840879     A.U. after   29 cycles

 The electronic state is 2-A.
 Alpha  occ. eigenvalues --  -88.98707 -19.02883 -19.02851 -14.25919 -14.25343
 Alpha  occ. eigenvalues --  -14.22432 -14.17373 -10.14704 -10.12373 -10.11535
 Alpha  occ. eigenvalues --  -10.11128 -10.07695 -10.07210  -8.04676  -6.00929
 Alpha  occ. eigenvalues --   -6.00912  -6.00865  -1.03945  -0.92182  -0.86548
 Alpha  occ. eigenvalues --   -0.84273  -0.82859  -0.75121  -0.69767  -0.64504
 Alpha  occ. eigenvalues --   -0.62776  -0.58386  -0.52274  -0.50719  -0.47864
 Alpha  occ. eigenvalues --   -0.46181  -0.43720  -0.41909  -0.40829  -0.39523
 Alpha  occ. eigenvalues --   -0.37104  -0.36878  -0.35518  -0.35176  -0.34377
 Alpha  occ. eigenvalues --   -0.32632  -0.32427  -0.31552  -0.29992  -0.28204
 Alpha  occ. eigenvalues --   -0.26530  -0.26075  -0.25477  -0.25303  -0.24923
 Alpha  occ. eigenvalues --   -0.23649  -0.22082  -0.19079  -0.17610  -0.15411
 Alpha  occ. eigenvalues --   -0.14974   0.03801
 Alpha virt. eigenvalues --    0.05737   0.07305   0.07862   0.08957   0.09495
 Alpha virt. eigenvalues --    0.09685   0.10214   0.10769   0.11165   0.11807
 Alpha virt. eigenvalues --    0.12006   0.12665   0.13353   0.14140   0.14385

  Beta  occ. eigenvalues --  -88.98706 -19.02874 -19.02843 -14.25917 -14.25315
  Beta  occ. eigenvalues --  -14.22379 -14.17366 -10.14701 -10.12347 -10.11502
  Beta  occ. eigenvalues --  -10.11120 -10.07657 -10.07189  -8.04674  -6.00926
  Beta  occ. eigenvalues --   -6.00909  -6.00864  -1.03925  -0.92161  -0.86523
  Beta  occ. eigenvalues --   -0.84229  -0.82815  -0.75068  -0.69729  -0.64463
  Beta  occ. eigenvalues --   -0.62730  -0.58328  -0.52207  -0.50643  -0.47785
  Beta  occ. eigenvalues --   -0.46132  -0.43679  -0.41887  -0.40789  -0.39480
  Beta  occ. eigenvalues --   -0.37069  -0.36842  -0.35483  -0.35135  -0.34335
  Beta  occ. eigenvalues --   -0.32603  -0.32391  -0.31509  -0.29971  -0.28160
  Beta  occ. eigenvalues --   -0.26496  -0.26038  -0.25437  -0.25274  -0.24893
  Beta  occ. eigenvalues --   -0.23624  -0.22063  -0.19058  -0.17588  -0.15392
  Beta  occ. eigenvalues --   -0.14940
  Beta virt. eigenvalues --    0.06407   0.06848   0.07861   0.08635   0.09370
  Beta virt. eigenvalues --    0.09736   0.10144   0.10568   0.10894   0.11541
  Beta virt. eigenvalues --    0.12232   0.12415   0.12854   0.13542   0.14232

 Mulliken charges and spin densities:
               1          2
     1  C    0.355495  -1.061660
     2  C    0.243594  -0.054915
     3  C   -0.575851   0.053924
     4  N   -0.172105   0.167918
     5  C   -0.182031  -0.572456
     6  C    0.589194  -0.554476
     7  N   -0.384632  -0.007213
     8  N   -0.318510   0.095448
     9  S    1.101056  -0.893107
    10  O   -0.227126   0.025173
    11  O   -0.094134   0.003419
    12  N   -0.458489   0.172525
    13  C    0.418050  -0.773277
    14  H   -0.289343   0.444488
    15  H   -0.022690   0.156727
    16  H    0.078590   0.055103
    17  H   -0.287222   0.456224
    18  H   -0.154229   0.271839
    19  H    0.201124  -0.038407
    20  H    0.134663   0.068021
    21  H    0.102430   0.132982
    22  H   -0.514542   0.729626
    23  H    0.243396   0.012917
    24  H   -0.172728   0.417594
    25  H    0.049124   0.218475
    26  H   -0.319667   0.628130
    27  H    0.025825   0.132589
    28  H   -0.434996   0.599646
    29  H    0.065752   0.112739
 Sum of Mulliken charges =  -1.00000   1.00000

 Dipole moment (field-independent basis, Debye):
    X=              1.8563    Y=              0.6369    Z=             -3.6819  Tot=              4.1723
 Quadrupole moment (field-independent basis, Debye-Ang):
   XX=           -146.2209   YY=           -128.5352   ZZ=           -134.3125
   XY=             -4.8983   XZ=              3.2462   YZ=             -5.3961

 Summary of Natural Population Analysis:

                                       Natural Population
                Natural  -----------------------------------------------
    Atom  No    Charge         Core      Valence    Rydberg      Total
 -----------------------------------------------------------------------
      C    1   -0.28371      0.99966     2.27852    0.00553     3.28371
      C    2   -0.19559      0.99963     2.18772    0.00824     3.19559
      C    3   -0.09089      0.99958     2.07971    0.01160     3.09089
      N    4   -0.36813      0.99972     2.85202    0.01639     3.86813
      C    5   -0.12476      0.99954     2.11050    0.01471     3.12476
      C    6    0.21366      0.99966     1.76825    0.01844     2.78634
      N    7   -0.36591      0.99970     2.85831    0.00790     3.86591
      N    8   -0.40108      0.99970     2.89099    0.01039     3.90108
      S    9    1.16690      4.99925     1.73037    0.10348     6.83310
      O   10   -0.46663      0.99990     3.46123    0.00550     4.46663
      O   11   -0.46006      0.99990     3.45481    0.00534     4.46006
      N   12   -0.42732      0.99977     2.91366    0.01389     3.92732
      C   13   -0.18589      0.99965     2.17670    0.00954     3.18589
      H   14    0.10276      0.00000     0.39633    0.00091     0.39724
      H   15    0.09651      0.00000     0.40259    0.00090     0.40349
      H   16    0.09498      0.00000     0.40414    0.00088     0.40502
      H   17    0.10078      0.00000     0.39717    0.00205     0.39922
      H   18    0.09653      0.00000     0.40031    0.00317     0.40347
      H   19    0.09454      0.00000     0.40410    0.00136     0.40546
      H   20    0.11263      0.00000     0.38597    0.00140     0.38737
      H   21    0.12353      0.00000     0.37498    0.00149     0.37647
      H   22    0.10859      0.00000     0.38919    0.00222     0.39141
      H   23    0.17769      0.00000     0.32008    0.00223     0.32231
      H   24    0.19214      0.00000     0.30318    0.00468     0.30786
      H   25    0.19058      0.00000     0.30745    0.00197     0.30942
      H   26    0.19882      0.00000     0.29541    0.00577     0.30118
      H   27    0.08988      0.00000     0.40897    0.00115     0.41012
      H   28    0.10349      0.00000     0.39480    0.00172     0.39651
      H   29    0.10596      0.00000     0.39295    0.00109     0.39404
 =======================================================================
   * Total *   -0.00000     16.99567    38.74039    0.26394    56.00000

 Normal termination of Gaussian 16 at Mon Dec 14 13:53:10 2020.
