 Gaussian 16, Revision A.03,

 -----------------------------------------------------------
 # opt freq B3LYP/6-31G(d) empiricaldispersion=gd3bj scf=xqc
 -----------------------------------------------------------

 ------------------------------
 CID_130627691_JID_942_neutraal
 ------------------------------
 Symbolic Z-matrix:
 Charge =  0 Multiplicity = 1

 SCF Done:  E(RB3LYP) =  -423.932788005     A.U. after   13 cycles
 SCF Done:  E(RB3LYP) =  -423.942698098     A.U. after   12 cycles
 SCF Done:  E(RB3LYP) =  -423.945501490     A.U. after   13 cycles
 SCF Done:  E(RB3LYP) =  -423.945692257     A.U. after   12 cycles
 SCF Done:  E(RB3LYP) =  -423.946188119     A.U. after   11 cycles
 SCF Done:  E(RB3LYP) =  -423.946523277     A.U. after   12 cycles
 SCF Done:  E(RB3LYP) =  -423.947215549     A.U. after   12 cycles
 SCF Done:  E(RB3LYP) =  -423.913885752     A.U. after   14 cycles
 SCF Done:  E(RB3LYP) =  -423.939062745     A.U. after   13 cycles
 SCF Done:  E(RB3LYP) =  -423.947216651     A.U. after    7 cycles
 SCF Done:  E(RB3LYP) =  -423.950129402     A.U. after   10 cycles
 SCF Done:  E(RB3LYP) =  -423.950137711     A.U. after    9 cycles
 SCF Done:  E(RB3LYP) =  -423.950141949     A.U. after    9 cycles
 SCF Done:  E(RB3LYP) =  -423.950142693     A.U. after    9 cycles
 SCF Done:  E(RB3LYP) =  -423.950143036     A.U. after    7 cycles
 SCF Done:  E(RB3LYP) =  -423.950143153     A.U. after    7 cycles
 Optimization completed.
    -- Stationary point found.

 1\1\GINC-NODE378\FOpt\RB3LYP\6-31G(d)\C8H16N2\VSC10255\08-Dec-2020\0\\
 # opt freq B3LYP/6-31G(d) empiricaldispersion=gd3bj scf=xqc\\CID_13062
 7691_JID_942_neutraal\\0,1\C,1.7600495596,-0.6583771932,0.4204636075\C
 ,1.0460634514,-0.3316712964,-0.8962737014\C,0.5817685502,-1.5594545647
 ,-1.6844296464\N,-0.5230384077,-2.2308699805,-0.9856432028\N,-0.793827
 3743,-3.5651788065,-1.2011410945\C,-0.8096632147,-4.0653175552,-2.3833
 288611\C,-0.6162664946,-3.4068114412,-3.7143758036\C,-1.5166222681,-3.
 8127043373,-4.8577763785\C,-1.6578987622,-2.4383776554,-4.2523729494\C

 Normal termination of Gaussian 16 at Tue Dec  8 13:54:49 2020.

 --------------------------------------------------------------------
 #N Geom=AllCheck Guess=TCheck SCRF=Check GenChk RB3LYP/6-31G(d) Freq
 --------------------------------------------------------------------

 Structure from the checkpoint file:  "JID_942.chk"
 ------------------------------
 CID_130627691_JID_942_neutraal
 ------------------------------
 Charge =  0 Multiplicity = 1

 SCF Done:  E(RB3LYP) =  -423.950143153     A.U. after    1 cycles

  Exact polarizability: 121.525  -4.981  86.479   6.949   0.720  82.227
 Approx polarizability: 153.713  -9.467 126.644  16.562   1.430 124.781

                      1                      2                      3
                      A                      A                      A
 Frequencies --     35.2743                55.8747                81.6735
 Red. masses --      3.0401                 2.5026                 3.0295
 Frc consts  --      0.0022                 0.0046                 0.0119
 IR Inten    --      0.0374                 0.1903                 0.1406

                      4                      5                      6
                      A                      A                      A
 Frequencies --    124.6417               140.1039               177.0119
 Red. masses --      2.9742                 1.4943                 1.2996
 Frc consts  --      0.0272                 0.0173                 0.0240
 IR Inten    --      0.2343                 0.6185                 0.2599

                      7                      8                      9
                      A                      A                      A
 Frequencies --    205.9176               220.9530               256.7256
 Red. masses --      2.5908                 2.1506                 1.9181
 Frc consts  --      0.0647                 0.0619                 0.0745
 IR Inten    --      0.8165                 2.3095                 0.3628

                     10                     11                     12
                      A                      A                      A
 Frequencies --    300.6344               353.4045               382.8480
 Red. masses --      2.0176                 2.5441                 2.7025
 Frc consts  --      0.1074                 0.1872                 0.2334
 IR Inten    --      0.1390                 1.3266                 1.5030

                     13                     14                     15
                      A                      A                      A
 Frequencies --    439.4713               478.9270               605.2835
 Red. masses --      2.6950                 2.8779                 4.3393
 Frc consts  --      0.3067                 0.3889                 0.9367
 IR Inten    --      0.5446                 1.2855                10.6662

                     16                     17                     18
                      A                      A                      A
 Frequencies --    703.7803               743.3562               785.6860
 Red. masses --      1.6690                 2.2631                 1.3014
 Frc consts  --      0.4871                 0.7368                 0.4733
 IR Inten    --     59.5669                30.2225                19.7580

                     19                     20                     21
                      A                      A                      A
 Frequencies --    789.6652               824.8566               860.4233
 Red. masses --      2.8317                 1.9770                 1.3635
 Frc consts  --      1.0404                 0.7925                 0.5948
 IR Inten    --      9.9473                 9.1679                 2.2977

                     22                     23                     24
                      A                      A                      A
 Frequencies --    878.4698               903.0409               930.6782
 Red. masses --      1.3346                 2.4060                 1.4077
 Frc consts  --      0.6068                 1.1560                 0.7184
 IR Inten    --      4.5927                 7.3641                 4.2255

                     25                     26                     27
                      A                      A                      A
 Frequencies --    936.5145              1005.6865              1017.6303
 Red. masses --      1.2265                 1.6916                 1.9170
 Frc consts  --      0.6338                 1.0080                 1.1697
 IR Inten    --      2.0148                 6.8048                 5.0447

                     28                     29                     30
                      A                      A                      A
 Frequencies --   1043.7215              1063.0546              1079.8517
 Red. masses --      2.0972                 2.4913                 1.5075
 Frc consts  --      1.3460                 1.6588                 1.0357
 IR Inten    --      7.7665                18.6493                 5.2089

                     31                     32                     33
                      A                      A                      A
 Frequencies --   1114.6833              1126.3041              1149.4652
 Red. masses --      1.5167                 2.3107                 1.7885
 Frc consts  --      1.1103                 1.7271                 1.3923
 IR Inten    --      3.9848                28.4398                36.9918

                     34                     35                     36
                      A                      A                      A
 Frequencies --   1159.1601              1161.3141              1182.0463
 Red. masses --      1.4978                 1.9169                 2.0619
 Frc consts  --      1.1858                 1.5232                 1.6974
 IR Inten    --      0.8936                 1.7243                 2.2809

                     37                     38                     39
                      A                      A                      A
 Frequencies --   1213.5132              1240.2336              1270.9371
 Red. masses --      1.7267                 1.5130                 1.2005
 Frc consts  --      1.4981                 1.3711                 1.1426
 IR Inten    --      1.9104                 2.8434                13.8033

                     40                     41                     42
                      A                      A                      A
 Frequencies --   1327.3596              1371.5791              1394.4869
 Red. masses --      1.1767                 1.4228                 1.3192
 Frc consts  --      1.2215                 1.5770                 1.5114
 IR Inten    --      5.7526                 7.4700                 6.2879

                     43                     44                     45
                      A                      A                      A
 Frequencies --   1403.2522              1421.2613              1424.4342
 Red. masses --      1.4566                 1.5545                 1.3257
 Frc consts  --      1.6899                 1.8500                 1.5848
 IR Inten    --      2.2897                 1.6411                22.5343

                     46                     47                     48
                      A                      A                      A
 Frequencies --   1448.8928              1452.9364              1512.4688
 Red. masses --      1.2451                 1.3740                 1.0721
 Frc consts  --      1.5401                 1.7089                 1.4450
 IR Inten    --      3.7609                 3.8603                 3.0239

                     49                     50                     51
                      A                      A                      A
 Frequencies --   1514.9334              1523.2851              1524.8448
 Red. masses --      1.1863                 1.0529                 1.0910
 Frc consts  --      1.6040                 1.4395                 1.4946
 IR Inten    --      7.6963                 3.9395                 2.9105

                     52                     53                     54
                      A                      A                      A
 Frequencies --   1527.5105              1533.2703              1549.3636
 Red. masses --      1.1375                 1.0625                 1.1138
 Frc consts  --      1.5637                 1.4717                 1.5753
 IR Inten    --      3.5379                 8.4563                26.0295

                     55                     56                     57
                      A                      A                      A
 Frequencies --   1555.4138              1717.0498              2982.5040
 Red. masses --      1.1655                 4.8363                 1.0734
 Frc consts  --      1.6614                 8.4009                 5.6256
 IR Inten    --     11.6786                 5.0968                34.6033

                     58                     59                     60
                      A                      A                      A
 Frequencies --   3046.5107              3048.3708              3051.4602
 Red. masses --      1.0541                 1.0433                 1.0378
 Frc consts  --      5.7642                 5.7122                 5.6935
 IR Inten    --      9.3911                34.4207                33.1735

                     61                     62                     63
                      A                      A                      A
 Frequencies --   3080.3274              3111.2936              3115.0982
 Red. masses --      1.1025                 1.1021                 1.0985
 Frc consts  --      6.1636                 6.2855                 6.2802
 IR Inten    --      6.9944                58.6806                13.6867

                     64                     65                     66
                      A                      A                      A
 Frequencies --   3116.5849              3120.7269              3126.2466
 Red. masses --      1.0895                 1.1014                 1.0961
 Frc consts  --      6.2349                 6.3200                 6.3117
 IR Inten    --     35.0163                39.1140                 4.7668

                     67                     68                     69
                      A                      A                      A
 Frequencies --   3134.7158              3136.1130              3139.2475
 Red. masses --      1.0746                 1.0705                 1.0879
 Frc consts  --      6.2216                 6.2034                 6.3166
 IR Inten    --     13.6083                20.3238                34.4507

                     70                     71                     72
                      A                      A                      A
 Frequencies --   3147.1464              3218.3424              3561.8778
 Red. masses --      1.0911                 1.1166                 1.0753
 Frc consts  --      6.3675                 6.8142                 8.0379
 IR Inten    --     25.4921                18.4514                 5.1122

 - Thermochemistry -
 -------------------
 Temperature   298.150 Kelvin.  Pressure   1.00000 Atm.
 Atom     1 has atomic number  6 and mass  12.00000

 Molecular mass:   140.13135 amu.
 Principal axes and moments of inertia in atomic units:
                           1         2         3
     Eigenvalues --   712.935452712.866712864.53041
           X            0.99998   0.00020  -0.00570
           Y           -0.00052   0.99843  -0.05598
           Z            0.00568   0.05598   0.99842
 This molecule is an asymmetric top.
 Rotational symmetry number  1.
 Warning -- assumption of classical behavior for rotation
           may cause significant error
 Rotational temperatures (Kelvin)      0.12149     0.03193     0.03024
 Rotational constants (GHZ):           2.53142     0.66525     0.63003
 Zero-point vibrational energy     618360.0 (Joules/Mol)
                                  147.79160 (Kcal/Mol)
 Warning -- explicit consideration of  15 degrees of freedom as
           vibrations may cause significant error
 Vibrational temperatures:     50.75    80.39   117.51   179.33   201.58
          (Kelvin)            254.68   296.27   317.90   369.37   432.55
                              508.47   550.83   632.30   689.07   870.87
                             1012.58  1069.52  1130.43  1136.15  1186.78
                             1237.96  1263.92  1299.27  1339.04  1347.44
                             1446.96  1464.14  1501.68  1529.50  1553.67
                             1603.78  1620.50  1653.82  1667.77  1670.87
                             1700.70  1745.97  1784.42  1828.59  1909.77
                             1973.40  2006.36  2018.97  2044.88  2049.44
                             2084.63  2090.45  2176.11  2179.65  2191.67
                             2193.91  2197.75  2206.03  2229.19  2237.89
                             2470.45  4291.16  4383.25  4385.93  4390.37
                             4431.90  4476.46  4481.93  4484.07  4490.03
                             4497.97  4510.16  4512.17  4516.68  4528.04
                             4630.48  5124.75

 Zero-point correction=                           0.235521 (Hartree/Particle)
 Thermal correction to Energy=                    0.247222
 Thermal correction to Enthalpy=                  0.248167
 Thermal correction to Gibbs Free Energy=         0.197245
 Sum of electronic and zero-point Energies=           -423.714622
 Sum of electronic and thermal Energies=              -423.702921
 Sum of electronic and thermal Enthalpies=            -423.701977
 Sum of electronic and thermal Free Energies=         -423.752898

                     E (Thermal)             CV                S
                      KCal/Mol        Cal/Mol-Kelvin    Cal/Mol-Kelvin
 Total                  155.134             42.524            107.174
 Electronic               0.000              0.000              0.000
 Translational            0.889              2.981             40.724
 Rotational               0.889              2.981             30.095
 Vibrational            153.357             36.563             36.355
 Vibration     1          0.594              1.982              5.508
 Vibration     2          0.596              1.975              4.598
 Vibration     3          0.600              1.962              3.850
 Vibration     4          0.610              1.928              3.027
 Vibration     5          0.615              1.913              2.802
 Vibration     6          0.628              1.871              2.360
 Vibration     7          0.640              1.831              2.080
 Vibration     8          0.648              1.809              1.951
 Vibration     9          0.666              1.751              1.684
 Vibration    10          0.693              1.672              1.413
 Vibration    11          0.730              1.568              1.151
 Vibration    12          0.752              1.507              1.028
 Vibration    13          0.800              1.384              0.828
 Vibration    14          0.835              1.297              0.713
 Vibration    15          0.964              1.021              0.441

                           ! Non-Optimized Parameters !

 1\1\GINC-NODE378\Freq\RB3LYP\6-31G(d)\C8H16N2\VSC10255\08-Dec-2020\0\\
 #N Geom=AllCheck Guess=TCheck SCRF=Check GenChk RB3LYP/6-31G(d) Freq\\
 CID_130627691_JID_942_neutraal\\0,1\C,1.7600495596,-0.6583771932,0.420
 4636075\C,1.0460634514,-0.3316712964,-0.8962737014\C,0.5817685502,-1.5
 594545647,-1.6844296464\N,-0.5230384077,-2.2308699805,-0.9856432028\N,
 -0.7938273743,-3.5651788065,-1.2011410945\C,-0.8096632147,-4.065317555
 2,-2.3833288611\C,-0.6162664946,-3.4068114412,-3.7143758036\C,-1.51662
 22681,-3.8127043373,-4.8577763785\C,-1.6578987622,-2.4383776554,-4.252

 Normal termination of Gaussian 16 at Tue Dec  8 13:59:34 2020.

 ----------------------------------------------------------------------
 # B3LYP/6-311++G(d,p) empiricaldispersion=gd3bj scf=xqc pop=npa geom=c
 heck
 ----------------------------------------------------------------------

 --------------------------------------
 CID_130627691_JID_942_Energie_neutraal
 --------------------------------------
 Structure from the checkpoint file:  "JID_942.chk"
 Charge =  0 Multiplicity = 1

 SCF Done:  E(RB3LYP) =  -424.071664697     A.U. after   13 cycles
 Normal termination of Gaussian 16 at Tue Dec  8 14:03:01 2020.

 ----------------------------------------------------------------------
 # B3LYP/6-311++G(d,p) empiricaldispersion=gd3bj scf=xqc pop=npa geom=c
 heck
 ----------------------------------------------------------------------

 ------------------------------------
 CID_130627691_JID_942_Energie_kation
 ------------------------------------
 Structure from the checkpoint file:  "JID_942.chk"
 Charge =  1 Multiplicity = 2

 SCF Done:  E(UB3LYP) =  -423.780026357     A.U. after   20 cycles
 Normal termination of Gaussian 16 at Tue Dec  8 14:08:22 2020.
 Gaussian 16:  ES64L-G16RevA.03 25-Dec-2016

 -----------------------------------
 CID_130627691_JID_942_Energie_anion
 -----------------------------------
 Structure from the checkpoint file:  "JID_942.chk"
 Charge = -1 Multiplicity = 2

                         Standard orientation:
 ---------------------------------------------------------------------
 Center     Atomic      Atomic             Coordinates (Angstroms)
 Number     Number       Type             X           Y           Z
 ---------------------------------------------------------------------
      1          6           0       -3.887255   -0.024345    0.143427
      2          6           0       -2.705523    0.941687    0.286955
      3          6           0       -1.350099    0.256853    0.481998
      4          7           0       -0.937860   -0.427129   -0.751666
      5          7           0       -0.047413   -1.478839   -0.717645
      6          6           0        1.018053   -1.434465   -0.002963
      7          6           0        1.562258   -0.333475    0.853996
      8          6           0        3.047426   -0.058257    0.818129
      9          6           0        2.091218    0.944138    0.221375
     10          6           0        2.035074    1.160643   -1.275312
     11          1           0       -3.804482   -0.661303   -0.745211
     12          1           0       -4.831343    0.523864    0.057061
     13          1           0       -3.959228   -0.685134    1.015305
     14          1           0       -2.645045    1.599303   -0.590178
     15          1           0       -2.878670    1.593337    1.151934
     16          1           0       -0.601614    1.005566    0.751182
     17          1           0       -1.412002   -0.463820    1.315073
     18          1           0       -1.749742   -0.766896   -1.253477
     19          1           0        1.639981   -2.325567   -0.101288
     20          1           0        1.087368   -0.210907    1.825921
     21          1           0        3.555254    0.178915    1.748751
     22          1           0        3.642368   -0.646931    0.122323
     23          1           0        1.925968    1.845157    0.811108
     24          1           0        1.049547    1.522839   -1.584547
     25          1           0        2.790962    1.890134   -1.590076
     26          1           0        2.220677    0.226540   -1.814331
 ---------------------------------------------------------------------

 SCF Done:  E(UB3LYP) =  -424.056151688     A.U. after   30 cycles

 The electronic state is 2-A.
 Alpha  occ. eigenvalues --  -14.23130 -14.22721 -10.08954 -10.08753 -10.07452
 Alpha  occ. eigenvalues --  -10.07418 -10.06637 -10.06512 -10.05883 -10.05546
 Alpha  occ. eigenvalues --   -0.88387  -0.76387  -0.72512  -0.66188  -0.60952
 Alpha  occ. eigenvalues --   -0.58510  -0.52367  -0.48580  -0.48435  -0.44878
 Alpha  occ. eigenvalues --   -0.39766  -0.38486  -0.37615  -0.34655  -0.33421
 Alpha  occ. eigenvalues --   -0.32327  -0.31187  -0.30303  -0.28596  -0.28059
 Alpha  occ. eigenvalues --   -0.26534  -0.25239  -0.24713  -0.23809  -0.22843
 Alpha  occ. eigenvalues --   -0.19559  -0.18078  -0.15770  -0.11199   0.04766
 Alpha virt. eigenvalues --    0.06766   0.08027   0.08262   0.09309   0.09451
 Alpha virt. eigenvalues --    0.09675   0.10083   0.10983   0.11410   0.12205
 Alpha virt. eigenvalues --    0.12513   0.12727   0.13505   0.14881   0.15233

  Beta  occ. eigenvalues --  -14.23125 -14.22681 -10.08931 -10.08731 -10.07434
  Beta  occ. eigenvalues --  -10.07408 -10.06616 -10.06482 -10.05844 -10.05530
  Beta  occ. eigenvalues --   -0.88331  -0.76344  -0.72467  -0.66137  -0.60917
  Beta  occ. eigenvalues --   -0.58444  -0.52291  -0.48482  -0.48368  -0.44832
  Beta  occ. eigenvalues --   -0.39686  -0.38444  -0.37563  -0.34605  -0.33381
  Beta  occ. eigenvalues --   -0.32285  -0.31140  -0.30270  -0.28568  -0.28011
  Beta  occ. eigenvalues --   -0.26429  -0.25187  -0.24663  -0.23764  -0.22741
  Beta  occ. eigenvalues --   -0.19509  -0.18051  -0.15704  -0.11135
  Beta virt. eigenvalues --    0.07169   0.07742   0.08525   0.08736   0.09814
  Beta virt. eigenvalues --    0.09923   0.10083   0.10378   0.11577   0.11878
  Beta virt. eigenvalues --    0.12486   0.13034   0.13083   0.13746   0.14992

 Mulliken charges and spin densities:
               1          2
     1  C    1.249678  -1.750864
     2  C   -1.222557   0.806829
     3  C    0.649447  -1.002236
     4  N   -0.065008   0.113189
     5  N   -0.011345  -0.046984
     6  C   -0.223409  -0.268268
     7  C    0.151611   0.088649
     8  C    0.657784  -1.202621
     9  C    0.009637   0.114643
    10  C    0.043704  -0.756753
    11  H   -0.133899   0.246701
    12  H   -0.586759   0.741709
    13  H   -0.235745   0.377399
    14  H   -0.124093   0.267297
    15  H   -0.376408   0.539254
    16  H    0.020241   0.177562
    17  H   -0.057121   0.214341
    18  H    0.303741  -0.063838
    19  H    0.066199   0.113931
    20  H   -0.362814   0.597194
    21  H   -0.398200   0.554864
    22  H    0.101945   0.015080
    23  H   -0.513095   0.729565
    24  H    0.164775   0.000074
    25  H   -0.117346   0.249297
    26  H    0.009035   0.143985
 Sum of Mulliken charges =  -1.00000   1.00000

 Dipole moment (field-independent basis, Debye):
    X=              3.0366    Y=             -3.2051    Z=             -3.9013  Tot=              5.8918
 Quadrupole moment (field-independent basis, Debye-Ang):
   XX=           -134.4898   YY=            -98.8272   ZZ=           -101.2799
   XY=             -1.0086   XZ=             -1.1096   YZ=             -4.8978

 Summary of Natural Population Analysis:

                                       Natural Population
                Natural  -----------------------------------------------
    Atom  No    Charge         Core      Valence    Rydberg      Total
 -----------------------------------------------------------------------
      C    1   -0.28750      0.99967     2.28188    0.00595     3.28750
      C    2   -0.19563      0.99964     2.18729    0.00870     3.19563
      C    3   -0.09709      0.99961     2.08602    0.01146     3.09709
      N    4   -0.23155      0.99971     2.71858    0.01327     3.73155
      N    5   -0.12823      0.99968     2.61548    0.01308     3.62823
      C    6    0.02096      0.99962     1.96302    0.01640     2.97904
      C    7   -0.15594      0.99956     2.14405    0.01233     3.15594
      C    8   -0.19141      0.99960     2.18176    0.01005     3.19141
      C    9   -0.10553      0.99959     2.09430    0.01163     3.10553
      C   10   -0.28924      0.99964     2.28249    0.00711     3.28924
      H   11    0.08985      0.00000     0.40889    0.00126     0.41015
      H   12    0.10268      0.00000     0.39567    0.00165     0.39732
      H   13    0.09875      0.00000     0.39993    0.00133     0.40125
      H   14    0.09638      0.00000     0.40219    0.00143     0.40362
      H   15    0.10382      0.00000     0.39435    0.00183     0.39618
      H   16    0.09931      0.00000     0.39822    0.00246     0.40069
      H   17    0.08669      0.00000     0.41165    0.00167     0.41331
      H   18    0.17440      0.00000     0.32154    0.00406     0.32560
      H   19    0.08436      0.00000     0.41429    0.00135     0.41564
      H   20    0.11663      0.00000     0.38095    0.00242     0.38337
      H   21    0.10502      0.00000     0.39344    0.00154     0.39498
      H   22    0.09624      0.00000     0.40269    0.00106     0.40376
      H   23    0.10478      0.00000     0.39212    0.00310     0.39522
      H   24    0.10634      0.00000     0.39238    0.00128     0.39366
      H   25    0.09635      0.00000     0.40280    0.00085     0.40365
      H   26    0.09956      0.00000     0.39955    0.00089     0.40044
 =======================================================================
   * Total *   -0.00000      9.99632    28.86553    0.13814    39.00000

 Normal termination of Gaussian 16 at Tue Dec  8 14:14:43 2020.
