 Gaussian 16, Revision A.03,

 -----------------------------------------------------------
 # opt freq B3LYP/6-31G(d) empiricaldispersion=gd3bj scf=xqc
 -----------------------------------------------------------

 -------------------------------
 CID_139044870_JID_2469_neutraal
 -------------------------------
 Symbolic Z-matrix:
 Charge =  0 Multiplicity = 1

 SCF Done:  E(RB3LYP) =  -1184.67005089     A.U. after   15 cycles
 SCF Done:  E(RB3LYP) =  -1184.67523759     A.U. after   13 cycles
 SCF Done:  E(RB3LYP) =  -1184.67573606     A.U. after   12 cycles
 SCF Done:  E(RB3LYP) =  -1184.67577888     A.U. after   11 cycles
 SCF Done:  E(RB3LYP) =  -1184.67578686     A.U. after   10 cycles
 SCF Done:  E(RB3LYP) =  -1184.67578896     A.U. after    9 cycles
 Optimization completed.
    -- Stationary point found.
 Normal termination of Gaussian 16 at Wed Dec  9 17:21:20 2020.

 --------------------------------------------------------------------
 #N Geom=AllCheck Guess=TCheck SCRF=Check GenChk RB3LYP/6-31G(d) Freq
 --------------------------------------------------------------------

 Structure from the checkpoint file:  "JID_2469.chk"
 -------------------------------
 CID_139044870_JID_2469_neutraal
 -------------------------------
 Charge =  0 Multiplicity = 1

 SCF Done:  E(RB3LYP) =  -1184.67578896     A.U. after    1 cycles

  Exact polarizability: 248.247   6.736 135.206  -3.521  -3.273  78.867
 Approx polarizability: 372.841  19.762 226.885 -13.168  -8.691 131.276

                      1                      2                      3
                      A                      A                      A
 Frequencies --     48.4979                59.0600               114.4915
 Red. masses --      4.6893                 3.3990                 4.2604
 Frc consts  --      0.0065                 0.0070                 0.0329
 IR Inten    --      4.3627                 0.3739                 0.3987

                      4                      5                      6
                      A                      A                      A
 Frequencies --    128.1387               158.0149               246.8734
 Red. masses --      4.4831                 2.9970                 4.8458
 Frc consts  --      0.0434                 0.0441                 0.1740
 IR Inten    --      4.9241                 0.1733                 0.3442

                      7                      8                      9
                      A                      A                      A
 Frequencies --    252.2404               302.3353               327.0494
 Red. masses --      6.2866                 2.7791                 4.1734
 Frc consts  --      0.2357                 0.1497                 0.2630
 IR Inten    --      0.2625                 1.8170                 1.3658

                     10                     11                     12
                      A                      A                      A
 Frequencies --    332.6524               385.2398               426.2155
 Red. masses --      2.2858                 4.8210                 2.7595
 Frc consts  --      0.1490                 0.4215                 0.2954
 IR Inten    --      6.1008                 2.6047                 5.2362

                     13                     14                     15
                      A                      A                      A
 Frequencies --    469.7099               538.3127               543.2052
 Red. masses --      2.3805                 2.7528                 2.7298
 Frc consts  --      0.3094                 0.4700                 0.4746
 IR Inten    --      6.0625                 1.5805                 5.2778

                     16                     17                     18
                      A                      A                      A
 Frequencies --    626.6050               655.6440               672.0163
 Red. masses --      4.9892                 5.0444                 5.8781
 Frc consts  --      1.1542                 1.2776                 1.5640
 IR Inten    --      2.1394                 2.0819                 4.6717

                     19                     20                     21
                      A                      A                      A
 Frequencies --    699.0591               700.0627               826.7297
 Red. masses --      1.5238                 3.0387                 5.5418
 Frc consts  --      0.4387                 0.8774                 2.2317
 IR Inten    --     24.8594                12.0286                12.7696

                     22                     23                     24
                      A                      A                      A
 Frequencies --    841.1899               871.0934               891.7880
 Red. masses --      1.4469                 1.3954                 3.1925
 Frc consts  --      0.6032                 0.6239                 1.4959
 IR Inten    --      7.7284                 2.2410                 3.9505

                     25                     26                     27
                      A                      A                      A
 Frequencies --    900.8291               910.1728               929.4055
 Red. masses --      3.0814                 4.7939                 1.7709
 Frc consts  --      1.4733                 2.3398                 0.9013
 IR Inten    --      3.3917                13.3567                13.6818

                     28                     29                     30
                      A                      A                      A
 Frequencies --    935.5988               938.6469               953.7769
 Red. masses --      1.7353                 1.7334                 1.3217
 Frc consts  --      0.8950                 0.8998                 0.7084
 IR Inten    --      1.3903                18.9733                 0.0066

                     31                     32                     33
                      A                      A                      A
 Frequencies --    982.1420              1035.4256              1046.3237
 Red. masses --      1.8172                 1.6552                 1.7371
 Frc consts  --      1.0328                 1.0455                 1.1205
 IR Inten    --     18.5424                 3.4270                12.2904

                     34                     35                     36
                      A                      A                      A
 Frequencies --   1071.6993              1134.8277              1149.1153
 Red. masses --      2.1653                 1.2291                 1.0448
 Frc consts  --      1.4653                 0.9326                 0.8129
 IR Inten    --      0.0162                 1.0345                 0.0118

                     37                     38                     39
                      A                      A                      A
 Frequencies --   1150.0485              1214.7122              1242.4574
 Red. masses --      1.1202                 1.2115                 2.1509
 Frc consts  --      0.8729                 1.0532                 1.9563
 IR Inten    --      1.0380                 0.1454                14.5056

                     40                     41                     42
                      A                      A                      A
 Frequencies --   1271.8043              1283.4438              1331.4673
 Red. masses --      1.3622                 1.2453                 1.5864
 Frc consts  --      1.2982                 1.2086                 1.6570
 IR Inten    --      0.5067                10.1747                24.6204

                     43                     44                     45
                      A                      A                      A
 Frequencies --   1334.7109              1349.5547              1372.9816
 Red. masses --      1.4355                 1.5112                 1.7288
 Frc consts  --      1.5067                 1.6216                 1.9201
 IR Inten    --     50.7579                 2.0407                 0.8334

                     46                     47                     48
                      A                      A                      A
 Frequencies --   1400.5612              1417.4705              1436.4129
 Red. masses --      1.4373                 2.0834                 1.1598
 Frc consts  --      1.6611                 2.4664                 1.4099
 IR Inten    --      0.3007                 7.6364                 9.7599

                     49                     50                     51
                      A                      A                      A
 Frequencies --   1490.7406              1498.9889              1509.2086
 Red. masses --      1.0872                 1.0833                 1.0994
 Frc consts  --      1.4235                 1.4341                 1.4754
 IR Inten    --      4.2020                 6.9149                 4.5795

                     52                     53                     54
                      A                      A                      A
 Frequencies --   1546.9986              1618.0948              1653.1051
 Red. masses --      5.9750                 5.7786                 5.6435
 Frc consts  --      8.4249                 8.9141                 9.0866
 IR Inten    --      4.4013                12.3219                 0.5262

                     55                     56                     57
                      A                      A                      A
 Frequencies --   3032.7526              3052.7991              3063.4308
 Red. masses --      1.0668                 1.0636                 1.0614
 Frc consts  --      5.7812                 5.8401                 5.8687
 IR Inten    --     37.8292                 2.5325                21.7543

                     58                     59                     60
                      A                      A                      A
 Frequencies --   3066.3065              3081.8495              3098.8070
 Red. masses --      1.0620                 1.0964                 1.0948
 Frc consts  --      5.8830                 6.1354                 6.1938
 IR Inten    --     37.4468                 3.9157                15.4345

                     61                     62                     63
                      A                      A                      A
 Frequencies --   3120.6828              3124.7259              3151.2350
 Red. masses --      1.1048                 1.1053                 1.0870
 Frc consts  --      6.3391                 6.3586                 6.3598
 IR Inten    --      8.9039                21.9741                 6.4831

                     64                     65                     66
                      A                      A                      A
 Frequencies --   3212.0062              3224.4590              3245.5486
 Red. masses --      1.0895                 1.0911                 1.1032
 Frc consts  --      6.6227                 6.6839                 6.8464
 IR Inten    --     15.2707                18.3085                19.6580

 - Thermochemistry -
 -------------------
 Temperature   298.150 Kelvin.  Pressure   1.00000 Atm.
 Atom     1 has atomic number  6 and mass  12.00000

 Molecular mass:   196.03804 amu.
 Principal axes and moments of inertia in atomic units:
                           1         2         3
     Eigenvalues --  1068.116584586.610595404.77671
           X            0.99995   0.00720   0.00692
           Y           -0.00719   0.99997  -0.00198
           Z           -0.00693   0.00193   0.99997
 This molecule is an asymmetric top.
 Rotational symmetry number  1.
 Warning -- assumption of classical behavior for rotation
           may cause significant error
 Rotational temperatures (Kelvin)      0.08109     0.01888     0.01603
 Rotational constants (GHZ):           1.68965     0.39348     0.33392
 Zero-point vibrational energy     512609.1 (Joules/Mol)
                                  122.51652 (Kcal/Mol)
 Warning -- explicit consideration of  15 degrees of freedom as
           vibrations may cause significant error
 Vibrational temperatures:     69.78    84.97   164.73   184.36   227.35
          (Kelvin)            355.20   362.92   434.99   470.55   478.61
                              554.27   613.23   675.81   774.51   781.55
                              901.54   943.33   966.88  1005.79  1007.23
                             1189.48  1210.28  1253.31  1283.08  1296.09
                             1309.54  1337.21  1346.12  1350.50  1372.27
                             1413.08  1489.75  1505.43  1541.94  1632.76
                             1653.32  1654.66  1747.70  1787.62  1829.84
                             1846.59  1915.68  1920.35  1941.71  1975.41
                             2015.10  2039.42  2066.68  2144.84  2156.71
                             2171.41  2225.79  2328.08  2378.45  4363.45
                             4392.30  4407.59  4411.73  4434.09  4458.49
                             4489.97  4495.78  4533.92  4621.36  4639.28
                             4669.62

 Zero-point correction=                           0.195243 (Hartree/Particle)
 Thermal correction to Energy=                    0.206659
 Thermal correction to Enthalpy=                  0.207603
 Thermal correction to Gibbs Free Energy=         0.156963
 Sum of electronic and zero-point Energies=          -1184.480546
 Sum of electronic and thermal Energies=             -1184.469130
 Sum of electronic and thermal Enthalpies=           -1184.468186
 Sum of electronic and thermal Free Energies=        -1184.518826

                     E (Thermal)             CV                S
                      KCal/Mol        Cal/Mol-Kelvin    Cal/Mol-Kelvin
 Total                  129.680             44.095            106.582
 Electronic               0.000              0.000              0.000
 Translational            0.889              2.981             41.724
 Rotational               0.889              2.981             31.649
 Vibrational            127.903             38.134             33.208
 Vibration     1          0.595              1.978              4.878
 Vibration     2          0.596              1.974              4.488
 Vibration     3          0.607              1.937              3.191
 Vibration     4          0.611              1.925              2.974
 Vibration     5          0.621              1.894              2.573
 Vibration     6          0.661              1.768              1.753
 Vibration     7          0.664              1.759              1.715
 Vibration     8          0.694              1.669              1.404
 Vibration     9          0.711              1.621              1.275
 Vibration    10          0.715              1.610              1.247
 Vibration    11          0.754              1.502              1.019
 Vibration    12          0.788              1.413              0.871
 Vibration    13          0.827              1.317              0.738
 Vibration    14          0.893              1.165              0.569
 Vibration    15          0.898              1.155              0.558

 Optimization completed.
    -- Stationary point found.
 Normal termination of Gaussian 16 at Wed Dec  9 17:26:29 2020.

 ----------------------------------------------------------------------
 # B3LYP/6-311++G(d,p) empiricaldispersion=gd3bj scf=xqc pop=npa geom=c
 heck
 ----------------------------------------------------------------------

 ---------------------------------------
 CID_139044870_JID_2469_Energie_neutraal
 ---------------------------------------
 Structure from the checkpoint file:  "JID_2469.chk"
 Charge =  0 Multiplicity = 1

 SCF Done:  E(RB3LYP) =  -1184.83074900     A.U. after   16 cycles
 Normal termination of Gaussian 16 at Wed Dec  9 17:29:21 2020.

 ----------------------------------------------------------------------
 # B3LYP/6-311++G(d,p) empiricaldispersion=gd3bj scf=xqc pop=npa geom=c
 heck
 ----------------------------------------------------------------------

 -------------------------------------
 CID_139044870_JID_2469_Energie_kation
 -------------------------------------
 Structure from the checkpoint file:  "JID_2469.chk"
 Charge =  1 Multiplicity = 2

 SCF Done:  E(UB3LYP) =  -1184.57328879     A.U. after   25 cycles
 Normal termination of Gaussian 16 at Wed Dec  9 17:35:22 2020.
 Gaussian 16:  ES64L-G16RevA.03 25-Dec-2016

 ----------------------------------------------------------------------
 # B3LYP/6-311++G(d,p) empiricaldispersion=gd3bj scf=xqc pop=npa geom=c
 heck
 ----------------------------------------------------------------------

 ------------------------------------
 CID_139044870_JID_2469_Energie_anion
 ------------------------------------
 Structure from the checkpoint file:  "JID_2469.chk"
 Charge = -1 Multiplicity = 2

                         Standard orientation:
 ---------------------------------------------------------------------
 Center     Atomic      Atomic             Coordinates (Angstroms)
 Number     Number       Type             X           Y           Z
 ---------------------------------------------------------------------
      1          6           0        3.417935    0.734919    0.253334
      2          6           0        2.210301    1.628365    0.524701
      3         16           0        0.740464    1.270723   -0.523742
      4          6           0        0.507399   -0.465238   -0.208116
      5          6           0       -0.709328   -1.036055   -0.012590
      6          6           0       -2.026931   -0.458081    0.044234
      7          6           0       -3.158027   -1.186239    0.291532
      8          6           0       -4.324661   -0.318363    0.300008
      9          6           0       -3.934269    0.952546    0.053059
     10          6           0       -2.444130    0.987774   -0.135438
     11         16           0        1.907363   -1.553941   -0.416052
     12          6           0        3.171521   -0.724721    0.628696
     13          1           0        4.259385    1.108985    0.853701
     14          1           0        3.706470    0.805457   -0.801064
     15          1           0        1.912034    1.564626    1.576877
     16          1           0        2.444533    2.674311    0.304938
     17          1           0       -0.698136   -2.118538    0.110776
     18          1           0       -3.183821   -2.258269    0.459243
     19          1           0       -5.339528   -0.657397    0.477567
     20          1           0       -4.568840    1.828907   -0.006033
     21          1           0       -2.165729    1.374169   -1.125574
     22          1           0       -1.945630    1.649824    0.584514
     23          1           0        4.078120   -1.320158    0.484507
     24          1           0        2.877049   -0.809876    1.680724
 ---------------------------------------------------------------------

 SCF Done:  E(UB3LYP) =  -1184.83782586     A.U. after   27 cycles

 The electronic state is 2-A.
 Alpha  occ. eigenvalues --  -88.71292 -88.71189 -10.07922 -10.07812 -10.06542
 Alpha  occ. eigenvalues --  -10.06264 -10.03122 -10.02714 -10.02660 -10.02181
 Alpha  occ. eigenvalues --  -10.01655 -10.01237  -7.79841  -7.79744  -5.76209
 Alpha  occ. eigenvalues --   -5.76116  -5.75890  -5.75786  -5.75240  -5.75141
 Alpha  occ. eigenvalues --   -0.72267  -0.71261  -0.65909  -0.63732  -0.59239
 Alpha  occ. eigenvalues --   -0.56166  -0.53363  -0.51059  -0.47306  -0.41916
 Alpha  occ. eigenvalues --   -0.39485  -0.38588  -0.36318  -0.34015  -0.32473
 Alpha  occ. eigenvalues --   -0.30991  -0.29625  -0.28856  -0.26600  -0.25613
 Alpha  occ. eigenvalues --   -0.25078  -0.24119  -0.23475  -0.22352  -0.21739
 Alpha  occ. eigenvalues --   -0.20369  -0.17557  -0.17113  -0.15638  -0.11509
 Alpha  occ. eigenvalues --   -0.09280  -0.05891   0.04198
 Alpha virt. eigenvalues --    0.07453   0.08897   0.09101   0.09761   0.10447
 Alpha virt. eigenvalues --    0.10644   0.11739   0.12311   0.12614   0.13136
 Alpha virt. eigenvalues --    0.13175   0.13995   0.14838   0.15638   0.16187

  Beta  occ. eigenvalues --  -88.71292 -88.71189 -10.07872 -10.07740 -10.06526
  Beta  occ. eigenvalues --  -10.06023 -10.03156 -10.02805 -10.02480 -10.02126
  Beta  occ. eigenvalues --  -10.01296 -10.00948  -7.79841  -7.79745  -5.76198
  Beta  occ. eigenvalues --   -5.76108  -5.75895  -5.75795  -5.75243  -5.75140
  Beta  occ. eigenvalues --   -0.72016  -0.70997  -0.65595  -0.63615  -0.58844
  Beta  occ. eigenvalues --   -0.55837  -0.53097  -0.50979  -0.47009  -0.41507
  Beta  occ. eigenvalues --   -0.39246  -0.38283  -0.36196  -0.33879  -0.32335
  Beta  occ. eigenvalues --   -0.30912  -0.29126  -0.28670  -0.26430  -0.25499
  Beta  occ. eigenvalues --   -0.24898  -0.23969  -0.23221  -0.22055  -0.21389
  Beta  occ. eigenvalues --   -0.20266  -0.16973  -0.16550  -0.14865  -0.10764
  Beta  occ. eigenvalues --   -0.09263  -0.04387
  Beta virt. eigenvalues --    0.07252   0.08941   0.09201   0.09567   0.09805
  Beta virt. eigenvalues --    0.10451   0.10749   0.11770   0.12365   0.12580
  Beta virt. eigenvalues --    0.13062   0.13228   0.14191   0.15206   0.16009

 Mulliken charges and spin densities:
               1          2
     1  C   -0.385471   0.097543
     2  C    0.216531  -0.428877
     3  S   -0.178712   0.071805
     4  C    0.542676   0.352262
     5  C   -0.652110  -0.087194
     6  C    0.834923   0.106036
     7  C    0.042757   0.263540
     8  C   -0.520729  -0.070785
     9  C   -0.151315   0.319933
    10  C   -0.849647  -0.104555
    11  S   -0.467110  -0.059224
    12  C   -0.016425  -0.397274
    13  H   -0.090445   0.230980
    14  H   -0.004564   0.107526
    15  H    0.055554   0.119868
    16  H   -0.069210   0.210554
    17  H    0.086904  -0.019862
    18  H    0.100406  -0.014763
    19  H    0.090462   0.002549
    20  H    0.126304  -0.013561
    21  H    0.130394   0.017589
    22  H    0.114942   0.027599
    23  H   -0.039070   0.177728
    24  H    0.082956   0.090583
 Sum of Mulliken charges =  -1.00000   1.00000

 Dipole moment (field-independent basis, Debye):
    X=              1.9046    Y=              0.6294    Z=              0.8939  Tot=              2.1961
 Quadrupole moment (field-independent basis, Debye-Ang):
   XX=           -135.4691   YY=           -105.0562   ZZ=           -103.0851
   XY=              0.7606   XZ=              2.3622   YZ=             -0.9702

 Summary of Natural Population Analysis:

                                       Natural Population
                Natural  -----------------------------------------------
    Atom  No    Charge         Core      Valence    Rydberg      Total
 -----------------------------------------------------------------------
      C    1   -0.20456      0.99961     2.19466    0.01029     3.20456
      C    2   -0.24593      0.99959     2.23333    0.01301     3.24593
      S    3    0.10948      4.99949     2.86838    0.02265     7.89052
      C    4   -0.15654      0.99940     2.14529    0.01185     3.15654
      C    5   -0.07431      0.99942     2.06407    0.01082     3.07431
      C    6   -0.02551      0.99950     2.01671    0.00930     3.02551
      C    7   -0.04520      0.99950     2.03659    0.00912     3.04520
      C    8   -0.15038      0.99955     2.14127    0.00956     3.15038
      C    9   -0.01927      0.99957     2.00969    0.01001     3.01927
      C   10   -0.22553      0.99960     2.21973    0.00619     3.22553
      S   11    0.10329      4.99950     2.87535    0.02186     7.89671
      C   12   -0.25059      0.99959     2.23703    0.01398     3.25059
      H   13    0.09520      0.00000     0.40321    0.00158     0.40480
      H   14    0.10074      0.00000     0.39687    0.00239     0.39926
      H   15    0.09640      0.00000     0.40193    0.00166     0.40360
      H   16    0.10193      0.00000     0.39673    0.00135     0.39807
      H   17    0.09544      0.00000     0.40310    0.00146     0.40456
      H   18    0.08752      0.00000     0.41148    0.00100     0.41248
      H   19    0.09039      0.00000     0.40857    0.00105     0.40961
      H   20    0.08413      0.00000     0.41488    0.00100     0.41587
      H   21    0.11591      0.00000     0.38294    0.00115     0.38409
      H   22    0.12030      0.00000     0.37819    0.00151     0.37970
      H   23    0.10101      0.00000     0.39764    0.00135     0.39899
      H   24    0.09607      0.00000     0.40222    0.00171     0.40393
 =======================================================================
   * Total *   -0.00000     19.99431    31.83985    0.16585    52.00000

 Normal termination of Gaussian 16 at Wed Dec  9 17:41:46 2020.
