 Gaussian 16, Revision A.03,

 -----------------------------------------------------------
 # opt freq B3LYP/6-31G(d) empiricaldispersion=gd3bj scf=xqc
 -----------------------------------------------------------

 ------------------------------
 CID_62079782_JID_1429_neutraal
 ------------------------------
 Symbolic Z-matrix:
 Charge =  0 Multiplicity = 1

 SCF Done:  E(RB3LYP) =  -446.038424804     A.U. after   13 cycles
 SCF Done:  E(RB3LYP) =  -446.044759284     A.U. after   11 cycles
 SCF Done:  E(RB3LYP) =  -446.045080696     A.U. after   10 cycles
 SCF Done:  E(RB3LYP) =  -446.045147104     A.U. after   10 cycles
 SCF Done:  E(RB3LYP) =  -446.045160332     A.U. after    9 cycles
 SCF Done:  E(RB3LYP) =  -446.045171585     A.U. after    9 cycles
 SCF Done:  E(RB3LYP) =  -446.045181621     A.U. after    9 cycles
 SCF Done:  E(RB3LYP) =  -446.045183897     A.U. after    9 cycles
 SCF Done:  E(RB3LYP) =  -446.045184834     A.U. after    7 cycles
 SCF Done:  E(RB3LYP) =  -446.045184988     A.U. after    7 cycles
 Optimization completed.
    -- Stationary point found.
 Normal termination of Gaussian 16 at Tue Dec  8 19:59:18 2020.

 --------------------------------------------------------------------
 #N Geom=AllCheck Guess=TCheck SCRF=Check GenChk RB3LYP/6-31G(d) Freq
 --------------------------------------------------------------------

 Structure from the checkpoint file:  "JID_1429.chk"
 ------------------------------
 CID_62079782_JID_1429_neutraal
 ------------------------------
 Charge =  0 Multiplicity = 1

 SCF Done:  E(RB3LYP) =  -446.045184988     A.U. after    1 cycles

  Exact polarizability: 116.266  -4.933  96.806   5.335   1.518 103.074
 Approx polarizability: 145.817  -7.081 137.440  13.251   2.237 164.559

                      1                      2                      3
                      A                      A                      A
 Frequencies --     48.4597                71.5834                88.5572
 Red. masses --      2.8106                 2.6362                 2.7418
 Frc consts  --      0.0039                 0.0080                 0.0127
 IR Inten    --      0.2970                 0.8061                 0.0946

                      4                      5                      6
                      A                      A                      A
 Frequencies --    135.4047               165.4663               191.0181
 Red. masses --      1.9623                 2.0528                 3.0510
 Frc consts  --      0.0212                 0.0331                 0.0656
 IR Inten    --      0.6598                 0.5641                 1.2381

                      7                      8                      9
                      A                      A                      A
 Frequencies --    230.4193               253.7286               272.4935
 Red. masses --      1.8950                 1.3911                 2.5691
 Frc consts  --      0.0593                 0.0528                 0.1124
 IR Inten    --     10.9866                34.9553                 5.5148

                     10                     11                     12
                      A                      A                      A
 Frequencies --    344.8011               418.7924               474.9937
 Red. masses --      3.4315                 2.7515                 2.7481
 Frc consts  --      0.2404                 0.2843                 0.3653
 IR Inten    --      5.7303                 1.5592                 2.5920

                     13                     14                     15
                      A                      A                      A
 Frequencies --    549.4084               628.1397               667.7976
 Red. masses --      2.4999                 2.0347                 2.2199
 Frc consts  --      0.4446                 0.4730                 0.5833
 IR Inten    --      2.7241                 4.7326                 7.1603

                     16                     17                     18
                      A                      A                      A
 Frequencies --    701.0367               767.6248               802.8318
 Red. masses --      2.6259                 1.6640                 1.2162
 Frc consts  --      0.7603                 0.5777                 0.4619
 IR Inten    --      1.9820                 3.5807                 1.6318

                     19                     20                     21
                      A                      A                      A
 Frequencies --    825.6483               847.7692               885.0606
 Red. masses --      1.9974                 1.3199                 3.0360
 Frc consts  --      0.8022                 0.5589                 1.4012
 IR Inten    --      8.5169                16.8512                 0.5321

                     22                     23                     24
                      A                      A                      A
 Frequencies --    906.5209               917.1467               924.6048
 Red. masses --      2.0326                 1.7179                 2.3217
 Frc consts  --      0.9841                 0.8514                 1.1694
 IR Inten    --     21.9503                11.3021                11.4245

                     25                     26                     27
                      A                      A                      A
 Frequencies --    938.6097               942.7135               963.2351
 Red. masses --      1.7631                 2.3569                 1.7719
 Frc consts  --      0.9152                 1.2341                 0.9686
 IR Inten    --    111.8413                 3.0210                 0.2705

                     28                     29                     30
                      A                      A                      A
 Frequencies --    975.4200               987.1383              1036.5081
 Red. masses --      1.9244                 1.9112                 2.2845
 Frc consts  --      1.0787                 1.0972                 1.4461
 IR Inten    --      7.3450                18.7820                 0.5982

                     31                     32                     33
                      A                      A                      A
 Frequencies --   1048.3962              1077.2802              1081.7646
 Red. masses --      2.0052                 1.7128                 1.8111
 Frc consts  --      1.2986                 1.1711                 1.2487
 IR Inten    --      3.5574                 0.9353                10.3935

                     34                     35                     36
                      A                      A                      A
 Frequencies --   1101.8396              1141.9907              1166.5204
 Red. masses --      2.1023                 2.5145                 1.2377
 Frc consts  --      1.5037                 1.9321                 0.9923
 IR Inten    --      9.3129                 5.9426                 1.1476

                     37                     38                     39
                      A                      A                      A
 Frequencies --   1189.3402              1205.4697              1213.3639
 Red. masses --      1.7550                 1.2448                 1.4627
 Frc consts  --      1.4627                 1.0658                 1.2687
 IR Inten    --      2.9475                 1.3637                 1.9336

                     40                     41                     42
                      A                      A                      A
 Frequencies --   1241.8049              1253.5858              1258.3585
 Red. masses --      1.2633                 1.5242                 1.3698
 Frc consts  --      1.1478                 1.4112                 1.2780
 IR Inten    --      0.2222                 0.0981                 3.1150

                     43                     44                     45
                      A                      A                      A
 Frequencies --   1272.3086              1280.8002              1290.2061
 Red. masses --      1.3619                 1.1559                 1.4540
 Frc consts  --      1.2989                 1.1172                 1.4260
 IR Inten    --      0.3018                 1.7758                 4.4199

                     46                     47                     48
                      A                      A                      A
 Frequencies --   1302.7743              1310.7418              1336.6686
 Red. masses --      1.3953                 1.3829                 1.3589
 Frc consts  --      1.3952                 1.3998                 1.4304
 IR Inten    --      0.6181                 0.2970                 4.2236

                     49                     50                     51
                      A                      A                      A
 Frequencies --   1345.7344              1349.7288              1377.1070
 Red. masses --      1.5072                 1.5025                 1.6464
 Frc consts  --      1.6082                 1.6127                 1.8396
 IR Inten    --      1.8532                 0.7275                 4.6648

                     52                     53                     54
                      A                      A                      A
 Frequencies --   1386.9752              1461.8917              1506.7697
 Red. masses --      1.2724                 1.5465                 1.0912
 Frc consts  --      1.4421                 1.9473                 1.4596
 IR Inten    --     13.8101                 9.1179                 0.4376

                     55                     56                     57
                      A                      A                      A
 Frequencies --   1513.4791              1515.4460              1520.7548
 Red. masses --      1.0858                 1.0839                 1.0854
 Frc consts  --      1.4653                 1.4666                 1.4790
 IR Inten    --      0.3995                 1.5052                 0.7221

                     58                     59                     60
                      A                      A                      A
 Frequencies --   1539.0154              1541.4428              1695.0915
 Red. masses --      1.1102                 1.1387                 1.0954
 Frc consts  --      1.5493                 1.5941                 1.8544
 IR Inten    --      1.0552                 1.3148                28.1479

                     61                     62                     63
                      A                      A                      A
 Frequencies --   1726.1688              3012.1311              3017.1063
 Red. masses --      6.3238                 1.0710                 1.0823
 Frc consts  --     11.1018                 5.7249                 5.8048
 IR Inten    --      0.3054                48.1750                18.5881

                     64                     65                     66
                      A                      A                      A
 Frequencies --   3022.9916              3031.0384              3055.9344
 Red. masses --      1.0678                 1.0854                 1.0858
 Frc consts  --      5.7492                 5.8752                 5.9743
 IR Inten    --     30.5562                64.1548                 9.4772

                     67                     68                     69
                      A                      A                      A
 Frequencies --   3063.4943              3066.4372              3069.9259
 Red. masses --      1.0910                 1.0563                 1.0590
 Frc consts  --      6.0324                 5.8521                 5.8804
 IR Inten    --     37.7809                37.2392                56.7654

                     70                     71                     72
                      A                      A                      A
 Frequencies --   3075.8693              3079.8155              3109.5937
 Red. masses --      1.0715                 1.0604                 1.1084
 Frc consts  --      5.9727                 5.9263                 6.3145
 IR Inten    --     67.6429                29.0587                13.2276

                     73                     74                     75
                      A                      A                      A
 Frequencies --   3114.6446              3122.3488              3136.8334
 Red. masses --      1.1051                 1.1087                 1.1066
 Frc consts  --      6.3164                 6.3683                 6.4152
 IR Inten    --     43.3269                21.7100                69.2450

                     76                     77                     78
                      A                      A                      A
 Frequencies --   3195.1341              3444.8348              3530.3093
 Red. masses --      1.0928                 1.0497                 1.0910
 Frc consts  --      6.5729                 7.3390                 8.0112
 IR Inten    --     19.1338                 4.2698                 1.8994

 - Thermochemistry -
 -------------------
 Temperature   298.150 Kelvin.  Pressure   1.00000 Atm.
 Atom     1 has atomic number  6 and mass  12.00000

 Molecular mass:   151.13610 amu.
 Principal axes and moments of inertia in atomic units:
                           1         2         3
     Eigenvalues --  1069.383592399.839942708.75232
           X            0.99996  -0.00863  -0.00244
           Y            0.00868   0.99976   0.02027
           Z            0.00227  -0.02029   0.99979
 This molecule is an asymmetric top.
 Rotational symmetry number  1.
 Warning -- assumption of classical behavior for rotation
           may cause significant error
 Rotational temperatures (Kelvin)      0.08099     0.03609     0.03198
 Rotational constants (GHZ):           1.68765     0.75203     0.66626
 Zero-point vibrational energy     672087.1 (Joules/Mol)
                                  160.63268 (Kcal/Mol)
 Warning -- explicit consideration of  13 degrees of freedom as
           vibrations may cause significant error
 Vibrational temperatures:     69.72   102.99   127.41   194.82   238.07
          (Kelvin)            274.83   331.52   365.06   392.06   496.09
                              602.55   683.41   790.48   903.75   960.81
                             1008.64  1104.44  1155.10  1187.92  1219.75
                             1273.40  1304.28  1319.57  1330.30  1350.45
                             1356.35  1385.88  1403.41  1420.27  1491.30
                             1508.41  1549.97  1556.42  1585.30  1643.07
                             1678.36  1711.20  1734.40  1745.76  1786.68
                             1803.63  1810.50  1830.57  1842.79  1856.32
                             1874.40  1885.87  1923.17  1936.21  1941.96
                             1981.35  1995.55  2103.34  2167.91  2177.56
                             2180.39  2188.03  2214.30  2217.79  2438.86
                             2483.57  4333.78  4340.94  4349.41  4360.99
                             4396.81  4407.69  4411.92  4416.94  4425.49
                             4431.17  4474.01  4481.28  4492.36  4513.20
                             4597.09  4956.35  5079.33

 Zero-point correction=                           0.255984 (Hartree/Particle)
 Thermal correction to Energy=                    0.267128
 Thermal correction to Enthalpy=                  0.268072
 Thermal correction to Gibbs Free Energy=         0.218661
 Sum of electronic and zero-point Energies=           -445.789201
 Sum of electronic and thermal Energies=              -445.778057
 Sum of electronic and thermal Enthalpies=            -445.777113
 Sum of electronic and thermal Free Energies=         -445.826524

                     E (Thermal)             CV                S
                      KCal/Mol        Cal/Mol-Kelvin    Cal/Mol-Kelvin
 Total                  167.625             42.640            103.995
 Electronic               0.000              0.000              0.000
 Translational            0.889              2.981             40.949
 Rotational               0.889              2.981             30.320
 Vibrational            165.848             36.679             32.726
 Vibration     1          0.595              1.978              4.879
 Vibration     2          0.598              1.968              4.109
 Vibration     3          0.601              1.957              3.692
 Vibration     4          0.613              1.918              2.868
 Vibration     5          0.624              1.885              2.486
 Vibration     6          0.634              1.852              2.218
 Vibration     7          0.652              1.795              1.876
 Vibration     8          0.665              1.756              1.705
 Vibration     9          0.675              1.724              1.580
 Vibration    10          0.723              1.586              1.190
 Vibration    11          0.782              1.429              0.896
 Vibration    12          0.832              1.306              0.724
 Vibration    13          0.905              1.141              0.545

                           ! Non-Optimized Parameters !
 Normal termination of Gaussian 16 at Tue Dec  8 20:06:09 2020.

 ----------------------------------------------------------------------
 # B3LYP/6-311++G(d,p) empiricaldispersion=gd3bj scf=xqc pop=npa geom=c
 heck
 ----------------------------------------------------------------------

 --------------------------------------
 CID_62079782_JID_1429_Energie_neutraal
 --------------------------------------
 Structure from the checkpoint file:  "JID_1429.chk"
 Charge =  0 Multiplicity = 1

 SCF Done:  E(RB3LYP) =  -446.171719652     A.U. after   14 cycles
 Normal termination of Gaussian 16 at Tue Dec  8 20:09:13 2020.

 ----------------------------------------------------------------------
 # B3LYP/6-311++G(d,p) empiricaldispersion=gd3bj scf=xqc pop=npa geom=c
 heck
 ----------------------------------------------------------------------

 ------------------------------------
 CID_62079782_JID_1429_Energie_kation
 ------------------------------------
 Structure from the checkpoint file:  "JID_1429.chk"
 Charge =  1 Multiplicity = 2

 SCF Done:  E(UB3LYP) =  -445.868327911     A.U. after   22 cycles
 Normal termination of Gaussian 16 at Tue Dec  8 20:16:17 2020.
 Gaussian 16:  ES64L-G16RevA.03 25-Dec-2016

 ----------------------------------------------------------------------
 # B3LYP/6-311++G(d,p) empiricaldispersion=gd3bj scf=xqc pop=npa geom=c
 heck
 ----------------------------------------------------------------------

 -----------------------------------
 CID_62079782_JID_1429_Energie_anion
 -----------------------------------
 Structure from the checkpoint file:  "JID_1429.chk"
 Charge = -1 Multiplicity = 2

                         Standard orientation:
 ---------------------------------------------------------------------
 Center     Atomic      Atomic             Coordinates (Angstroms)
 Number     Number       Type             X           Y           Z
 ---------------------------------------------------------------------
      1          6           0        2.982654   -0.725891   -0.353182
      2          6           0        2.607765   -0.474427    1.129390
      3          6           0        1.365537    0.378131    1.022055
      4          6           0        0.845581    0.384021   -0.211508
      5          6           0        1.682338   -0.465359   -1.151389
      6          6           0       -0.406571    1.083469   -0.682247
      7          6           0       -1.686496    0.249631   -0.456178
      8          6           0       -1.759455   -1.274207   -0.754867
      9          6           0       -2.687200   -1.421972    0.478197
     10          6           0       -2.143424   -0.064208    0.994393
     11          7           0       -0.511097    2.425971   -0.078161
     12          1           0        3.394529   -1.724937   -0.524804
     13          1           0        3.744876   -0.001148   -0.659181
     14          1           0        2.390454   -1.414320    1.659949
     15          1           0        3.415613    0.014158    1.688088
     16          1           0        0.954690    0.906140    1.878202
     17          1           0        1.869954    0.044189   -2.105314
     18          1           0        1.164008   -1.401938   -1.404269
     19          1           0       -0.304485    1.240689   -1.765197
     20          1           0       -2.507113    0.754766   -0.985315
     21          1           0       -2.137833   -1.588449   -1.732688
     22          1           0       -0.797040   -1.760662   -0.573913
     23          1           0       -2.547876   -2.300063    1.116091
     24          1           0       -3.744404   -1.354578    0.200817
     25          1           0       -1.280711   -0.211715    1.652742
     26          1           0       -2.846082    0.624900    1.473532
     27          1           0       -1.383607    2.853584   -0.391192
     28          1           0       -0.611660    2.322454    0.931592
 ---------------------------------------------------------------------

 SCF Done:  E(UB3LYP) =  -446.154494944     A.U. after   33 cycles
 SCF Done:  E(UB3LYP) =  -446.154494944     a.u. after    1 cycles

 The electronic state is 2-A.
 Alpha  occ. eigenvalues --  -14.18370 -10.09294 -10.06662 -10.06554 -10.06533
 Alpha  occ. eigenvalues --  -10.06447 -10.06349 -10.05914 -10.05738 -10.05666
 Alpha  occ. eigenvalues --  -10.05394  -0.78637  -0.73569  -0.73167  -0.62591
 Alpha  occ. eigenvalues --   -0.60446  -0.57235  -0.54946  -0.50853  -0.47557
 Alpha  occ. eigenvalues --   -0.44454  -0.41227  -0.39437  -0.37671  -0.36802
 Alpha  occ. eigenvalues --   -0.35836  -0.34579  -0.31396  -0.29971  -0.28987
 Alpha  occ. eigenvalues --   -0.27781  -0.25929  -0.24612  -0.24463  -0.24223
 Alpha  occ. eigenvalues --   -0.23978  -0.23145  -0.21734  -0.20032  -0.19540
 Alpha  occ. eigenvalues --   -0.13446  -0.13083   0.04802
 Alpha virt. eigenvalues --    0.06762   0.07615   0.07755   0.09096   0.09175
 Alpha virt. eigenvalues --    0.09434   0.10002   0.10804   0.11293   0.12012
 Alpha virt. eigenvalues --    0.12079   0.12258   0.12634   0.13424   0.14818

  Beta  occ. eigenvalues --  -14.18342 -10.09285 -10.06643 -10.06541 -10.06517
  Beta  occ. eigenvalues --  -10.06447 -10.06332 -10.05895 -10.05723 -10.05652
  Beta  occ. eigenvalues --  -10.05369  -0.78595  -0.73543  -0.73132  -0.62551
  Beta  occ. eigenvalues --   -0.60410  -0.57190  -0.54889  -0.50801  -0.47504
  Beta  occ. eigenvalues --   -0.44391  -0.41187  -0.39389  -0.37646  -0.36741
  Beta  occ. eigenvalues --   -0.35807  -0.34522  -0.31357  -0.29946  -0.28942
  Beta  occ. eigenvalues --   -0.27753  -0.25904  -0.24578  -0.24435  -0.24190
  Beta  occ. eigenvalues --   -0.23951  -0.23115  -0.21693  -0.19989  -0.19499
  Beta  occ. eigenvalues --   -0.13419  -0.13062
  Beta virt. eigenvalues --    0.06937   0.07853   0.08223   0.08296   0.09565
  Beta virt. eigenvalues --    0.09695   0.09878   0.10491   0.11190   0.11458
  Beta virt. eigenvalues --    0.12319   0.12639   0.12653   0.13107   0.13740

 Mulliken charges and spin densities:
               1          2
     1  C    0.548241  -0.920819
     2  C    0.302415  -1.033788
     3  C   -0.704576   0.829577
     4  C    2.257725  -1.522003
     5  C   -0.143194  -0.651596
     6  C   -2.282322   1.940450
     7  C   -0.069716   0.351777
     8  C    0.619123  -1.021289
     9  C   -0.028662  -0.372154
    10  C    0.696656  -1.189488
    11  N   -0.192048  -0.120280
    12  H   -0.098400   0.252394
    13  H    0.026001   0.121991
    14  H   -0.116953   0.257575
    15  H   -0.114616   0.246404
    16  H   -0.329611   0.500067
    17  H   -0.095813   0.239059
    18  H   -0.078099   0.205162
    19  H   -0.166985   0.395503
    20  H   -0.572581   0.798774
    21  H   -0.299493   0.454541
    22  H    0.356975  -0.282568
    23  H   -0.237070   0.375858
    24  H   -0.050847   0.181340
    25  H    0.253724  -0.123525
    26  H   -0.432487   0.590215
    27  H   -0.212719   0.448851
    28  H    0.165334   0.047968
 Sum of Mulliken charges =  -1.00000   1.00000

 Dipole moment (field-independent basis, Debye):
    X=              3.0133    Y=             -1.9325    Z=              0.3355  Tot=              3.5954
 Quadrupole moment (field-independent basis, Debye-Ang):
   XX=           -132.2416   YY=           -112.8531   ZZ=           -103.9428
   XY=              5.4029   XZ=             -2.6245   YZ=              0.6495

 Summary of Natural Population Analysis:

                                       Natural Population
                Natural  -----------------------------------------------
    Atom  No    Charge         Core      Valence    Rydberg      Total
 -----------------------------------------------------------------------
      C    1   -0.18452      0.99965     2.17794    0.00693     3.18452
      C    2   -0.20196      0.99964     2.19423    0.00810     3.20196
      C    3   -0.09804      0.99943     2.08979    0.00881     3.09804
      C    4   -0.00005      0.99947     1.98782    0.01276     3.00005
      C    5   -0.19949      0.99959     2.19205    0.00784     3.19949
      C    6   -0.02645      0.99951     2.01272    0.01422     3.02645
      C    7   -0.10663      0.99959     2.09339    0.01366     3.10663
      C    8   -0.18755      0.99962     2.17944    0.00849     3.18755
      C    9   -0.18546      0.99965     2.17873    0.00708     3.18546
      C   10   -0.19265      0.99962     2.18387    0.00916     3.19265
      N   11   -0.41307      0.99978     2.90348    0.00981     3.91307
      H   12    0.09733      0.00000     0.40129    0.00138     0.40267
      H   13    0.09480      0.00000     0.40381    0.00140     0.40520
      H   14    0.09712      0.00000     0.40145    0.00144     0.40288
      H   15    0.09734      0.00000     0.40138    0.00128     0.40266
      H   16    0.09797      0.00000     0.40086    0.00117     0.40203
      H   17    0.09953      0.00000     0.39908    0.00139     0.40047
      H   18    0.09862      0.00000     0.39988    0.00150     0.40138
      H   19    0.09348      0.00000     0.40440    0.00211     0.40652
      H   20    0.09836      0.00000     0.39823    0.00342     0.40164
      H   21    0.09591      0.00000     0.40289    0.00120     0.40409
      H   22    0.09608      0.00000     0.40192    0.00200     0.40392
      H   23    0.09241      0.00000     0.40649    0.00109     0.40759
      H   24    0.09522      0.00000     0.40306    0.00172     0.40478
      H   25    0.09763      0.00000     0.40026    0.00211     0.40237
      H   26    0.09831      0.00000     0.39955    0.00214     0.40169
      H   27    0.17470      0.00000     0.32297    0.00233     0.32530
      H   28    0.17104      0.00000     0.32664    0.00231     0.32896
 =======================================================================
   * Total *    0.00000     10.99554    30.86761    0.13685    42.00000

 Normal termination of Gaussian 16 at Tue Dec  8 20:27:01 2020.
