 Gaussian 16, Revision A.03,

 -----------------------------------------------------------
 # opt freq B3LYP/6-31G(d) empiricaldispersion=gd3bj scf=xqc
 -----------------------------------------------------------

 ------------------------------
 CID_64160337_JID_6824_neutraal
 ------------------------------
 Symbolic Z-matrix:
 Charge =  0 Multiplicity = 1

 SCF Done:  E(RB3LYP) =  -741.643100033     A.U. after   15 cycles
 SCF Done:  E(RB3LYP) =  -741.648191776     A.U. after   12 cycles
 SCF Done:  E(RB3LYP) =  -741.648862581     A.U. after   11 cycles
 SCF Done:  E(RB3LYP) =  -741.648806382     A.U. after   12 cycles
 SCF Done:  E(RB3LYP) =  -741.649187899     A.U. after   11 cycles
 SCF Done:  E(RB3LYP) =  -741.649244966     A.U. after   10 cycles
 SCF Done:  E(RB3LYP) =  -741.649270387     A.U. after   11 cycles
 SCF Done:  E(RB3LYP) =  -741.649288526     A.U. after   11 cycles
 SCF Done:  E(RB3LYP) =  -741.649341722     A.U. after   12 cycles
 SCF Done:  E(RB3LYP) =  -741.649390093     A.U. after   12 cycles
 SCF Done:  E(RB3LYP) =  -741.649566184     A.U. after   12 cycles
 SCF Done:  E(RB3LYP) =  -741.649567796     A.U. after    9 cycles
 SCF Done:  E(RB3LYP) =  -741.649568032     A.U. after   10 cycles
 SCF Done:  E(RB3LYP) =  -741.649568212     A.U. after    8 cycles
 SCF Done:  E(RB3LYP) =  -741.649568234     A.U. after    8 cycles
 Optimization completed.
    -- Stationary point found.
 Normal termination of Gaussian 16 at Fri Dec 11 00:49:28 2020.

 --------------------------------------------------------------------
 #N Geom=AllCheck Guess=TCheck SCRF=Check GenChk RB3LYP/6-31G(d) Freq
 --------------------------------------------------------------------

 Structure from the checkpoint file:  "JID_6824.chk"
 ------------------------------
 CID_64160337_JID_6824_neutraal
 ------------------------------
 Charge =  0 Multiplicity = 1

 SCF Done:  E(RB3LYP) =  -741.649568234     A.U. after    1 cycles

  Exact polarizability: 170.968  -8.866 143.131  -2.277   2.697  80.505
 Approx polarizability: 225.293 -13.606 247.043  -3.777  12.956 125.221

                      1                      2                      3
                      A                      A                      A
 Frequencies --     16.4983                41.6418                57.5494
 Red. masses --      4.9069                 4.6363                 3.6815
 Frc consts  --      0.0008                 0.0047                 0.0072
 IR Inten    --      0.1934                 0.1173                 0.5225

                      4                      5                      6
                      A                      A                      A
 Frequencies --     74.5925                88.0060               107.5692
 Red. masses --      3.4848                 3.9534                 5.7498
 Frc consts  --      0.0114                 0.0180                 0.0392
 IR Inten    --      0.8626                 0.1862                 0.4507

                      7                      8                      9
                      A                      A                      A
 Frequencies --    154.8132               163.1689               255.0748
 Red. masses --      4.8949                 4.3137                 2.8350
 Frc consts  --      0.0691                 0.0677                 0.1087
 IR Inten    --      0.7073                 2.3725                 2.9116

                     10                     11                     12
                      A                      A                      A
 Frequencies --    276.8177               307.8187               375.5703
 Red. masses --      4.1621                 2.7055                 6.4253
 Frc consts  --      0.1879                 0.1510                 0.5340
 IR Inten    --      1.0719                 2.7593                 0.4377

                     13                     14                     15
                      A                      A                      A
 Frequencies --    381.8829               404.0817               447.0658
 Red. masses --      3.3102                 2.9317                 3.1943
 Frc consts  --      0.2844                 0.2820                 0.3762
 IR Inten    --      2.5433                 1.5532                 2.0038

                     16                     17                     18
                      A                      A                      A
 Frequencies --    492.5323               534.0154               618.6384
 Red. masses --      5.6886                 2.2710                 3.8995
 Frc consts  --      0.8131                 0.3816                 0.8793
 IR Inten    --      0.4709                 1.2230                12.9768

                     19                     20                     21
                      A                      A                      A
 Frequencies --    636.4135               661.2458               722.3473
 Red. masses --      3.6569                 3.8680                 3.0735
 Frc consts  --      0.8727                 0.9965                 0.9449
 IR Inten    --      0.4579                 1.6368                 1.7212

                     22                     23                     24
                      A                      A                      A
 Frequencies --    737.3718               740.9972               774.1329
 Red. masses --      1.4476                 2.1239                 2.2301
 Frc consts  --      0.4637                 0.6871                 0.7874
 IR Inten    --      4.4596                83.7420                18.4721

                     25                     26                     27
                      A                      A                      A
 Frequencies --    789.6940               810.6764               813.5333
 Red. masses --      1.3473                 1.5395                 1.6228
 Frc consts  --      0.4950                 0.5961                 0.6328
 IR Inten    --     60.2540                16.6404                 2.5370

                     28                     29                     30
                      A                      A                      A
 Frequencies --    843.5036               862.3741               875.3041
 Red. masses --      1.6511                 1.3569                 2.3618
 Frc consts  --      0.6922                 0.5945                 1.0661
 IR Inten    --     26.1775                 4.1126                13.2747

                     31                     32                     33
                      A                      A                      A
 Frequencies --    894.9303               916.0848               939.3137
 Red. masses --      5.6957                 8.6135                 3.1957
 Frc consts  --      2.6877                 4.2590                 1.6613
 IR Inten    --     34.3373                33.5102                36.1898

                     34                     35                     36
                      A                      A                      A
 Frequencies --    944.8555               956.1981               986.4411
 Red. masses --      5.8870                 2.8436                 1.9550
 Frc consts  --      3.0965                 1.5318                 1.1208
 IR Inten    --      9.2896                 7.4982                13.7857

                     37                     38                     39
                      A                      A                      A
 Frequencies --   1023.2278              1046.2764              1059.9213
 Red. masses --      3.5558                 2.8072                 1.5770
 Frc consts  --      2.1935                 1.8105                 1.0439
 IR Inten    --      6.6838                 4.1494                11.1297

                     40                     41                     42
                      A                      A                      A
 Frequencies --   1062.5287              1071.6203              1085.2628
 Red. masses --      2.3517                 2.4972                 1.4177
 Frc consts  --      1.5643                 1.6896                 0.9838
 IR Inten    --     17.1917                 4.4260                 5.2542

                     43                     44                     45
                      A                      A                      A
 Frequencies --   1113.9502              1135.2446              1139.1589
 Red. masses --      1.7521                 2.4793                 1.2663
 Frc consts  --      1.2809                 1.8826                 0.9682
 IR Inten    --     18.7802                 3.0099                12.2112

                     46                     47                     48
                      A                      A                      A
 Frequencies --   1185.8248              1191.8333              1211.7238
 Red. masses --      1.7197                 2.8660                 1.4367
 Frc consts  --      1.4247                 2.3986                 1.2429
 IR Inten    --      2.1879                 0.5798                 7.8942

                     49                     50                     51
                      A                      A                      A
 Frequencies --   1218.7906              1219.5287              1251.6384
 Red. masses --      3.1368                 2.1905                 1.9392
 Frc consts  --      2.7454                 1.9194                 1.7899
 IR Inten    --    102.1395                52.6487                20.0564

                     52                     53                     54
                      A                      A                      A
 Frequencies --   1261.9715              1305.4779              1327.0304
 Red. masses --      1.2845                 1.7230                 1.6743
 Frc consts  --      1.2053                 1.7301                 1.7372
 IR Inten    --      2.5071                 3.4009                44.4532

                     55                     56                     57
                      A                      A                      A
 Frequencies --   1373.3337              1386.8090              1399.2805
 Red. masses --      2.0200                 1.7153                 1.4343
 Frc consts  --      2.2447                 1.9437                 1.6546
 IR Inten    --     29.8927                55.8406                16.1638

                     58                     59                     60
                      A                      A                      A
 Frequencies --   1422.4539              1456.9556              1487.2330
 Red. masses --      1.4557                 5.6771                 1.0918
 Frc consts  --      1.7354                 7.1001                 1.4228
 IR Inten    --      8.0372                52.5683                 0.3350

                     61                     62                     63
                      A                      A                      A
 Frequencies --   1501.7689              1509.8700              1520.3958
 Red. masses --      1.1896                 1.1415                 3.5744
 Frc consts  --      1.5807                 1.5332                 4.8681
 IR Inten    --      7.2288                 1.1479                 6.4527

                     64                     65                     66
                      A                      A                      A
 Frequencies --   1526.9199              1557.2493              1573.1722
 Red. masses --      1.2765                 1.3449                 5.2944
 Frc consts  --      1.7535                 1.9215                 7.7201
 IR Inten    --      4.3793                30.5325                42.0471

                     67                     68                     69
                      A                      A                      A
 Frequencies --   1619.1940              1673.7834              3054.3918
 Red. masses --      9.8060                 7.7218                 1.0597
 Frc consts  --     15.1475                12.7458                 5.8248
 IR Inten    --     76.2064                79.8583                48.5568

                     70                     71                     72
                      A                      A                      A
 Frequencies --   3077.5175              3099.1002              3126.2219
 Red. masses --      1.0631                 1.1026                 1.1041
 Frc consts  --      5.9321                 6.2391                 6.3576
 IR Inten    --      5.4831                28.2357                10.8517

                     73                     74                     75
                      A                      A                      A
 Frequencies --   3140.4421              3141.4568              3146.0315
 Red. masses --      1.0523                 1.0717                 1.0753
 Frc consts  --      6.1148                 6.2317                 6.2707
 IR Inten    --     19.7700                19.0636                18.9979

                     76                     77                     78
                      A                      A                      A
 Frequencies --   3218.3012              3235.7919              3286.1670
 Red. masses --      1.1180                 1.1154                 1.0914
 Frc consts  --      6.8228                 6.8811                 6.9441
 IR Inten    --      7.3336                18.5571                 0.5311

                     79                     80                     81
                      A                      A                      A
 Frequencies --   3310.9661              3315.6944              3505.7341
 Red. masses --      1.1015                 1.1031                 1.0734
 Frc consts  --      7.1148                 7.1454                 7.7730
 IR Inten    --      0.5072                 0.7645                 8.7872

 - Thermochemistry -
 -------------------
 Temperature   298.150 Kelvin.  Pressure   1.00000 Atm.
 Atom     1 has atomic number  6 and mass  12.00000

 Molecular mass:   219.10078 amu.
 Principal axes and moments of inertia in atomic units:
                           1         2         3
     Eigenvalues --  2104.441435761.338297364.92660
           X            0.99996   0.00861  -0.00276
           Y           -0.00865   0.99989  -0.01230
           Z            0.00265   0.01232   0.99992
 This molecule is an asymmetric top.
 Rotational symmetry number  1.
 Warning -- assumption of classical behavior for rotation
           may cause significant error
 Rotational temperatures (Kelvin)      0.04116     0.01503     0.01176
 Rotational constants (GHZ):           0.85759     0.31325     0.24505
 Zero-point vibrational energy     617751.6 (Joules/Mol)
                                  147.64617 (Kcal/Mol)
 Warning -- explicit consideration of  18 degrees of freedom as
           vibrations may cause significant error
 Vibrational temperatures:     23.74    59.91    82.80   107.32   126.62
          (Kelvin)            154.77   222.74   234.76   367.00   398.28
                              442.88   540.36   549.44   581.38   643.23
                              708.64   768.33   890.08   915.66   951.39
                             1039.30  1060.91  1066.13  1113.80  1136.19
                             1166.38  1170.49  1213.61  1240.76  1259.37
                             1287.61  1318.04  1351.46  1359.44  1375.76
                             1419.27  1472.20  1505.36  1524.99  1528.74
                             1541.82  1561.45  1602.73  1633.36  1639.00
                             1706.14  1714.78  1743.40  1753.57  1754.63
                             1800.83  1815.70  1878.29  1909.30  1975.92
                             1995.31  2013.25  2046.59  2096.23  2139.80
                             2160.71  2172.37  2187.51  2196.90  2240.53
                             2263.44  2329.66  2408.20  4394.59  4427.86
                             4458.91  4497.94  4518.40  4519.86  4526.44
                             4630.42  4655.58  4728.06  4763.74  4770.54
                             5043.97

 Zero-point correction=                           0.235289 (Hartree/Particle)
 Thermal correction to Energy=                    0.249173
 Thermal correction to Enthalpy=                  0.250118
 Thermal correction to Gibbs Free Energy=         0.191836
 Sum of electronic and zero-point Energies=           -741.414279
 Sum of electronic and thermal Energies=              -741.400395
 Sum of electronic and thermal Enthalpies=            -741.399451
 Sum of electronic and thermal Free Energies=         -741.457733

                     E (Thermal)             CV                S
                      KCal/Mol        Cal/Mol-Kelvin    Cal/Mol-Kelvin
 Total                  156.359             52.523            122.665
 Electronic               0.000              0.000              0.000
 Translational            0.889              2.981             42.056
 Rotational               0.889              2.981             32.857
 Vibrational            154.581             46.562             47.752
 Vibration     1          0.593              1.986              7.016
 Vibration     2          0.594              1.981              5.179
 Vibration     3          0.596              1.974              4.540
 Vibration     4          0.599              1.966              4.028
 Vibration     5          0.601              1.958              3.704
 Vibration     6          0.606              1.943              3.312
 Vibration     7          0.620              1.897              2.612
 Vibration     8          0.623              1.888              2.513
 Vibration     9          0.665              1.754              1.695
 Vibration    10          0.678              1.716              1.553
 Vibration    11          0.698              1.659              1.374
 Vibration    12          0.746              1.522              1.057
 Vibration    13          0.751              1.509              1.032
 Vibration    14          0.769              1.461              0.948
 Vibration    15          0.806              1.367              0.805
 Vibration    16          0.848              1.267              0.677
 Vibration    17          0.889              1.175              0.578
 Vibration    18          0.979              0.993              0.419

 Optimization completed.
    -- Stationary point found.
 Normal termination of Gaussian 16 at Fri Dec 11 00:58:41 2020.

 ----------------------------------------------------------------------
 # B3LYP/6-311++G(d,p) empiricaldispersion=gd3bj scf=xqc pop=npa geom=c
 heck
 ----------------------------------------------------------------------

 --------------------------------------
 CID_64160337_JID_6824_Energie_neutraal
 --------------------------------------
 Structure from the checkpoint file:  "JID_6824.chk"
 Charge =  0 Multiplicity = 1

 SCF Done:  E(RB3LYP) =  -741.850560895     A.U. after   15 cycles
 Normal termination of Gaussian 16 at Fri Dec 11 01:03:01 2020.

 ----------------------------------------------------------------------
 # B3LYP/6-311++G(d,p) empiricaldispersion=gd3bj scf=xqc pop=npa geom=c
 heck
 ----------------------------------------------------------------------

 ------------------------------------
 CID_64160337_JID_6824_Energie_kation
 ------------------------------------
 Structure from the checkpoint file:  "JID_6824.chk"
 Charge =  1 Multiplicity = 2

 SCF Done:  E(UB3LYP) =  -741.559902837     A.U. after   27 cycles
 Normal termination of Gaussian 16 at Fri Dec 11 01:14:07 2020.
 Gaussian 16:  ES64L-G16RevA.03 25-Dec-2016

 ----------------------------------------------------------------------
 # B3LYP/6-311++G(d,p) empiricaldispersion=gd3bj scf=xqc pop=npa geom=c
 heck
 ----------------------------------------------------------------------

 -----------------------------------
 CID_64160337_JID_6824_Energie_anion
 -----------------------------------
 Structure from the checkpoint file:  "JID_6824.chk"
 Charge = -1 Multiplicity = 2

                         Standard orientation:
 ---------------------------------------------------------------------
 Center     Atomic      Atomic             Coordinates (Angstroms)
 Number     Number       Type             X           Y           Z
 ---------------------------------------------------------------------
      1          6           0       -2.899694   -2.578649    0.215556
      2          6           0       -2.751439   -1.490996    1.259792
      3          6           0       -3.383008   -1.195624   -0.093795
      4          7           0       -2.735171   -0.434580   -1.132274
      5          6           0       -2.865871    1.007385   -1.008876
      6          6           0       -2.192094    1.669463    0.227382
      7          6           0       -0.715508    1.494517    0.219877
      8          7           0       -0.029434    0.393404    0.072545
      9          6           0        1.281121    0.839994    0.118155
     10          7           0        1.405182    2.138262    0.282482
     11          8           0        0.066680    2.580784    0.348105
     12          6           0        2.415941   -0.052223   -0.003313
     13          6           0        2.353422   -1.410204   -0.153281
     14          8           0        3.602555   -1.932332   -0.234532
     15          6           0        4.483340   -0.887192   -0.134367
     16          6           0        3.816034    0.285858    0.008829
     17          1           0       -3.633212   -3.364451    0.371259
     18          1           0       -1.995204   -2.914202   -0.287104
     19          1           0       -3.388148   -1.527778    2.140524
     20          1           0       -1.746754   -1.118411    1.434998
     21          1           0       -4.462414   -1.049794   -0.099024
     22          1           0       -1.748584   -0.682258   -1.180144
     23          1           0       -2.462443    1.466274   -1.918838
     24          1           0       -3.933667    1.253703   -0.972363
     25          1           0       -2.417543    2.739952    0.253923
     26          1           0       -2.598679    1.217823    1.138376
     27          1           0        1.530855   -2.104582   -0.212724
     28          1           0        5.527621   -1.152460   -0.183635
     29          1           0        4.236788    1.274987    0.111136
 ---------------------------------------------------------------------

 SCF Done:  E(UB3LYP) =  -741.843392099     A.U. after   33 cycles
 SCF Done:  E(UB3LYP) =  -741.843392099     a.u. after    1 cycles

 The electronic state is 2-A.
 Alpha  occ. eigenvalues --  -19.08777 -19.07578 -14.21555 -14.19188 -14.18985
 Alpha  occ. eigenvalues --  -10.14060 -10.12628 -10.10862 -10.10468 -10.09448
 Alpha  occ. eigenvalues --  -10.09016 -10.07609 -10.07336 -10.07292 -10.06763
 Alpha  occ. eigenvalues --  -10.05933  -1.02676  -1.01317  -0.81533  -0.80639
 Alpha  occ. eigenvalues --   -0.75048  -0.72546  -0.70015  -0.65080  -0.64235
 Alpha  occ. eigenvalues --   -0.54424  -0.53848  -0.49833  -0.49249  -0.48570
 Alpha  occ. eigenvalues --   -0.46901  -0.45948  -0.43097  -0.39815  -0.38740
 Alpha  occ. eigenvalues --   -0.36856  -0.36469  -0.35482  -0.34649  -0.34275
 Alpha  occ. eigenvalues --   -0.32009  -0.31211  -0.30393  -0.29107  -0.28955
 Alpha  occ. eigenvalues --   -0.27326  -0.26861  -0.26350  -0.24734  -0.23149
 Alpha  occ. eigenvalues --   -0.21851  -0.20651  -0.19173  -0.18355  -0.17316
 Alpha  occ. eigenvalues --   -0.15859  -0.12862  -0.10899   0.04893
 Alpha virt. eigenvalues --    0.06780   0.07318   0.08122   0.08955   0.09310
 Alpha virt. eigenvalues --    0.09440   0.10188   0.10705   0.11041   0.11852
 Alpha virt. eigenvalues --    0.12506   0.12526   0.13420   0.13750   0.14507

  Beta  occ. eigenvalues --  -19.08706 -19.07316 -14.21114 -14.19262 -14.18985
  Beta  occ. eigenvalues --  -10.13887 -10.12662 -10.10645 -10.10361 -10.09430
  Beta  occ. eigenvalues --  -10.08980 -10.07599 -10.07343 -10.07287 -10.06758
  Beta  occ. eigenvalues --  -10.05923  -1.02229  -1.01177  -0.81483  -0.80514
  Beta  occ. eigenvalues --   -0.74613  -0.72488  -0.69882  -0.64904  -0.64076
  Beta  occ. eigenvalues --   -0.54241  -0.53578  -0.49804  -0.49143  -0.48500
  Beta  occ. eigenvalues --   -0.46782  -0.45744  -0.42976  -0.39713  -0.38675
  Beta  occ. eigenvalues --   -0.36372  -0.36141  -0.35123  -0.34526  -0.33984
  Beta  occ. eigenvalues --   -0.31909  -0.31065  -0.30313  -0.28955  -0.28825
  Beta  occ. eigenvalues --   -0.27199  -0.26772  -0.26323  -0.24631  -0.22323
  Beta  occ. eigenvalues --   -0.21721  -0.20390  -0.19157  -0.18002  -0.17070
  Beta  occ. eigenvalues --   -0.15008  -0.11662  -0.10763
  Beta virt. eigenvalues --    0.07257   0.07614   0.08547   0.09087   0.09448
  Beta virt. eigenvalues --    0.09706   0.10161   0.10342   0.11033   0.11254
  Beta virt. eigenvalues --    0.12176   0.12547   0.12978   0.13588   0.14078

 Mulliken charges and spin densities:
               1          2
     1  C    0.340757  -0.697167
     2  C    0.324792  -0.692364
     3  C   -0.549069   0.291400
     4  N    0.064254  -0.056124
     5  C    0.193123  -0.569714
     6  C   -0.572295   0.582498
     7  C    0.697497  -0.858926
     8  N   -0.040209  -0.035094
     9  C   -0.041474  -0.114198
    10  N   -0.463259   0.206823
    11  O    0.183425   0.062341
    12  C   -0.128944  -0.049339
    13  C   -0.689616   0.212271
    14  O   -0.015286   0.005754
    15  C   -0.382892  -0.046378
    16  C    0.486532   0.104642
    17  H    0.062309   0.067067
    18  H    0.103271   0.000761
    19  H   -0.226833   0.368879
    20  H    0.233063  -0.045379
    21  H   -0.617855   0.812860
    22  H    0.221377  -0.011589
    23  H    0.079939   0.070798
    24  H   -0.687683   0.867878
    25  H   -0.054185   0.252614
    26  H   -0.068804   0.258476
    27  H    0.211346   0.003009
    28  H    0.155403   0.001971
    29  H    0.181316   0.006231
 Sum of Mulliken charges =  -1.00000   1.00000

 Dipole moment (field-independent basis, Debye):
    X=              6.8085    Y=             -2.4108    Z=             -0.4858  Tot=              7.2391
 Quadrupole moment (field-independent basis, Debye-Ang):
   XX=           -168.0312   YY=           -126.1344   ZZ=           -114.8706
   XY=             -0.5971   XZ=              0.5501   YZ=             -0.5523

 Summary of Natural Population Analysis:

                                       Natural Population
                Natural  -----------------------------------------------
    Atom  No    Charge         Core      Valence    Rydberg      Total
 -----------------------------------------------------------------------
      C    1   -0.20407      0.99962     2.19643    0.00801     3.20407
      C    2   -0.21838      0.99962     2.21027    0.00849     3.21838
      C    3   -0.01620      0.99958     2.00101    0.01562     3.01620
      N    4   -0.34067      0.99974     2.82912    0.01182     3.84067
      C    5   -0.07796      0.99962     2.06609    0.01225     3.07796
      C    6   -0.23454      0.99958     2.22591    0.00905     3.23454
      C    7    0.30936      0.99962     1.67113    0.01989     2.69064
      N    8   -0.30296      0.99967     2.79475    0.00855     3.80296
      C    9    0.16681      0.99960     1.81711    0.01647     2.83319
      N   10   -0.04049      0.99967     2.52833    0.01249     3.54049
      O   11   -0.15392      0.99985     3.14604    0.00803     4.15392
      C   12   -0.08821      0.99950     2.07964    0.00908     3.08821
      C   13    0.11669      0.99949     1.86966    0.01416     2.88331
      O   14   -0.23037      0.99987     3.22282    0.00768     4.23037
      C   15    0.04702      0.99941     1.93788    0.01569     2.95298
      C   16   -0.13891      0.99958     2.13036    0.00897     3.13891
      H   17    0.09957      0.00000     0.39966    0.00077     0.40043
      H   18    0.09945      0.00000     0.39961    0.00094     0.40055
      H   19    0.09978      0.00000     0.39899    0.00123     0.40022
      H   20    0.11148      0.00000     0.38717    0.00134     0.38852
      H   21    0.09900      0.00000     0.39870    0.00230     0.40100
      H   22    0.18470      0.00000     0.31224    0.00306     0.31530
      H   23    0.09196      0.00000     0.40703    0.00101     0.40804
      H   24    0.09650      0.00000     0.40097    0.00253     0.40350
      H   25    0.11001      0.00000     0.38855    0.00144     0.38999
      H   26    0.11638      0.00000     0.38194    0.00168     0.38362
      H   27    0.09615      0.00000     0.40300    0.00085     0.40385
      H   28    0.08930      0.00000     0.40950    0.00120     0.41070
      H   29    0.11268      0.00000     0.38637    0.00094     0.38732
 =======================================================================
   * Total *    0.00016     15.99401    41.80029    0.20554    57.99984

 Normal termination of Gaussian 16 at Fri Dec 11 01:27:47 2020.
