 Gaussian 16, Revision A.03,

 -----------------------------------------------------------
 # opt freq B3LYP/6-31G(d) empiricaldispersion=gd3bj scf=xqc
 -----------------------------------------------------------

 -------------------------------
 CID_153779804_JID_1594_neutraal
 -------------------------------
 Symbolic Z-matrix:
 Charge =  0 Multiplicity = 1

 SCF Done:  E(RB3LYP) =  -503.090061807     A.U. after   14 cycles
 SCF Done:  E(RB3LYP) =  -503.092837532     A.U. after   12 cycles
 SCF Done:  E(RB3LYP) =  -503.093210020     A.U. after   11 cycles
 SCF Done:  E(RB3LYP) =  -503.093316689     A.U. after   11 cycles
 SCF Done:  E(RB3LYP) =  -503.093339960     A.U. after    9 cycles
 SCF Done:  E(RB3LYP) =  -503.093347554     A.U. after    9 cycles
 SCF Done:  E(RB3LYP) =  -503.093348624     A.U. after    8 cycles
 SCF Done:  E(RB3LYP) =  -503.093348819     A.U. after    7 cycles
 Optimization completed.
    -- Stationary point found.

 1\1\GINC-NODE110\FOpt\RB3LYP\6-31G(d)\C9H16O2\VSC10255\08-Dec-2020\0\\
 # opt freq B3LYP/6-31G(d) empiricaldispersion=gd3bj scf=xqc\\CID_15377
 9804_JID_1594_neutraal\\0,1\C,0.9052832018,0.0292942428,0.0475716359\C
 ,0.4605096064,0.3884969845,1.4707973074\C,0.6824019178,1.9116564493,1.
 7052874522\C,0.192881222,2.2486529089,3.086853049\O,0.8570287358,2.297
 8183214,4.0920533838\O,-1.178962569,2.3607335534,3.0822641189\C,-1.843
 8760356,1.2841535803,3.7666493199\C,-1.3200310631,-0.0858264169,3.3042
 140588\C,-0.9672583262,-0.1517382829,1.7867441815\C,-2.0670491711,0.42

 Normal termination of Gaussian 16 at Tue Dec  8 20:30:06 2020.

 --------------------------------------------------------------------
 #N Geom=AllCheck Guess=TCheck SCRF=Check GenChk RB3LYP/6-31G(d) Freq
 --------------------------------------------------------------------

 Structure from the checkpoint file:  "JID_1594.chk"
 -------------------------------
 CID_153779804_JID_1594_neutraal
 -------------------------------
 Charge =  0 Multiplicity = 1

 SCF Done:  E(RB3LYP) =  -503.093348819     A.U. after    1 cycles

  Exact polarizability: 105.075   0.434  96.802   0.733  -3.999  83.551
 Approx polarizability: 133.950  -0.038 136.951   1.576 -10.203 133.884

                      1                      2                      3
                      A                      A                      A
 Frequencies --     95.9302               113.1403               148.4415
 Red. masses --      4.7117                 3.4228                 2.8001
 Frc consts  --      0.0255                 0.0258                 0.0364
 IR Inten    --      2.1590                 1.7611                 0.0282

                      4                      5                      6
                      A                      A                      A
 Frequencies --    177.4005               214.8163               231.3521
 Red. masses --      3.7103                 1.2305                 1.0576
 Frc consts  --      0.0688                 0.0335                 0.0334
 IR Inten    --      5.4638                 0.2181                 0.2283

                      7                      8                      9
                      A                      A                      A
 Frequencies --    244.1647               260.4430               270.9417
 Red. masses --      1.2052                 2.0343                 2.3000
 Frc consts  --      0.0423                 0.0813                 0.0995
 IR Inten    --      0.0179                 0.4753                 0.2895

                     10                     11                     12
                      A                      A                      A
 Frequencies --    289.7450               313.8718               349.7612
 Red. masses --      2.8394                 2.8347                 2.5168
 Frc consts  --      0.1404                 0.1645                 0.1814
 IR Inten    --      1.4421                 1.6627                 1.0071

                     13                     14                     15
                      A                      A                      A
 Frequencies --    419.8903               442.6650               477.4133
 Red. masses --      4.2613                 2.5132                 3.5056
 Frc consts  --      0.4427                 0.2901                 0.4708
 IR Inten    --      0.4446                 0.7296                 1.4777

                     16                     17                     18
                      A                      A                      A
 Frequencies --    534.2791               609.9692               661.7149
 Red. masses --      2.1914                 2.5863                 4.8626
 Frc consts  --      0.3686                 0.5669                 1.2545
 IR Inten    --      0.7338                10.7425                10.5408

                     19                     20                     21
                      A                      A                      A
 Frequencies --    718.8114               774.4563               832.6448
 Red. masses --      4.2046                 2.9809                 2.7324
 Frc consts  --      1.2800                 1.0534                 1.1161
 IR Inten    --      5.6410                 1.1371                 3.6657

                     22                     23                     24
                      A                      A                      A
 Frequencies --    858.3881               923.4490               941.7859
 Red. masses --      3.4759                 1.6973                 1.7220
 Frc consts  --      1.5090                 0.8528                 0.8999
 IR Inten    --     19.3986                 2.0170                 4.0008

                     25                     26                     27
                      A                      A                      A
 Frequencies --    954.1371               960.3644               995.7468
 Red. masses --      1.5063                 1.4779                 1.8599
 Frc consts  --      0.8079                 0.8031                 1.0865
 IR Inten    --      3.5011                 4.0732                 0.5860

                     28                     29                     30
                      A                      A                      A
 Frequencies --   1019.9530              1037.4367              1070.9155
 Red. masses --      1.5294                 2.9957                 3.3973
 Frc consts  --      0.9374                 1.8996                 2.2956
 IR Inten    --      2.3006                21.7075                62.8016

                     31                     32                     33
                      A                      A                      A
 Frequencies --   1086.7579              1098.4890              1124.3969
 Red. masses --      1.6494                 1.8328                 2.3399
 Frc consts  --      1.1478                 1.3030                 1.7430
 IR Inten    --      7.4917                19.7729                12.0482

                     34                     35                     36
                      A                      A                      A
 Frequencies --   1144.2977              1185.8409              1205.7410
 Red. masses --      1.9919                 2.4610                 2.1367
 Frc consts  --      1.5367                 2.0390                 1.8302
 IR Inten    --     39.4675               116.0502                 1.9438

                     37                     38                     39
                      A                      A                      A
 Frequencies --   1214.7985              1258.5822              1283.9797
 Red. masses --      2.1972                 1.5479                 1.1891
 Frc consts  --      1.9104                 1.4447                 1.1550
 IR Inten    --     24.5118                66.5401                 4.3083

                     40                     41                     42
                      A                      A                      A
 Frequencies --   1319.5156              1336.2403              1352.1793
 Red. masses --      1.4071                 1.1534                 1.3442
 Frc consts  --      1.4434                 1.2134                 1.4481
 IR Inten    --     20.5679                 5.5395                 0.7358

                     43                     44                     45
                      A                      A                      A
 Frequencies --   1374.0330              1382.7507              1394.6808
 Red. masses --      1.3144                 1.4688                 1.3570
 Frc consts  --      1.4620                 1.6546                 1.5552
 IR Inten    --     14.5245                 6.1529                 6.4810

                     46                     47                     48
                      A                      A                      A
 Frequencies --   1414.1957              1432.1388              1440.7586
 Red. masses --      1.2749                 1.3523                 1.2299
 Frc consts  --      1.5023                 1.6341                 1.5042
 IR Inten    --      4.7008                 1.3346                 2.7498

                     49                     50                     51
                      A                      A                      A
 Frequencies --   1445.3457              1448.8767              1508.6637
 Red. masses --      1.2809                 1.2800                 1.1102
 Frc consts  --      1.5766                 1.5831                 1.4888
 IR Inten    --      2.0156                15.1393                 5.2647

                     52                     53                     54
                      A                      A                      A
 Frequencies --   1524.8188              1526.8745              1527.9650
 Red. masses --      1.0464                 1.0475                 1.0733
 Frc consts  --      1.4335                 1.4388                 1.4764
 IR Inten    --     11.2376                 3.1166                 2.5772

                     55                     56                     57
                      A                      A                      A
 Frequencies --   1530.7330              1534.3176              1544.2348
 Red. masses --      1.0535                 1.0607                 1.0496
 Frc consts  --      1.4544                 1.4711                 1.4747
 IR Inten    --      2.5023                 6.4969                 4.1207

                     58                     59                     60
                      A                      A                      A
 Frequencies --   1549.6151              1848.0442              3008.4169
 Red. masses --      1.0546                11.5683                 1.0832
 Frc consts  --      1.4920                23.2780                 5.7763
 IR Inten    --      1.2906               253.2917                22.0673

                     61                     62                     63
                      A                      A                      A
 Frequencies --   3024.3063              3035.1079              3047.1680
 Red. masses --      1.0842                 1.0836                 1.0358
 Frc consts  --      5.8425                 5.8813                 5.6668
 IR Inten    --     10.8413                26.2015                20.6346

                     64                     65                     66
                      A                      A                      A
 Frequencies --   3048.6112              3063.4686              3067.6125
 Red. masses --      1.0355                 1.0418                 1.0575
 Frc consts  --      5.6704                 5.7606                 5.8631
 IR Inten    --     22.8835                24.0140                42.4007

                     67                     68                     69
                      A                      A                      A
 Frequencies --   3080.4293              3110.1109              3114.7966
 Red. masses --      1.0582                 1.1016                 1.1023
 Frc consts  --      5.9163                 6.2783                 6.3009
 IR Inten    --     12.9062                33.0210                19.2808

                     70                     71                     72
                      A                      A                      A
 Frequencies --   3115.8726              3120.0946              3123.0625
 Red. masses --      1.1020                 1.1028                 1.1006
 Frc consts  --      6.3039                 6.3253                 6.3245
 IR Inten    --     23.7183                29.5182                29.3614

                     73                     74                     75
                      A                      A                      A
 Frequencies --   3127.9981              3135.6245              3149.5007
 Red. masses --      1.1040                 1.1065                 1.1012
 Frc consts  --      6.3643                 6.4097                 6.4357
 IR Inten    --     39.4142                27.5546                16.3756

 - Thermochemistry -
 -------------------
 Temperature   298.150 Kelvin.  Pressure   1.00000 Atm.
 Atom     1 has atomic number  6 and mass  12.00000

 Molecular mass:   156.11503 amu.
 Principal axes and moments of inertia in atomic units:
                           1         2         3
     Eigenvalues --  1471.567251528.764702357.21326
           X            0.99199   0.12604  -0.00850
           Y           -0.12606   0.99202  -0.00169
           Z            0.00822   0.00275   0.99996
 This molecule is an asymmetric top.
 Rotational symmetry number  1.
 Warning -- assumption of classical behavior for rotation
           may cause significant error
 Rotational temperatures (Kelvin)      0.05886     0.05666     0.03674
 Rotational constants (GHZ):           1.22641     1.18052     0.76562
 Zero-point vibrational energy     636144.6 (Joules/Mol)
                                  152.04221 (Kcal/Mol)
 Warning -- explicit consideration of  17 degrees of freedom as
           vibrations may cause significant error
 Vibrational temperatures:    138.02   162.78   213.57   255.24   309.07
          (Kelvin)            332.86   351.30   374.72   389.82   416.88
                              451.59   503.23   604.13   636.90   686.89
                              768.71   877.61   952.06  1034.21  1114.27
                             1197.99  1235.03  1328.64  1355.02  1372.79
                             1381.75  1432.66  1467.48  1492.64  1540.81
                             1563.60  1580.48  1617.76  1646.39  1706.16
                             1734.79  1747.82  1810.82  1847.36  1898.49
                             1922.55  1945.48  1976.93  1989.47  2006.63
                             2034.71  2060.53  2072.93  2079.53  2084.61
                             2170.63  2193.87  2196.83  2198.40  2202.38
                             2207.54  2221.81  2229.55  2658.92  4328.44
                             4351.30  4366.84  4384.20  4386.27  4407.65
                             4413.61  4432.05  4474.76  4481.50  4483.05
                             4489.12  4493.39  4500.49  4511.46  4531.43

 Zero-point correction=                           0.242295 (Hartree/Particle)
 Thermal correction to Energy=                    0.253710
 Thermal correction to Enthalpy=                  0.254654
 Thermal correction to Gibbs Free Energy=         0.206220
 Sum of electronic and zero-point Energies=           -502.851054
 Sum of electronic and thermal Energies=              -502.839639
 Sum of electronic and thermal Enthalpies=            -502.838695
 Sum of electronic and thermal Free Energies=         -502.887128

                     E (Thermal)             CV                S
                      KCal/Mol        Cal/Mol-Kelvin    Cal/Mol-Kelvin
 Total                  159.205             44.158            101.937
 Electronic               0.000              0.000              0.000
 Translational            0.889              2.981             41.046
 Rotational               0.889              2.981             30.051
 Vibrational            157.428             38.196             30.840
 Vibration     1          0.603              1.952              3.535
 Vibration     2          0.607              1.939              3.214
 Vibration     3          0.618              1.904              2.692
 Vibration     4          0.628              1.870              2.356
 Vibration     5          0.645              1.818              2.002
 Vibration     6          0.653              1.793              1.868
 Vibration     7          0.659              1.772              1.772
 Vibration     8          0.668              1.745              1.659
 Vibration     9          0.675              1.727              1.590
 Vibration    10          0.686              1.693              1.475
 Vibration    11          0.702              1.647              1.342
 Vibration    12          0.727              1.576              1.167
 Vibration    13          0.783              1.427              0.892
 Vibration    14          0.802              1.377              0.818
 Vibration    15          0.834              1.300              0.717
 Vibration    16          0.889              1.174              0.578
 Vibration    17          0.969              1.011              0.433

                           ! Non-Optimized Parameters !

 1\1\GINC-NODE110\Freq\RB3LYP\6-31G(d)\C9H16O2\VSC10255\08-Dec-2020\0\\
 #N Geom=AllCheck Guess=TCheck SCRF=Check GenChk RB3LYP/6-31G(d) Freq\\
 CID_153779804_JID_1594_neutraal\\0,1\C,0.9052832018,0.0292942428,0.047
 5716359\C,0.4605096064,0.3884969845,1.4707973074\C,0.6824019178,1.9116
 564493,1.7052874522\C,0.192881222,2.2486529089,3.086853049\O,0.8570287
 358,2.2978183214,4.0920533838\O,-1.178962569,2.3607335534,3.0822641189
 \C,-1.8438760356,1.2841535803,3.7666493199\C,-1.3200310631,-0.08582641
 69,3.3042140588\C,-0.9672583262,-0.1517382829,1.7867441815\C,-2.067049

 Normal termination of Gaussian 16 at Tue Dec  8 20:37:12 2020.

 ----------------------------------------------------------------------
 # B3LYP/6-311++G(d,p) empiricaldispersion=gd3bj scf=xqc pop=npa geom=c
 heck
 ----------------------------------------------------------------------

 ---------------------------------------
 CID_153779804_JID_1594_Energie_neutraal
 ---------------------------------------
 Structure from the checkpoint file:  "JID_1594.chk"
 Charge =  0 Multiplicity = 1

 SCF Done:  E(RB3LYP) =  -503.237716868     A.U. after   14 cycles
 Normal termination of Gaussian 16 at Tue Dec  8 20:42:05 2020.

 ----------------------------------------------------------------------
 # B3LYP/6-311++G(d,p) empiricaldispersion=gd3bj scf=xqc pop=npa geom=c
 heck
 ----------------------------------------------------------------------

 -------------------------------------
 CID_153779804_JID_1594_Energie_kation
 -------------------------------------
 Structure from the checkpoint file:  "JID_1594.chk"
 Charge =  1 Multiplicity = 2

 SCF Done:  E(UB3LYP) =  -502.880181856     A.U. after   27 cycles
 Normal termination of Gaussian 16 at Tue Dec  8 20:52:53 2020.
 Gaussian 16:  ES64L-G16RevA.03 25-Dec-2016

 ------------------------------------
 CID_153779804_JID_1594_Energie_anion
 ------------------------------------
 Structure from the checkpoint file:  "JID_1594.chk"
 Charge = -1 Multiplicity = 2

                         Standard orientation:
 ---------------------------------------------------------------------
 Center     Atomic      Atomic             Coordinates (Angstroms)
 Number     Number       Type             X           Y           Z
 ---------------------------------------------------------------------
      1          6           0       -2.480196   -1.497726   -0.401029
      2          6           0       -1.306638   -0.519015   -0.532589
      3          6           0       -1.662314    0.805691    0.204219
      4          6           0       -0.479062    1.728707    0.104832
      5          8           0       -0.303246    2.584091   -0.726638
      6          8           0        0.473994    1.368190    1.030170
      7          6           0        1.649391    0.782157    0.443206
      8          6           0        1.285700   -0.329327   -0.555512
      9          6           0        0.048212   -1.180262   -0.135938
     10          6           0        0.106654   -1.655060    1.323954
     11          6           0        2.524632   -1.197331   -0.809446
     12          1           0       -2.685741   -1.742394    0.646714
     13          1           0       -2.271686   -2.434124   -0.931359
     14          1           0       -3.394199   -1.067299   -0.824707
     15          1           0       -1.211456   -0.258487   -1.596196
     16          1           0       -2.537965    1.259202   -0.267796
     17          1           0       -1.884286    0.600373    1.256045
     18          1           0        2.207971    0.381789    1.293168
     19          1           0        2.255662    1.554567   -0.043578
     20          1           0        1.027295    0.157275   -1.505985
     21          1           0        0.097666   -2.080713   -0.765912
     22          1           0       -0.676744   -2.390642    1.530724
     23          1           0        1.065177   -2.140925    1.536930
     24          1           0       -0.009789   -0.823401    2.023026
     25          1           0        2.340770   -1.914009   -1.616765
     26          1           0        3.385586   -0.583168   -1.098448
     27          1           0        2.807484   -1.763303    0.085713
 ---------------------------------------------------------------------

 SCF Done:  E(UB3LYP) =  -503.223108461     A.U. after   33 cycles
 SCF Done:  E(UB3LYP) =  -503.223108460     a.u. after    1 cycles

 The electronic state is 2-A.
 Alpha  occ. eigenvalues --  -19.04736 -19.02463 -10.20570 -10.12706 -10.08533
 Alpha  occ. eigenvalues --  -10.08292 -10.07808 -10.07455 -10.05905 -10.05698
 Alpha  occ. eigenvalues --  -10.05036  -1.00137  -0.92605  -0.73306  -0.70084
 Alpha  occ. eigenvalues --   -0.63035  -0.61911  -0.58726  -0.55046  -0.50631
 Alpha  occ. eigenvalues --   -0.45359  -0.43473  -0.40767  -0.39455  -0.38555
 Alpha  occ. eigenvalues --   -0.37065  -0.35463  -0.32628  -0.31670  -0.31122
 Alpha  occ. eigenvalues --   -0.29551  -0.28887  -0.28691  -0.28206  -0.27469
 Alpha  occ. eigenvalues --   -0.26270  -0.25392  -0.23552  -0.22154  -0.21476
 Alpha  occ. eigenvalues --   -0.21274  -0.18574  -0.18087   0.04623
 Alpha virt. eigenvalues --    0.06908   0.07258   0.07991   0.08413   0.09665
 Alpha virt. eigenvalues --    0.09848   0.09898   0.10781   0.11214   0.12575
 Alpha virt. eigenvalues --    0.12881   0.13086   0.13481   0.13685   0.15796

  Beta  occ. eigenvalues --  -19.04733 -19.02454 -10.20562 -10.12687 -10.08526
  Beta  occ. eigenvalues --  -10.08278 -10.07803 -10.07441 -10.05858 -10.05652
  Beta  occ. eigenvalues --  -10.04999  -1.00123  -0.92592  -0.73274  -0.70055
  Beta  occ. eigenvalues --   -0.62991  -0.61859  -0.58664  -0.54975  -0.50556
  Beta  occ. eigenvalues --   -0.45316  -0.43432  -0.40729  -0.39420  -0.38517
  Beta  occ. eigenvalues --   -0.37037  -0.35433  -0.32595  -0.31624  -0.31082
  Beta  occ. eigenvalues --   -0.29509  -0.28853  -0.28640  -0.28155  -0.27430
  Beta  occ. eigenvalues --   -0.26223  -0.25351  -0.23512  -0.22115  -0.21442
  Beta  occ. eigenvalues --   -0.21239  -0.18552  -0.18072
  Beta virt. eigenvalues --    0.07038   0.07471   0.07913   0.08684   0.09033
  Beta virt. eigenvalues --    0.10253   0.10369   0.10539   0.11324   0.11638
  Beta virt. eigenvalues --    0.13280   0.13415   0.13592   0.13954   0.14035

 Mulliken charges and spin densities:
               1          2
     1  C    1.915654  -2.597075
     2  C   -2.374302   2.709272
     3  C    0.346147  -0.884771
     4  C   -0.394284   0.307362
     5  O   -0.218997   0.016765
     6  O   -0.054133   0.031611
     7  C    0.194214  -0.786476
     8  C   -2.378478   2.506398
     9  C    0.680237  -0.314531
    10  C    1.548332  -2.253151
    11  C    2.282658  -3.027314
    12  H   -0.148345   0.297597
    13  H   -0.573295   0.723597
    14  H   -0.383383   0.529090
    15  H   -0.077943   0.280553
    16  H   -0.025948   0.209402
    17  H    0.064312   0.116974
    18  H   -0.016962   0.197987
    19  H   -0.010354   0.194439
    20  H    0.226782  -0.013102
    21  H    0.032923   0.206273
    22  H   -0.292579   0.439927
    23  H   -0.054286   0.198841
    24  H   -0.115408   0.295348
    25  H   -0.682745   0.836667
    26  H   -0.274533   0.418293
    27  H   -0.215284   0.360027
 Sum of Mulliken charges =  -1.00000   1.00000

 Dipole moment (field-independent basis, Debye):
    X=             -0.1238    Y=              4.9151    Z=              1.9956  Tot=              5.3062
 Quadrupole moment (field-independent basis, Debye-Ang):
   XX=           -124.7023   YY=           -124.0540   ZZ=           -104.9911
   XY=             -0.7315   XZ=              0.1942   YZ=             -0.7891

 Summary of Natural Population Analysis:

                                       Natural Population
                Natural  -----------------------------------------------
    Atom  No    Charge         Core      Valence    Rydberg      Total
 -----------------------------------------------------------------------
      C    1   -0.28304      0.99964     2.27680    0.00660     3.28304
      C    2   -0.09991      0.99958     2.08987    0.01047     3.09991
      C    3   -0.23931      0.99954     2.23077    0.00900     3.23931
      C    4    0.42288      0.99966     1.55130    0.02615     2.57712
      O    5   -0.28891      0.99986     3.28345    0.00560     4.28891
      O    6   -0.30782      0.99986     3.29968    0.00827     4.30782
      C    7   -0.01050      0.99953     1.99817    0.01280     3.01050
      C    8   -0.12716      0.99958     2.11757    0.01001     3.12716
      C    9   -0.10987      0.99956     2.09623    0.01408     3.10987
      C   10   -0.29487      0.99964     2.28829    0.00694     3.29487
      C   11   -0.28212      0.99965     2.27614    0.00634     3.28212
      H   12    0.09883      0.00000     0.39977    0.00140     0.40117
      H   13    0.10451      0.00000     0.39383    0.00166     0.39549
      H   14    0.10081      0.00000     0.39776    0.00143     0.39919
      H   15    0.09720      0.00000     0.40075    0.00205     0.40280
      H   16    0.10901      0.00000     0.39003    0.00096     0.39099
      H   17    0.11022      0.00000     0.38845    0.00133     0.38978
      H   18    0.09403      0.00000     0.40475    0.00122     0.40597
      H   19    0.09156      0.00000     0.40727    0.00117     0.40844
      H   20    0.09908      0.00000     0.39890    0.00201     0.40092
      H   21    0.10352      0.00000     0.39389    0.00259     0.39648
      H   22    0.10339      0.00000     0.39550    0.00112     0.39661
      H   23    0.10215      0.00000     0.39667    0.00118     0.39785
      H   24    0.10152      0.00000     0.39701    0.00147     0.39848
      H   25    0.10521      0.00000     0.39309    0.00170     0.39479
      H   26    0.09995      0.00000     0.39878    0.00126     0.40005
      H   27    0.09964      0.00000     0.39882    0.00154     0.40036
 =======================================================================
   * Total *    0.00000     10.99610    31.86354    0.14036    43.00000

 Normal termination of Gaussian 16 at Tue Dec  8 21:06:32 2020.
