 Gaussian 16, Revision A.03,

 -----------------------------------------------------------
 # opt freq B3LYP/6-31G(d) empiricaldispersion=gd3bj scf=xqc
 -----------------------------------------------------------

 -------------------------------
 CID_145566366_JID_7759_neutraal
 -------------------------------
 Symbolic Z-matrix:
 Charge =  0 Multiplicity = 1

 SCF Done:  E(RB3LYP) =  -1125.08516266     A.U. after   15 cycles
 SCF Done:  E(RB3LYP) =  -1125.09310788     A.U. after   13 cycles
 SCF Done:  E(RB3LYP) =  -1125.09357778     A.U. after   13 cycles
 SCF Done:  E(RB3LYP) =  -1125.09360538     A.U. after   13 cycles
 SCF Done:  E(RB3LYP) =  -1125.09466510     A.U. after   12 cycles
 SCF Done:  E(RB3LYP) =  -1125.09507052     A.U. after   13 cycles
 SCF Done:  E(RB3LYP) =  -1125.09485986     A.U. after   14 cycles
 SCF Done:  E(RB3LYP) =  -1125.09498082     A.U. after   12 cycles
 SCF Done:  E(RB3LYP) =  -1125.09523143     A.U. after   10 cycles
 SCF Done:  E(RB3LYP) =  -1125.09534643     A.U. after   11 cycles
 SCF Done:  E(RB3LYP) =  -1125.09541520     A.U. after    9 cycles
 SCF Done:  E(RB3LYP) =  -1125.09541582     A.U. after    8 cycles
 SCF Done:  E(RB3LYP) =  -1125.09541604     A.U. after    7 cycles
 SCF Done:  E(RB3LYP) =  -1125.09541624     A.U. after    8 cycles
 SCF Done:  E(RB3LYP) =  -1125.09541633     A.U. after    7 cycles
 Optimization completed.
    -- Stationary point found.
 Normal termination of Gaussian 16 at Sun Dec 13 20:16:14 2020.

 --------------------------------------------------------------------
 #N Geom=AllCheck Guess=TCheck SCRF=Check GenChk RB3LYP/6-31G(d) Freq
 --------------------------------------------------------------------

 Structure from the checkpoint file:  "JID_7759.chk"
 -------------------------------
 CID_145566366_JID_7759_neutraal
 -------------------------------
 Charge =  0 Multiplicity = 1

 SCF Done:  E(RB3LYP) =  -1125.09541633     A.U. after    1 cycles

  Exact polarizability: 214.283 -14.951 113.344   7.123  10.851 144.053
 Approx polarizability: 293.173 -26.797 167.643  15.994  30.943 262.005

                      1                      2                      3
                      A                      A                      A
 Frequencies --     30.9330                35.5431                67.1923
 Red. masses --      5.0145                 4.8536                 4.7195
 Frc consts  --      0.0028                 0.0036                 0.0126
 IR Inten    --      0.7118                 0.8956                 2.0675

                      4                      5                      6
                      A                      A                      A
 Frequencies --     71.7413                96.8468               119.1554
 Red. masses --      4.2893                 2.0879                 3.9745
 Frc consts  --      0.0130                 0.0115                 0.0332
 IR Inten    --      0.9950                 0.1586                 0.8132

                      7                      8                      9
                      A                      A                      A
 Frequencies --    137.9688               152.5331               178.5965
 Red. masses --      3.3472                 1.1566                 4.6756
 Frc consts  --      0.0375                 0.0159                 0.0879
 IR Inten    --      0.8638                 0.5810                 1.4155

                     10                     11                     12
                      A                      A                      A
 Frequencies --    197.9011               218.5908               232.3040
 Red. masses --      3.3800                 6.1848                 3.8314
 Frc consts  --      0.0780                 0.1741                 0.1218
 IR Inten    --      1.7196                 3.5311                 3.6853

                     13                     14                     15
                      A                      A                      A
 Frequencies --    241.2285               288.0269               304.5707
 Red. masses --      4.9485                 1.0535                 4.4532
 Frc consts  --      0.1697                 0.0515                 0.2434
 IR Inten    --      4.1182                21.0187                 3.9603

                     16                     17                     18
                      A                      A                      A
 Frequencies --    337.5648               354.1011               412.3555
 Red. masses --      3.2446                 4.8506                 5.8618
 Frc consts  --      0.2178                 0.3583                 0.5873
 IR Inten    --      3.9823                 1.7792                 3.0600

                     19                     20                     21
                      A                      A                      A
 Frequencies --    427.2467               445.5518               472.7243
 Red. masses --      3.9637                 3.0654                 6.4307
 Frc consts  --      0.4263                 0.3585                 0.8467
 IR Inten    --      0.2274                 9.1625                 0.0586

                     22                     23                     24
                      A                      A                      A
 Frequencies --    541.9421               572.9091               585.8472
 Red. masses --      6.2582                 3.1295                 4.5476
 Frc consts  --      1.0829                 0.6052                 0.9196
 IR Inten    --     15.8898                54.0908                 7.0855

                     25                     26                     27
                      A                      A                      A
 Frequencies --    624.1210               652.6066               670.8590
 Red. masses --      3.5665                 1.7079                 2.5521
 Frc consts  --      0.8185                 0.4286                 0.6767
 IR Inten    --      9.1935               270.6006                 1.8460

                     28                     29                     30
                      A                      A                      A
 Frequencies --    700.8705               703.6980               741.7591
 Red. masses --      2.4280                 5.0208                 4.8780
 Frc consts  --      0.7027                 1.4649                 1.5813
 IR Inten    --     10.0079                19.1640                25.7372

                     31                     32                     33
                      A                      A                      A
 Frequencies --    771.6134               789.8784               821.9901
 Red. masses --      5.4230                 1.4247                 1.6689
 Frc consts  --      1.9023                 0.5237                 0.6644
 IR Inten    --     13.6362                53.0882                 5.6437

                     34                     35                     36
                      A                      A                      A
 Frequencies --    849.0943               854.9088               877.5877
 Red. masses --      1.5345                 3.2258                 1.3647
 Frc consts  --      0.6518                 1.3891                 0.6192
 IR Inten    --     20.3089                 5.4988                 0.7510

                     37                     38                     39
                      A                      A                      A
 Frequencies --    903.8007               907.6873               913.7707
 Red. masses --      2.9493                 4.4064                 2.4718
 Frc consts  --      1.4194                 2.1390                 1.2160
 IR Inten    --     12.4949                12.0958                 9.3353

                     40                     41                     42
                      A                      A                      A
 Frequencies --    969.7598               977.9773              1003.0469
 Red. masses --      1.2546                 2.0470                 2.7388
 Frc consts  --      0.6952                 1.1535                 1.6235
 IR Inten    --      1.2403                 4.9612                 2.0440

                     43                     44                     45
                      A                      A                      A
 Frequencies --   1013.2884              1022.5629              1055.0113
 Red. masses --      6.0472                 4.1055                 3.9191
 Frc consts  --      3.6582                 2.5293                 2.5701
 IR Inten    --      7.5720                20.8695                 3.5804

                     46                     47                     48
                      A                      A                      A
 Frequencies --   1083.3823              1096.2802              1113.3009
 Red. masses --      4.7678                 1.6599                 2.0629
 Frc consts  --      3.2971                 1.1754                 1.5065
 IR Inten    --     97.8162                 3.4747                13.7692

                     49                     50                     51
                      A                      A                      A
 Frequencies --   1134.4528              1153.0671              1188.8578
 Red. masses --      2.4581                 1.2601                 1.2756
 Frc consts  --      1.8639                 0.9871                 1.0623
 IR Inten    --      3.0476                 0.4585                 0.4389

                     52                     53                     54
                      A                      A                      A
 Frequencies --   1201.8933              1216.6275              1224.9875
 Red. masses --      1.1167                 1.4172                 1.4914
 Frc consts  --      0.9504                 1.2359                 1.3186
 IR Inten    --      2.0910                 5.6555                 0.9076

                     55                     56                     57
                      A                      A                      A
 Frequencies --   1238.4195              1273.5098              1296.9314
 Red. masses --      1.2931                 1.1566                 1.3047
 Frc consts  --      1.1684                 1.1052                 1.2930
 IR Inten    --     20.1915                 1.7639                 9.3471

                     58                     59                     60
                      A                      A                      A
 Frequencies --   1310.8601              1326.5380              1333.5645
 Red. masses --      2.3106                 3.2279                 1.4391
 Frc consts  --      2.3393                 3.3466                 1.5079
 IR Inten    --     28.7934               178.6055                19.2929

                     61                     62                     63
                      A                      A                      A
 Frequencies --   1346.9385              1360.8337              1366.7329
 Red. masses --      1.7558                 1.2885                 1.3137
 Frc consts  --      1.8768                 1.4058                 1.4458
 IR Inten    --      6.6100                 2.6292                34.2390

                     64                     65                     66
                      A                      A                      A
 Frequencies --   1367.5701              1392.6484              1492.5525
 Red. masses --      2.9604                 1.4795                 2.6156
 Frc consts  --      3.2622                 1.6907                 3.4331
 IR Inten    --      3.1462                 4.5537                14.8518

                     67                     68                     69
                      A                      A                      A
 Frequencies --   1493.8627              1512.3024              1515.8299
 Red. masses --      1.2421                 1.0495                 1.0783
 Frc consts  --      1.6332                 1.4141                 1.4598
 IR Inten    --      7.7292                 6.5719                 0.1894

                     70                     71                     72
                      A                      A                      A
 Frequencies --   1520.9047              1522.0346              1535.0021
 Red. masses --      1.0518                 1.0829                 2.4689
 Frc consts  --      1.4335                 1.4781                 3.4274
 IR Inten    --      2.3133                 5.5231                62.8717

                     73                     74                     75
                      A                      A                      A
 Frequencies --   1540.7354              1635.9212              1658.9219
 Red. masses --      1.1001                 5.7186                 4.4434
 Frc consts  --      1.5386                 9.0171                 7.2048
 IR Inten    --      5.6653                28.4507               131.2052

                     76                     77                     78
                      A                      A                      A
 Frequencies --   1695.1222              1823.5003              3057.7604
 Red. masses --      1.2038                10.8500                 1.0712
 Frc consts  --      2.0381                21.2564                 5.9010
 IR Inten    --    116.5612               169.5963                26.5834

                     79                     80                     81
                      A                      A                      A
 Frequencies --   3071.3859              3077.5088              3081.7338
 Red. masses --      1.0841                 1.0602                 1.0295
 Frc consts  --      6.0254                 5.9159                 5.7607
 IR Inten    --     19.0205                34.2730                24.7475

                     82                     83                     84
                      A                      A                      A
 Frequencies --   3093.4063              3116.0407              3145.2968
 Red. masses --      1.0632                 1.1049                 1.1018
 Frc consts  --      5.9943                 6.3211                 6.4219
 IR Inten    --     29.1695                15.4154                11.9219

                     85                     86                     87
                      A                      A                      A
 Frequencies --   3150.2327              3163.0932              3172.6759
 Red. masses --      1.1009                 1.1072                 1.0896
 Frc consts  --      6.4373                 6.5267                 6.4623
 IR Inten    --     28.0457                13.8868                 8.9252

                     88                     89                     90
                      A                      A                      A
 Frequencies --   3178.7152              3190.2924              3199.0138
 Red. masses --      1.0872                 1.1077                 1.0934
 Frc consts  --      6.4725                 6.6426                 6.5924
 IR Inten    --     12.6699                11.6049                24.0706

                     91                     92                     93
                      A                      A                      A
 Frequencies --   3245.9918              3546.6984              3644.3693
 Red. masses --      1.0917                 1.0481                 1.0977
 Frc consts  --      6.7769                 7.7675                 8.5896
 IR Inten    --      2.3085                11.7170                 7.6061

 - Thermochemistry -
 -------------------
 Temperature   298.150 Kelvin.  Pressure   1.00000 Atm.
 Atom     1 has atomic number  6 and mass  12.00000

 Molecular mass:   252.09325 amu.
 Principal axes and moments of inertia in atomic units:
                           1         2         3
     Eigenvalues --  2342.780485817.867366489.37596
           X            0.99993  -0.01181   0.00177
           Y            0.01186   0.99940  -0.03252
           Z           -0.00138   0.03254   0.99947
 This molecule is an asymmetric top.
 Rotational symmetry number  1.
 Warning -- assumption of classical behavior for rotation
           may cause significant error
 Rotational temperatures (Kelvin)      0.03697     0.01489     0.01335
 Rotational constants (GHZ):           0.77034     0.31021     0.27811
 Zero-point vibrational energy     714514.9 (Joules/Mol)
                                  170.77317 (Kcal/Mol)
 Warning -- explicit consideration of  24 degrees of freedom as
           vibrations may cause significant error
 Vibrational temperatures:     44.51    51.14    96.67   103.22   139.34
          (Kelvin)            171.44   198.51   219.46   256.96   284.74
                              314.50   334.23   347.07   414.41   438.21
                              485.68   509.47   593.29   614.71   641.05
                              680.14   779.73   824.29   842.90   897.97
                              938.96   965.22  1008.40  1012.46  1067.23
                             1110.18  1136.46  1182.66  1221.66  1230.02
                             1262.65  1300.37  1305.96  1314.71  1395.27
                             1407.09  1443.16  1457.90  1471.24  1517.93
                             1558.75  1577.30  1601.79  1632.22  1659.01
                             1710.50  1729.26  1750.46  1762.48  1781.81
                             1832.30  1866.00  1886.04  1908.59  1918.70
                             1937.94  1957.94  1966.42  1967.63  2003.71
                             2147.45  2149.34  2175.87  2180.94  2188.24
                             2189.87  2208.53  2216.77  2353.73  2386.82
                             2438.90  2623.61  4399.44  4419.04  4427.85
                             4433.93  4450.72  4483.29  4525.38  4532.48
                             4550.99  4564.77  4573.46  4590.12  4602.67
                             4670.26  5102.91  5243.43

 Zero-point correction=                           0.272144 (Hartree/Particle)
 Thermal correction to Energy=                    0.288834
 Thermal correction to Enthalpy=                  0.289778
 Thermal correction to Gibbs Free Energy=         0.226985
 Sum of electronic and zero-point Energies=          -1124.823272
 Sum of electronic and thermal Energies=             -1124.806583
 Sum of electronic and thermal Enthalpies=           -1124.805639
 Sum of electronic and thermal Free Energies=        -1124.868431

                     E (Thermal)             CV                S
                      KCal/Mol        Cal/Mol-Kelvin    Cal/Mol-Kelvin
 Total                  181.246             62.910            132.158
 Electronic               0.000              0.000              0.000
 Translational            0.889              2.981             42.474
 Rotational               0.889              2.981             32.847
 Vibrational            179.468             56.949             56.836
 Vibration     1          0.594              1.984              5.769
 Vibration     2          0.594              1.982              5.493
 Vibration     3          0.598              1.970              4.234
 Vibration     4          0.598              1.967              4.105
 Vibration     5          0.603              1.951              3.517
 Vibration     6          0.609              1.933              3.114
 Vibration     7          0.614              1.915              2.832
 Vibration     8          0.619              1.900              2.640
 Vibration     9          0.629              1.869              2.343
 Vibration    10          0.637              1.843              2.153
 Vibration    11          0.646              1.813              1.971
 Vibration    12          0.653              1.792              1.861
 Vibration    13          0.658              1.777              1.794
 Vibration    14          0.685              1.696              1.486
 Vibration    15          0.695              1.665              1.392
 Vibration    16          0.718              1.600              1.224
 Vibration    17          0.730              1.567              1.148
 Vibration    18          0.776              1.443              0.918
 Vibration    19          0.789              1.411              0.868
 Vibration    20          0.805              1.371              0.809
 Vibration    21          0.830              1.311              0.730
 Vibration    22          0.897              1.157              0.561
 Vibration    23          0.929              1.090              0.499
 Vibration    24          0.943              1.062              0.475

 Optimization completed.
    -- Stationary point found.
 Normal termination of Gaussian 16 at Sun Dec 13 20:29:01 2020.

 ----------------------------------------------------------------------
 # B3LYP/6-311++G(d,p) empiricaldispersion=gd3bj scf=xqc pop=npa geom=c
 heck
 ----------------------------------------------------------------------

 ---------------------------------------
 CID_145566366_JID_7759_Energie_neutraal
 ---------------------------------------
 Structure from the checkpoint file:  "JID_7759.chk"
 Charge =  0 Multiplicity = 1

 SCF Done:  E(RB3LYP) =  -1125.32998324     A.U. after   16 cycles
 Normal termination of Gaussian 16 at Sun Dec 13 20:36:01 2020.

 ----------------------------------------------------------------------
 # B3LYP/6-311++G(d,p) empiricaldispersion=gd3bj scf=xqc pop=npa geom=c
 heck
 ----------------------------------------------------------------------

 -------------------------------------
 CID_145566366_JID_7759_Energie_kation
 -------------------------------------
 Structure from the checkpoint file:  "JID_7759.chk"
 Charge =  1 Multiplicity = 2

 SCF Done:  E(UB3LYP) =  -1125.06566273     A.U. after   25 cycles
 Normal termination of Gaussian 16 at Sun Dec 13 20:52:10 2020.
 Gaussian 16:  ES64L-G16RevA.03 25-Dec-2016

 ----------------------------------------------------------------------
 # B3LYP/6-311++G(d,p) empiricaldispersion=gd3bj scf=xqc pop=npa geom=c
 heck
 ----------------------------------------------------------------------

 ------------------------------------
 CID_145566366_JID_7759_Energie_anion
 ------------------------------------
 Structure from the checkpoint file:  "JID_7759.chk"
 Charge = -1 Multiplicity = 2

                         Standard orientation:
 ---------------------------------------------------------------------
 Center     Atomic      Atomic             Coordinates (Angstroms)
 Number     Number       Type             X           Y           Z
 ---------------------------------------------------------------------
      1          6           0       -0.683172    2.497198   -0.989484
      2          8           0        0.511919    1.701607   -0.897550
      3          6           0        1.037337    1.609076    0.335223
      4          8           0        0.646863    2.247794    1.288094
      5          6           0        2.178977    0.606874    0.417064
      6          6           0        3.184423    0.537283   -0.748203
      7          6           0        3.833239   -0.864042   -0.572419
      8          6           0        3.011230   -1.526561    0.567898
      9          7           0        1.724732   -0.797988    0.646376
     10         16           0        0.630925   -1.433352   -0.585958
     11          6           0       -0.940058   -0.929731    0.085473
     12          6           0       -1.114035   -0.598161    1.431471
     13          6           0       -2.378769   -0.193566    1.857496
     14          6           0       -3.459330   -0.141722    0.981026
     15          6           0       -3.285076   -0.490233   -0.368750
     16          6           0       -2.010774   -0.871167   -0.811292
     17          7           0       -4.344261   -0.378301   -1.277531
     18          1           0       -0.476980    3.529734   -0.697072
     19          1           0       -1.455939    2.078739   -0.341149
     20          1           0       -0.988374    2.441739   -2.033986
     21          1           0        2.703764    0.869648    1.342356
     22          1           0        2.650703    0.611905   -1.697929
     23          1           0        3.911684    1.353127   -0.703473
     24          1           0        3.759341   -1.445421   -1.496252
     25          1           0        4.893498   -0.799907   -0.310185
     26          1           0        2.831116   -2.593919    0.430649
     27          1           0        3.513626   -1.385524    1.532190
     28          1           0       -0.269651   -0.630166    2.107785
     29          1           0       -2.525153    0.082899    2.898052
     30          1           0       -4.437254    0.178905    1.331329
     31          1           0       -1.852690   -1.095407   -1.863788
     32          1           0       -4.267557   -0.983621   -2.085934
     33          1           0       -5.262442   -0.451770   -0.856552
 ---------------------------------------------------------------------

 SCF Done:  E(UB3LYP) =  -1125.31840838     A.U. after   33 cycles
 SCF Done:  E(UB3LYP) =  -1125.31840838     a.u. after    1 cycles

 The electronic state is 2-A.
 Alpha  occ. eigenvalues --  -88.77349 -19.08428 -19.02633 -14.25242 -14.21660
 Alpha  occ. eigenvalues --  -10.21599 -10.13440 -10.12949 -10.12058 -10.11587
 Alpha  occ. eigenvalues --  -10.11105 -10.08598 -10.08549 -10.08232 -10.07547
 Alpha  occ. eigenvalues --  -10.07166 -10.06858  -7.85822  -5.82314  -5.81841
 Alpha  occ. eigenvalues --   -5.81109  -1.02519  -0.93606  -0.86053  -0.82220
 Alpha  occ. eigenvalues --   -0.75484  -0.70283  -0.67749  -0.66492  -0.63654
 Alpha  occ. eigenvalues --   -0.62744  -0.60314  -0.53357  -0.51511  -0.50709
 Alpha  occ. eigenvalues --   -0.49502  -0.47432  -0.43724  -0.41576  -0.41122
 Alpha  occ. eigenvalues --   -0.40351  -0.39913  -0.38582  -0.37915  -0.36436
 Alpha  occ. eigenvalues --   -0.35984  -0.34908  -0.33827  -0.33137  -0.31429
 Alpha  occ. eigenvalues --   -0.31000  -0.30214  -0.29553  -0.27871  -0.27532
 Alpha  occ. eigenvalues --   -0.27061  -0.26773  -0.26378  -0.24868  -0.24238
 Alpha  occ. eigenvalues --   -0.23255  -0.22419  -0.19511  -0.18989  -0.16216
 Alpha  occ. eigenvalues --   -0.12325  -0.10904   0.04022
 Alpha virt. eigenvalues --    0.05178   0.06487   0.07261   0.07414   0.07808
 Alpha virt. eigenvalues --    0.07973   0.08304   0.08511   0.08982   0.09439
 Alpha virt. eigenvalues --    0.10201   0.10582   0.10840   0.11330   0.11935

  Beta  occ. eigenvalues --  -88.77341 -19.08426 -19.02630 -14.25231 -14.21584
  Beta  occ. eigenvalues --  -10.21599 -10.13432 -10.12941 -10.12048 -10.11575
  Beta  occ. eigenvalues --  -10.11102 -10.08583 -10.08526 -10.08231 -10.07529
  Beta  occ. eigenvalues --  -10.07148 -10.06853  -7.85812  -5.82300  -5.81834
  Beta  occ. eigenvalues --   -5.81101  -1.02516  -0.93601  -0.86026  -0.82137
  Beta  occ. eigenvalues --   -0.75451  -0.70249  -0.67732  -0.66463  -0.63600
  Beta  occ. eigenvalues --   -0.62723  -0.60275  -0.53327  -0.51474  -0.50658
  Beta  occ. eigenvalues --   -0.49457  -0.47403  -0.43687  -0.41534  -0.41075
  Beta  occ. eigenvalues --   -0.40327  -0.39889  -0.38549  -0.37850  -0.36416
  Beta  occ. eigenvalues --   -0.35966  -0.34874  -0.33798  -0.33098  -0.31413
  Beta  occ. eigenvalues --   -0.30986  -0.30182  -0.29517  -0.27846  -0.27492
  Beta  occ. eigenvalues --   -0.27039  -0.26750  -0.26352  -0.24843  -0.24212
  Beta  occ. eigenvalues --   -0.23224  -0.22396  -0.19501  -0.18968  -0.16197
  Beta  occ. eigenvalues --   -0.12282  -0.10861
  Beta virt. eigenvalues --    0.06203   0.06463   0.06915   0.07605   0.07700
  Beta virt. eigenvalues --    0.08036   0.08387   0.08479   0.08812   0.09161
  Beta virt. eigenvalues --    0.09905   0.10494   0.10611   0.10969   0.11668

 Mulliken charges and spin densities:
               1          2
     1  C   -0.179870  -0.121606
     2  O    0.093615  -0.004696
     3  C   -0.842827   0.394093
     4  O   -0.182022  -0.005009
     5  C    0.030503  -0.023685
     6  C    0.085574  -0.600592
     7  C    0.259922  -0.577266
     8  C    0.261295  -0.395050
     9  N    0.169015   0.009271
    10  S    0.663008  -0.712176
    11  C    0.659949  -0.635823
    12  C    0.324771  -0.441330
    13  C   -0.565757   0.243554
    14  C    0.518593  -0.628607
    15  C   -0.088002  -0.336292
    16  C   -0.820484   0.674164
    17  N   -0.202275  -0.078424
    18  H    0.085220   0.082541
    19  H    0.205769   0.012577
    20  H    0.036274   0.114234
    21  H   -0.002100   0.254534
    22  H    0.170814   0.013396
    23  H   -0.295594   0.460400
    24  H    0.008559   0.132507
    25  H   -0.357794   0.527633
    26  H    0.108738   0.075211
    27  H   -0.152182   0.323118
    28  H    0.218702   0.003680
    29  H    0.094979   0.069126
    30  H   -0.257167   0.415756
    31  H   -0.280927   0.477422
    32  H   -0.363926   0.615457
    33  H   -0.404371   0.661882
 Sum of Mulliken charges =  -1.00000   1.00000

 Dipole moment (field-independent basis, Debye):
    X=              4.1375    Y=              1.2750    Z=              1.3772  Tot=              4.5432
 Quadrupole moment (field-independent basis, Debye-Ang):
   XX=           -224.5864   YY=           -139.5784   ZZ=           -142.6927
   XY=             -9.2825   XZ=            -17.4336   YZ=             -6.6526

 Summary of Natural Population Analysis:

                                       Natural Population
                Natural  -----------------------------------------------
    Atom  No    Charge         Core      Valence    Rydberg      Total
 -----------------------------------------------------------------------
      C    1   -0.10621      0.99959     2.09871    0.00791     3.10621
      O    2   -0.27198      0.99986     3.26361    0.00852     4.27198
      C    3    0.40872      0.99964     1.56497    0.02667     2.59128
      O    4   -0.29768      0.99987     3.29238    0.00543     4.29768
      C    5   -0.05222      0.99952     2.03757    0.01514     3.05222
      C    6   -0.20018      0.99962     2.19225    0.00830     3.20018
      C    7   -0.20368      0.99964     2.19636    0.00768     3.20368
      C    8   -0.09010      0.99962     2.07853    0.01195     3.09010
      N    9   -0.32181      0.99975     2.80825    0.01381     3.82181
      S   10    0.20821      4.99947     2.77319    0.01913     7.79179
      C   11   -0.08591      0.99941     2.07371    0.01279     3.08591
      C   12   -0.13607      0.99948     2.12709    0.00950     3.13607
      C   13   -0.08546      0.99957     2.07633    0.00957     3.08546
      C   14   -0.13308      0.99952     2.12297    0.01060     3.13308
      C   15    0.09083      0.99949     1.89735    0.01234     2.90917
      C   16   -0.13866      0.99945     2.12723    0.01198     3.13866
      N   17   -0.39374      0.99972     2.88329    0.01074     3.89374
      H   18    0.08918      0.00000     0.40990    0.00092     0.41082
      H   19    0.10122      0.00000     0.39767    0.00111     0.39878
      H   20    0.09313      0.00000     0.40593    0.00094     0.40687
      H   21    0.10952      0.00000     0.38912    0.00136     0.39048
      H   22    0.10866      0.00000     0.38973    0.00161     0.39134
      H   23    0.10487      0.00000     0.39391    0.00122     0.39513
      H   24    0.09951      0.00000     0.39954    0.00095     0.40049
      H   25    0.10421      0.00000     0.39344    0.00235     0.39579
      H   26    0.10408      0.00000     0.39485    0.00107     0.39592
      H   27    0.09827      0.00000     0.40044    0.00129     0.40173
      H   28    0.11371      0.00000     0.38474    0.00154     0.38629
      H   29    0.09918      0.00000     0.40007    0.00075     0.40082
      H   30    0.10156      0.00000     0.39748    0.00097     0.39844
      H   31    0.10350      0.00000     0.39475    0.00175     0.39650
      H   32    0.18878      0.00000     0.30424    0.00698     0.31122
      H   33    0.18967      0.00000     0.30178    0.00855     0.31033
 =======================================================================
   * Total *   -0.00000     20.99321    45.77138    0.23541    67.00000

 Normal termination of Gaussian 16 at Sun Dec 13 21:13:33 2020.
