 Gaussian 16, Revision A.03,

 -----------------------------------------------------------
 # opt freq B3LYP/6-31G(d) empiricaldispersion=gd3bj scf=xqc
 -----------------------------------------------------------

 -------------------------------
 CID_126970451_JID_1006_neutraal
 -------------------------------
 Symbolic Z-matrix:
 Charge =  0 Multiplicity = 1

 SCF Done:  E(RB3LYP) =  -490.591957889     A.U. after   14 cycles
 SCF Done:  E(RB3LYP) =  -490.597482758     A.U. after   13 cycles
 SCF Done:  E(RB3LYP) =  -490.598159803     A.U. after   11 cycles
 SCF Done:  E(RB3LYP) =  -490.598362103     A.U. after   11 cycles
 SCF Done:  E(RB3LYP) =  -490.598389681     A.U. after   10 cycles
 SCF Done:  E(RB3LYP) =  -490.598409070     A.U. after   10 cycles
 SCF Done:  E(RB3LYP) =  -490.598412090     A.U. after    9 cycles
 SCF Done:  E(RB3LYP) =  -490.598412473     A.U. after    8 cycles
 Optimization completed.
    -- Stationary point found.
 Normal termination of Gaussian 16 at Tue Dec  8 19:08:28 2020.

 --------------------------------------------------------------------
 #N Geom=AllCheck Guess=TCheck SCRF=Check GenChk RB3LYP/6-31G(d) Freq
 --------------------------------------------------------------------

 Structure from the checkpoint file:  "JID_1006.chk"
 -------------------------------
 CID_126970451_JID_1006_neutraal
 -------------------------------
 Charge =  0 Multiplicity = 1

 SCF Done:  E(RB3LYP) =  -490.598412473     A.U. after    1 cycles

  Exact polarizability: 113.286   6.292 119.722  -3.405   1.406  44.922
 Approx polarizability: 183.300  10.628 210.849  -7.745   4.498  69.568

                      1                      2                      3
                      A                      A                      A
 Frequencies --     99.4052               142.0556               211.2911
 Red. masses --      3.1405                 2.8234                 4.1522
 Frc consts  --      0.0183                 0.0336                 0.1092
 IR Inten    --      2.6362                 1.7359                 3.7237

                      4                      5                      6
                      A                      A                      A
 Frequencies --    219.7249               279.0543               321.4538
 Red. masses --      5.1827                 2.5391                 1.7828
 Frc consts  --      0.1474                 0.1165                 0.1085
 IR Inten    --      1.9459                10.5703                24.4319

                      7                      8                      9
                      A                      A                      A
 Frequencies --    391.4701               485.8891               523.2467
 Red. masses --      3.0470                 4.8563                 3.6439
 Frc consts  --      0.2751                 0.6755                 0.5878
 IR Inten    --      5.4940                 0.0358                13.8324

                     10                     11                     12
                      A                      A                      A
 Frequencies --    569.2212               593.7569               610.0830
 Red. masses --      2.7013                 4.3067                 6.5916
 Frc consts  --      0.5157                 0.8946                 1.4455
 IR Inten    --     45.7826                22.8318                11.6724

                     13                     14                     15
                      A                      A                      A
 Frequencies --    639.3217               687.6039               698.1773
 Red. masses --      4.1452                 1.4147                 5.6593
 Frc consts  --      0.9982                 0.3941                 1.6253
 IR Inten    --      6.1422                25.9810                 5.2136

                     16                     17                     18
                      A                      A                      A
 Frequencies --    760.4627               824.2636               877.1823
 Red. masses --      1.3397                 4.3012                 1.3549
 Frc consts  --      0.4565                 1.7218                 0.6142
 IR Inten    --     52.1893                21.7551                 2.8440

                     19                     20                     21
                      A                      A                      A
 Frequencies --    887.4698               909.9913               920.2847
 Red. masses --      6.3479                 1.4798                 3.6737
 Frc consts  --      2.9457                 0.7220                 1.8332
 IR Inten    --      5.9764                28.9937                43.4035

                     22                     23                     24
                      A                      A                      A
 Frequencies --    958.6102               989.9874              1043.9645
 Red. masses --      1.4238                 1.8142                 3.4289
 Frc consts  --      0.7709                 1.0476                 2.2018
 IR Inten    --      5.5850                29.0139                31.2495

                     25                     26                     27
                      A                      A                      A
 Frequencies --   1082.5710              1091.2731              1135.2774
 Red. masses --      1.6634                 1.6909                 1.9075
 Frc consts  --      1.1486                 1.1864                 1.4485
 IR Inten    --     28.7423                 2.9663                14.7828

                     28                     29                     30
                      A                      A                      A
 Frequencies --   1183.8049              1206.1099              1264.1274
 Red. masses --      1.2304                 3.8023                 1.7486
 Frc consts  --      1.0159                 3.2589                 1.6464
 IR Inten    --      3.6797                 7.1703                10.9950

                     31                     32                     33
                      A                      A                      A
 Frequencies --   1305.1566              1313.8190              1339.4201
 Red. masses --      3.2431                 2.4041                 1.9828
 Frc consts  --      3.2549                 2.4450                 2.0958
 IR Inten    --     15.0639                 4.7690                 4.1392

                     34                     35                     36
                      A                      A                      A
 Frequencies --   1396.9445              1419.0751              1434.5683
 Red. masses --      2.0752                 2.1993                 2.0529
 Frc consts  --      2.3860                 2.6094                 2.4892
 IR Inten    --     42.3772                44.9352                42.2673

                     37                     38                     39
                      A                      A                      A
 Frequencies --   1453.0745              1519.3904              1521.2811
 Red. masses --      4.2320                 1.6423                 1.4490
 Frc consts  --      5.2647                 2.2339                 1.9758
 IR Inten    --     92.2610                 7.9267                15.3714

                     40                     41                     42
                      A                      A                      A
 Frequencies --   1545.1909              1598.4612              1660.8574
 Red. masses --      4.2330                 7.8811                 6.7925
 Frc consts  --      5.9547                11.8643                11.0393
 IR Inten    --      9.6621                65.1865                46.0121

                     43                     44                     45
                      A                      A                      A
 Frequencies --   1696.7152              3026.1932              3064.4607
 Red. masses --      1.1098                 1.0604                 1.1028
 Frc consts  --      1.8825                 5.7216                 6.1016
 IR Inten    --     42.4320                37.8380                19.9541

                     46                     47                     48
                      A                      A                      A
 Frequencies --   3187.1887              3267.3589              3287.0307
 Red. masses --      1.0902                 1.0915                 1.1025
 Frc consts  --      6.5247                 6.8655                 7.0187
 IR Inten    --     41.4663                 0.9809                 3.2184

                     49                     50                     51
                      A                      A                      A
 Frequencies --   3470.1624              3555.5777              3602.5236
 Red. masses --      1.0508                 1.0921                 1.0812
 Frc consts  --      7.4554                 8.1345                 8.2673
 IR Inten    --      0.1167                 0.5989               165.8043

 - Thermochemistry -
 -------------------
 Temperature   298.150 Kelvin.  Pressure   1.00000 Atm.
 Atom     1 has atomic number  6 and mass  12.00000

 Molecular mass:   148.07490 amu.
 Principal axes and moments of inertia in atomic units:
                           1         2         3
     Eigenvalues --  1105.859541429.040402488.40502
           X            1.00000  -0.00110   0.00079
           Y            0.00110   1.00000  -0.00245
           Z           -0.00079   0.00245   1.00000
 This molecule is an asymmetric top.
 Rotational symmetry number  1.
 Warning -- assumption of classical behavior for rotation
           may cause significant error
 Rotational temperatures (Kelvin)      0.07832     0.06061     0.03481
 Rotational constants (GHZ):           1.63198     1.26290     0.72526
 Zero-point vibrational energy     402373.4 (Joules/Mol)
                                   96.16956 (Kcal/Mol)
 Warning -- explicit consideration of  12 degrees of freedom as
           vibrations may cause significant error
 Vibrational temperatures:    143.02   204.39   304.00   316.14   401.50
          (Kelvin)            462.50   563.24   699.09   752.84   818.98
                              854.28   877.77   919.84   989.31  1004.52
                             1094.14  1185.93  1262.07  1276.87  1309.27
                             1324.08  1379.23  1424.37  1502.03  1557.58
                             1570.10  1633.41  1703.23  1735.32  1818.80
                             1877.83  1890.29  1927.13  2009.89  2041.73
                             2064.02  2090.65  2186.06  2188.78  2223.19
                             2299.83  2389.60  2441.19  4354.02  4409.08
                             4585.65  4701.00  4729.30  4992.79  5115.68
                             5183.23

 Zero-point correction=                           0.153256 (Hartree/Particle)
 Thermal correction to Energy=                    0.161715
 Thermal correction to Enthalpy=                  0.162659
 Thermal correction to Gibbs Free Energy=         0.119803
 Sum of electronic and zero-point Energies=           -490.445157
 Sum of electronic and thermal Energies=              -490.436697
 Sum of electronic and thermal Enthalpies=            -490.435753
 Sum of electronic and thermal Free Energies=         -490.478609

                     E (Thermal)             CV                S
                      KCal/Mol        Cal/Mol-Kelvin    Cal/Mol-Kelvin
 Total                  101.478             33.600             90.198
 Electronic               0.000              0.000              0.000
 Translational            0.889              2.981             40.888
 Rotational               0.889              2.981             29.754
 Vibrational             99.700             27.639             19.556
 Vibration     1          0.604              1.950              3.466
 Vibration     2          0.616              1.911              2.776
 Vibration     3          0.643              1.824              2.032
 Vibration     4          0.647              1.811              1.961
 Vibration     5          0.679              1.712              1.539
 Vibration     6          0.707              1.632              1.303
 Vibration     7          0.759              1.488              0.995
 Vibration     8          0.842              1.281              0.694
 Vibration     9          0.878              1.199              0.602
 Vibration    10          0.925              1.098              0.506
 Vibration    11          0.951              1.045              0.461
 Vibration    12          0.969              1.010              0.433

                           ! Non-Optimized Parameters !
 Normal termination of Gaussian 16 at Tue Dec  8 19:11:53 2020.

 ----------------------------------------------------------------------
 # B3LYP/6-311++G(d,p) empiricaldispersion=gd3bj scf=xqc pop=npa geom=c
 heck
 ----------------------------------------------------------------------

 ---------------------------------------
 CID_126970451_JID_1006_Energie_neutraal
 ---------------------------------------
 Structure from the checkpoint file:  "JID_1006.chk"
 Charge =  0 Multiplicity = 1

 SCF Done:  E(RB3LYP) =  -490.736668435     A.U. after   15 cycles
 Normal termination of Gaussian 16 at Tue Dec  8 19:12:53 2020.

 ----------------------------------------------------------------------
 # B3LYP/6-311++G(d,p) empiricaldispersion=gd3bj scf=xqc pop=npa geom=c
 heck
 ----------------------------------------------------------------------

 -------------------------------------
 CID_126970451_JID_1006_Energie_kation
 -------------------------------------
 Structure from the checkpoint file:  "JID_1006.chk"
 Charge =  1 Multiplicity = 2

 SCF Done:  E(UB3LYP) =  -490.426880566     A.U. after   29 cycles
 Normal termination of Gaussian 16 at Tue Dec  8 19:15:39 2020.
 Gaussian 16:  ES64L-G16RevA.03 25-Dec-2016

 ----------------------------------------------------------------------
 # B3LYP/6-311++G(d,p) empiricaldispersion=gd3bj scf=xqc pop=npa geom=c
 heck
 ----------------------------------------------------------------------

 ------------------------------------
 CID_126970451_JID_1006_Energie_anion
 ------------------------------------
 Structure from the checkpoint file:  "JID_1006.chk"
 Charge = -1 Multiplicity = 2

                         Standard orientation:
 ---------------------------------------------------------------------
 Center     Atomic      Atomic             Coordinates (Angstroms)
 Number     Number       Type             X           Y           Z
 ---------------------------------------------------------------------
      1          6           0       -2.299453   -0.978418    0.037754
      2          6           0       -1.468076   -2.073050   -0.055302
      3          7           0       -0.153521   -1.668712   -0.130305
      4          6           0       -0.113642   -0.296327   -0.069645
      5          6           0       -1.452469    0.175071    0.032653
      6          7           0       -1.733464    1.492540    0.100949
      7          6           0       -0.663076    2.281896    0.070613
      8          7           0        0.638369    1.929301   -0.021441
      9          6           0        0.929604    0.627461   -0.101198
     10          6           0        2.375761    0.224699   -0.260756
     11          7           0        2.624653   -1.112312    0.310965
     12          1           0       -3.377548   -0.990162    0.099659
     13          1           0       -1.716127   -3.125150   -0.076452
     14          1           0        0.693340   -2.223870   -0.120672
     15          1           0       -0.851113    3.351776    0.129059
     16          1           0        2.603410    0.168454   -1.333712
     17          1           0        3.000848    1.027811    0.154778
     18          1           0        3.568493   -1.410828    0.073082
     19          1           0        2.594552   -1.051736    1.328364
 ---------------------------------------------------------------------

 SCF Done:  E(UB3LYP) =  -490.734454187     A.U. after   31 cycles

 The electronic state is 2-A.
 Alpha  occ. eigenvalues --  -14.23167 -14.17920 -14.16819 -14.16763 -10.09249
 Alpha  occ. eigenvalues --  -10.08651 -10.07754 -10.07585 -10.07518 -10.07158
 Alpha  occ. eigenvalues --  -10.04184  -0.86738  -0.82893  -0.77182  -0.74395
 Alpha  occ. eigenvalues --   -0.65074  -0.63486  -0.57024  -0.50995  -0.49210
 Alpha  occ. eigenvalues --   -0.46867  -0.42304  -0.38182  -0.36843  -0.35040
 Alpha  occ. eigenvalues --   -0.33767  -0.31925  -0.31618  -0.30041  -0.28284
 Alpha  occ. eigenvalues --   -0.26036  -0.25515  -0.24776  -0.18680  -0.16500
 Alpha  occ. eigenvalues --   -0.13877  -0.11924  -0.11686  -0.10955   0.04579
 Alpha virt. eigenvalues --    0.07661   0.08093   0.09818   0.10134   0.10726
 Alpha virt. eigenvalues --    0.11534   0.12211   0.12463   0.14029   0.15184
 Alpha virt. eigenvalues --    0.15744   0.16044   0.16885   0.17080   0.18062

  Beta  occ. eigenvalues --  -14.23142 -14.17824 -14.16721 -14.16550 -10.09271
  Beta  occ. eigenvalues --  -10.08501 -10.07630 -10.07529 -10.07504 -10.07090
  Beta  occ. eigenvalues --  -10.04204  -0.86601  -0.82666  -0.76964  -0.74082
  Beta  occ. eigenvalues --   -0.64935  -0.63255  -0.56770  -0.50924  -0.48959
  Beta  occ. eigenvalues --   -0.46810  -0.42151  -0.38009  -0.36725  -0.34894
  Beta  occ. eigenvalues --   -0.33661  -0.31863  -0.31222  -0.29913  -0.28090
  Beta  occ. eigenvalues --   -0.25949  -0.25241  -0.24360  -0.17893  -0.16281
  Beta  occ. eigenvalues --   -0.13743  -0.11514  -0.11317  -0.10432
  Beta virt. eigenvalues --    0.07767   0.08580   0.09462   0.09926   0.10781
  Beta virt. eigenvalues --    0.10896   0.11954   0.12567   0.12907   0.14348
  Beta virt. eigenvalues --    0.15569   0.15812   0.16111   0.17029   0.17230

 Mulliken charges and spin densities:
               1          2
     1  C   -0.032250  -0.316121
     2  C   -0.187491   0.260474
     3  N   -0.147964   0.034324
     4  C    0.823923  -0.430999
     5  C   -0.048387   0.113217
     6  N   -0.170544   0.103158
     7  C    0.070487   0.018753
     8  N   -0.144330   0.086493
     9  C   -0.814487   0.253723
    10  C    0.639338  -1.281546
    11  N   -0.368207  -0.091384
    12  H    0.120961   0.011463
    13  H   -0.163587   0.296192
    14  H    0.177007   0.176065
    15  H    0.168987   0.004101
    16  H   -0.306174   0.500544
    17  H    0.032896   0.124440
    18  H   -0.511930   0.773528
    19  H   -0.138248   0.363574
 Sum of Mulliken charges =  -1.00000   1.00000

 Dipole moment (field-independent basis, Debye):
    X=             -4.5285    Y=              0.4777    Z=             -0.2828  Tot=              4.5624
 Quadrupole moment (field-independent basis, Debye-Ang):
   XX=           -114.0823   YY=            -93.9996   ZZ=            -81.3192
   XY=             12.7540   XZ=              1.5532   YZ=              2.0136

 Summary of Natural Population Analysis:

                                       Natural Population
                Natural  -----------------------------------------------
    Atom  No    Charge         Core      Valence    Rydberg      Total
 -----------------------------------------------------------------------
      C    1   -0.16694      0.99953     2.15848    0.00892     3.16694
      C    2    0.03240      0.99959     1.95520    0.01281     2.96760
      N    3   -0.27203      0.99966     2.76350    0.00888     3.77203
      C    4    0.03347      0.99941     1.95521    0.01191     2.96653
      C    5    0.08385      0.99948     1.90024    0.01642     2.91615
      N    6   -0.22592      0.99968     2.71552    0.01071     3.72592
      C    7    0.11888      0.99967     1.86287    0.01858     2.88112
      N    8   -0.25287      0.99969     2.74382    0.00936     3.75287
      C    9    0.14422      0.99949     1.84192    0.01438     2.85578
      C   10   -0.10334      0.99960     2.09028    0.01345     3.10334
      N   11   -0.43231      0.99978     2.92081    0.01173     3.93231
      H   12    0.10270      0.00000     0.39626    0.00104     0.39730
      H   13    0.09378      0.00000     0.40545    0.00077     0.40622
      H   14    0.21898      0.00000     0.27874    0.00228     0.28102
      H   15    0.07330      0.00000     0.42543    0.00127     0.42670
      H   16    0.10095      0.00000     0.39706    0.00199     0.39905
      H   17    0.08975      0.00000     0.40817    0.00208     0.41025
      H   18    0.18464      0.00000     0.30059    0.01477     0.31536
      H   19    0.17649      0.00000     0.32025    0.00326     0.32351
 =======================================================================
   * Total *    0.00000     10.99559    27.83979    0.16462    39.00000

 Normal termination of Gaussian 16 at Tue Dec  8 19:18:35 2020.
