 Gaussian 16, Revision A.03,

 -----------------------------------------------------------
 # opt freq B3LYP/6-31G(d) empiricaldispersion=gd3bj scf=xqc
 -----------------------------------------------------------

 -------------------------------
 CID_135459508_JID_5209_neutraal
 -------------------------------
 Symbolic Z-matrix:
 Charge =  0 Multiplicity = 1

 SCF Done:  E(RB3LYP) =  -1039.03307216     A.U. after   16 cycles
 SCF Done:  E(RB3LYP) =  -1039.03927059     A.U. after   14 cycles
 SCF Done:  E(RB3LYP) =  -1039.04439275     A.U. after   16 cycles
 SCF Done:  E(RB3LYP) =  -1039.00103074     A.U. after   15 cycles
 SCF Done:  E(RB3LYP) =  -1039.05092427     A.U. after   14 cycles
 SCF Done:  E(RB3LYP) =  -1039.05154168     A.U. after   13 cycles
 SCF Done:  E(RB3LYP) =  -1039.04998892     A.U. after   14 cycles
 SCF Done:  E(RB3LYP) =  -1039.05191456     A.U. after   12 cycles
 SCF Done:  E(RB3LYP) =  -1039.05194550     A.U. after   11 cycles
 SCF Done:  E(RB3LYP) =  -1039.05195124     A.U. after   10 cycles
 SCF Done:  E(RB3LYP) =  -1039.05195159     A.U. after    8 cycles
 Optimization completed.
    -- Stationary point found.
 Normal termination of Gaussian 16 at Thu Dec 10 14:47:53 2020.

 --------------------------------------------------------------------
 #N Geom=AllCheck Guess=TCheck SCRF=Check GenChk RB3LYP/6-31G(d) Freq
 --------------------------------------------------------------------

 Structure from the checkpoint file:  "JID_5209.chk"
 -------------------------------
 CID_135459508_JID_5209_neutraal
 -------------------------------
 Charge =  0 Multiplicity = 1

 SCF Done:  E(RB3LYP) =  -1039.05195159     A.U. after    1 cycles

  Exact polarizability: 222.759  -8.030 156.714  -0.002  -0.002  55.941
 Approx polarizability: 361.944 -17.787 278.941  -0.008  -0.013  89.550

                      1                      2                      3
                      A                      A                      A
 Frequencies --     55.8773                80.1860               101.2833
 Red. masses --      7.7555                 4.7389                 4.5748
 Frc consts  --      0.0143                 0.0180                 0.0277
 IR Inten    --      0.1521                 0.9257                 0.0372

                      4                      5                      6
                      A                      A                      A
 Frequencies --    119.3970               146.7123               152.2416
 Red. masses --     11.5809                 1.1154                 4.4541
 Frc consts  --      0.0973                 0.0141                 0.0608
 IR Inten    --      3.7203                 0.1918                 1.3127

                      7                      8                      9
                      A                      A                      A
 Frequencies --    161.4593               236.0725               255.5631
 Red. masses --      8.9315                 6.5045                 6.4001
 Frc consts  --      0.1372                 0.2136                 0.2463
 IR Inten    --     17.1279                 1.3337                 4.0517

                     10                     11                     12
                      A                      A                      A
 Frequencies --    268.1577               354.7595               380.3266
 Red. masses --      8.6176                 6.7388                11.2197
 Frc consts  --      0.3651                 0.4997                 0.9562
 IR Inten    --      3.3807                 1.5870                13.1752

                     13                     14                     15
                      A                      A                      A
 Frequencies --    412.6556               417.8738               500.2535
 Red. masses --     10.2142                 4.1078                 4.4422
 Frc consts  --      1.0248                 0.4226                 0.6550
 IR Inten    --      3.0508                 1.9897                 4.5257

                     16                     17                     18
                      A                      A                      A
 Frequencies --    519.8433               561.2463               565.2220
 Red. masses --      9.5145                 7.6625                 9.7714
 Frc consts  --      1.5149                 1.4221                 1.8393
 IR Inten    --      7.3315                13.7798                 4.6377

                     19                     20                     21
                      A                      A                      A
 Frequencies --    601.4385               635.1707               657.1703
 Red. masses --      8.2921                 6.8202                 1.7517
 Frc consts  --      1.7673                 1.6212                 0.4457
 IR Inten    --      3.4785                 5.6426                40.9287

                     22                     23                     24
                      A                      A                      A
 Frequencies --    704.4749               716.6371               722.5448
 Red. masses --      7.9235                 3.1350                 7.3985
 Frc consts  --      2.3169                 0.9486                 2.2757
 IR Inten    --      1.3203                31.7905                 3.6707

                     25                     26                     27
                      A                      A                      A
 Frequencies --    751.9201               787.4904               814.8579
 Red. masses --      5.5005                 7.7143                 9.0193
 Frc consts  --      1.8323                 2.8186                 3.5285
 IR Inten    --     19.9254                 8.9721                20.4006

                     28                     29                     30
                      A                      A                      A
 Frequencies --    920.6068               959.1615               975.4131
 Red. masses --      7.0537                 1.4317                 1.4024
 Frc consts  --      3.5222                 0.7760                 0.7861
 IR Inten    --      9.7903                 1.5539                 9.2794

                     31                     32                     33
                      A                      A                      A
 Frequencies --    999.0406              1008.8286              1016.4704
 Red. masses --      1.1865                 1.4030                 5.2201
 Frc consts  --      0.6977                 0.8413                 3.1777
 IR Inten    --      4.1637                 6.2169                65.4688

                     34                     35                     36
                      A                      A                      A
 Frequencies --   1125.5371              1156.9469              1207.6530
 Red. masses --      2.8693                 3.3205                 1.9856
 Frc consts  --      2.1416                 2.6187                 1.7062
 IR Inten    --     58.6166                 3.5173                 6.5284

                     37                     38                     39
                      A                      A                      A
 Frequencies --   1251.7630              1283.7712              1343.3603
 Red. masses --     10.2406                 3.8625                 4.6515
 Frc consts  --      9.4541                 3.7506                 4.9457
 IR Inten    --     16.7685                63.5009                 9.6817

                     40                     41                     42
                      A                      A                      A
 Frequencies --   1386.6709              1409.1280              1427.1395
 Red. masses --      1.2850                 2.6924                 2.0617
 Frc consts  --      1.4558                 3.1499                 2.4741
 IR Inten    --     44.9574               234.0218                35.2035

                     43                     44                     45
                      A                      A                      A
 Frequencies --   1473.3202              1485.4623              1486.6538
 Red. masses --      3.4213                 2.6469                 1.0515
 Frc consts  --      4.3756                 3.4412                 1.3692
 IR Inten    --     74.7261                21.7445                 9.1318

                     46                     47                     48
                      A                      A                      A
 Frequencies --   1499.1241              1556.6350              1640.7910
 Red. masses --      1.1199                 9.0938                 7.0242
 Frc consts  --      1.4828                12.9828                11.1418
 IR Inten    --     16.4092               118.6515               545.6576

                     49                     50                     51
                      A                      A                      A
 Frequencies --   1671.6234              1809.3048              2348.2916
 Red. masses --      6.3308                 9.7128                12.6777
 Frc consts  --     10.4229                18.7335                41.1904
 IR Inten    --    125.6192               477.4768                20.9087

                     52                     53                     54
                      A                      A                      A
 Frequencies --   3087.1842              3180.3105              3189.6180
 Red. masses --      1.0293                 1.1056                 1.1080
 Frc consts  --      5.7800                 6.5884                 6.6416
 IR Inten    --     11.6241                 4.3589                 1.9967

                     55                     56                     57
                      A                      A                      A
 Frequencies --   3194.7750              3233.3460              3592.5018
 Red. masses --      1.0929                 1.0926                 1.0784
 Frc consts  --      6.5722                 6.7299                 8.2001
 IR Inten    --     13.4463                 1.7313                83.6879

 - Thermochemistry -
 -------------------
 Temperature   298.150 Kelvin.  Pressure   1.00000 Atm.
 Atom     1 has atomic number  6 and mass  12.00000

 Molecular mass:   218.02623 amu.
 Principal axes and moments of inertia in atomic units:
                           1         2         3
     Eigenvalues --  1911.543144558.708086458.84677
           X            0.99978   0.02119   0.00000
           Y           -0.02119   0.99978   0.00001
           Z           -0.00000  -0.00001   1.00000
 This molecule is an asymmetric top.
 Rotational symmetry number  1.
 Warning -- assumption of classical behavior for rotation
           may cause significant error
 Rotational temperatures (Kelvin)      0.04531     0.01900     0.01341
 Rotational constants (GHZ):           0.94413     0.39589     0.27942
 Zero-point vibrational energy     380420.1 (Joules/Mol)
                                   90.92258 (Kcal/Mol)
 Warning -- explicit consideration of  19 degrees of freedom as
           vibrations may cause significant error
 Vibrational temperatures:     80.39   115.37   145.72   171.79   211.09
          (Kelvin)            219.04   232.30   339.66   367.70   385.82
                              510.42   547.21   593.72   601.23   719.75
                              747.94   807.51   813.23   865.34   913.87
                              945.52  1013.58  1031.08  1039.58  1081.85
                             1133.02  1172.40  1324.55  1380.02  1403.40
                             1437.40  1451.48  1462.47  1619.40  1664.59
                             1737.54  1801.01  1847.06  1932.80  1995.11
                             2027.42  2053.34  2119.78  2137.25  2138.96
                             2156.91  2239.65  2360.73  2405.09  2603.19
                             3378.67  4441.77  4575.76  4589.15  4596.57
                             4652.06  5168.81

 Zero-point correction=                           0.144894 (Hartree/Particle)
 Thermal correction to Energy=                    0.157573
 Thermal correction to Enthalpy=                  0.158517
 Thermal correction to Gibbs Free Energy=         0.105068
 Sum of electronic and zero-point Energies=          -1038.907057
 Sum of electronic and thermal Energies=             -1038.894379
 Sum of electronic and thermal Enthalpies=           -1038.893435
 Sum of electronic and thermal Free Energies=        -1038.946884

                     E (Thermal)             CV                S
                      KCal/Mol        Cal/Mol-Kelvin    Cal/Mol-Kelvin
 Total                   98.878             47.071            112.493
 Electronic               0.000              0.000              0.000
 Translational            0.889              2.981             42.041
 Rotational               0.889              2.981             32.398
 Vibrational             97.101             41.109             38.054
 Vibration     1          0.596              1.975              4.598
 Vibration     2          0.600              1.963              3.886
 Vibration     3          0.604              1.948              3.429
 Vibration     4          0.609              1.933              3.110
 Vibration     5          0.617              1.906              2.714
 Vibration     6          0.619              1.900              2.644
 Vibration     7          0.622              1.890              2.533
 Vibration     8          0.655              1.786              1.832
 Vibration     9          0.666              1.753              1.692
 Vibration    10          0.673              1.732              1.608
 Vibration    11          0.731              1.565              1.145
 Vibration    12          0.750              1.512              1.038
 Vibration    13          0.776              1.443              0.917
 Vibration    14          0.781              1.431              0.899
 Vibration    15          0.856              1.249              0.657
 Vibration    16          0.875              1.206              0.610
 Vibration    17          0.917              1.115              0.521
 Vibration    18          0.921              1.107              0.514
 Vibration    19          0.960              1.029              0.447

 Optimization completed.
    -- Stationary point found.
 Normal termination of Gaussian 16 at Thu Dec 10 14:54:11 2020.

 ----------------------------------------------------------------------
 # B3LYP/6-311++G(d,p) empiricaldispersion=gd3bj scf=xqc pop=npa geom=c
 heck
 ----------------------------------------------------------------------

 ---------------------------------------
 CID_135459508_JID_5209_Energie_neutraal
 ---------------------------------------
 Structure from the checkpoint file:  "JID_5209.chk"
 Charge =  0 Multiplicity = 1

 SCF Done:  E(RB3LYP) =  -1039.24943105     A.U. after   17 cycles
 Normal termination of Gaussian 16 at Thu Dec 10 14:57:14 2020.

 ----------------------------------------------------------------------
 # B3LYP/6-311++G(d,p) empiricaldispersion=gd3bj scf=xqc pop=npa geom=c
 heck
 ----------------------------------------------------------------------

 -------------------------------------
 CID_135459508_JID_5209_Energie_kation
 -------------------------------------
 Structure from the checkpoint file:  "JID_5209.chk"
 Charge =  1 Multiplicity = 2

 SCF Done:  E(UB3LYP) =  -1038.93505136     A.U. after   25 cycles
 Normal termination of Gaussian 16 at Thu Dec 10 15:03:36 2020.
 Gaussian 16:  ES64L-G16RevA.03 25-Dec-2016

 ----------------------------------------------------------------------
 # B3LYP/6-311++G(d,p) empiricaldispersion=gd3bj scf=xqc pop=npa geom=c
 heck
 ----------------------------------------------------------------------

 ------------------------------------
 CID_135459508_JID_5209_Energie_anion
 ------------------------------------
 Structure from the checkpoint file:  "JID_5209.chk"
 Charge = -1 Multiplicity = 2

                         Standard orientation:
 ---------------------------------------------------------------------
 Center     Atomic      Atomic             Coordinates (Angstroms)
 Number     Number       Type             X           Y           Z
 ---------------------------------------------------------------------
      1          6           0       -2.956084   -2.401461   -0.000318
      2         16           0       -3.041222   -0.579906   -0.000326
      3          6           0       -1.323104   -0.181694   -0.000063
      4          7           0       -0.437830   -1.165973    0.000195
      5          6           0        0.874912   -0.869324    0.000419
      6          6           0        1.340080    0.468531    0.000204
      7          6           0        0.405177    1.508215    0.000259
      8          6           0       -0.947115    1.201399    0.000159
      9          6           0       -1.935380    2.231131    0.000220
     10          7           0       -2.745934    3.065675    0.000355
     11          6           0        2.774074    0.757050   -0.000054
     12          8           0        3.299924    1.857783   -0.000768
     13          7           0        3.543232   -0.420778   -0.000257
     14          6           0        3.003198   -1.676852    0.000206
     15          7           0        1.739402   -1.949676    0.000605
     16          1           0       -3.993679   -2.743423   -0.001040
     17          1           0       -2.438525   -2.759808    0.890104
     18          1           0       -2.437338   -2.760022   -0.889985
     19          1           0        0.750472    2.536482    0.000212
     20          1           0        4.548994   -0.291605   -0.000702
     21          1           0        3.723605   -2.492093    0.000303
 ---------------------------------------------------------------------

 SCF Done:  E(UB3LYP) =  -1039.29046272     A.U. after   24 cycles

 The electronic state is 2-A.
 Alpha  occ. eigenvalues --  -88.74383 -18.97536 -14.24910 -14.17611 -14.17244
 Alpha  occ. eigenvalues --  -14.16779 -10.15970 -10.12670 -10.11298 -10.10377
 Alpha  occ. eigenvalues --  -10.09139 -10.07013 -10.06473 -10.05808 -10.05098
 Alpha  occ. eigenvalues --   -7.83038  -5.79429  -5.79002  -5.78462  -0.93156
 Alpha  occ. eigenvalues --   -0.86510  -0.82881  -0.77211  -0.76402  -0.69592
 Alpha  occ. eigenvalues --   -0.68861  -0.64600  -0.57521  -0.56268  -0.51893
 Alpha  occ. eigenvalues --   -0.49371  -0.46135  -0.42591  -0.41945  -0.39265
 Alpha  occ. eigenvalues --   -0.34571  -0.34088  -0.33977  -0.32654  -0.31725
 Alpha  occ. eigenvalues --   -0.30588  -0.28965  -0.28884  -0.26551  -0.25689
 Alpha  occ. eigenvalues --   -0.23414  -0.22914  -0.22702  -0.20138  -0.19116
 Alpha  occ. eigenvalues --   -0.16825  -0.16808  -0.14814  -0.13479  -0.13221
 Alpha  occ. eigenvalues --   -0.10680   0.01747
 Alpha virt. eigenvalues --    0.07113   0.07418   0.07890   0.10642   0.11451
 Alpha virt. eigenvalues --    0.11729   0.12104   0.12387   0.13222   0.13678
 Alpha virt. eigenvalues --    0.14458   0.14568   0.14859   0.15801   0.16127

  Beta  occ. eigenvalues --  -88.74385 -18.97495 -14.24904 -14.17697 -14.17042
  Beta  occ. eigenvalues --  -14.16531 -10.15906 -10.12728 -10.10826 -10.10086
  Beta  occ. eigenvalues --  -10.09138 -10.07041 -10.06203 -10.05899 -10.04746
  Beta  occ. eigenvalues --   -7.83041  -5.79431  -5.79004  -5.78470  -0.93033
  Beta  occ. eigenvalues --   -0.86198  -0.82535  -0.76926  -0.76171  -0.69413
  Beta  occ. eigenvalues --   -0.68355  -0.64312  -0.57363  -0.55575  -0.51695
  Beta  occ. eigenvalues --   -0.48887  -0.45948  -0.42364  -0.41770  -0.39084
  Beta  occ. eigenvalues --   -0.34505  -0.33808  -0.33291  -0.32546  -0.31573
  Beta  occ. eigenvalues --   -0.30491  -0.28746  -0.28023  -0.26430  -0.24645
  Beta  occ. eigenvalues --   -0.23073  -0.22625  -0.21806  -0.20004  -0.18576
  Beta  occ. eigenvalues --   -0.16724  -0.15550  -0.14811  -0.13298  -0.12528
  Beta  occ. eigenvalues --   -0.09766
  Beta virt. eigenvalues --    0.07386   0.07598   0.07845   0.07892   0.10604
  Beta virt. eigenvalues --    0.11445   0.11724   0.12371   0.13220   0.13521
  Beta virt. eigenvalues --    0.13733   0.14569   0.14952   0.15786   0.15884

 Mulliken charges and spin densities:
               1          2
     1  C   -0.484260   0.000586
     2  S   -0.473100  -0.003561
     3  C   -0.537999  -0.069619
     4  N    0.153241   0.095152
     5  C   -0.850455   0.177751
     6  C    0.940361  -0.058181
     7  C   -0.014429   0.295197
     8  C    1.766926   0.215647
     9  C   -1.675279  -0.058696
    10  N   -0.275808   0.128321
    11  C    0.012012   0.046598
    12  O   -0.397915   0.021107
    13  N   -0.288491  -0.017670
    14  C    0.089247   0.343559
    15  N   -0.155929  -0.063726
    16  H    0.118141  -0.000166
    17  H    0.204228  -0.000440
    18  H    0.204223  -0.000439
    19  H    0.188120  -0.022917
    20  H    0.321944   0.000066
    21  H    0.155221  -0.028570
 Sum of Mulliken charges =  -1.00000   1.00000

 Dipole moment (field-independent basis, Debye):
    X=              2.2896    Y=             -5.7459    Z=             -0.0006  Tot=              6.1853
 Quadrupole moment (field-independent basis, Debye-Ang):
   XX=           -122.6836   YY=           -130.6322   ZZ=            -98.8899
   XY=             10.1706   XZ=              0.0031   YZ=              0.0050

 Summary of Natural Population Analysis:

                                       Natural Population
                Natural  -----------------------------------------------
    Atom  No    Charge         Core      Valence    Rydberg      Total
 -----------------------------------------------------------------------
      C    1   -0.34836      0.99962     2.34317    0.00557     3.34836
      S    2    0.12781      4.99953     2.85144    0.02122     7.87219
      C    3    0.05277      0.99949     1.92866    0.01908     2.94723
      N    4   -0.23476      0.99961     2.72208    0.01307     3.73476
      C    5    0.24970      0.99948     1.73507    0.01575     2.75030
      C    6   -0.12998      0.99944     2.12227    0.00827     3.12998
      C    7    0.03219      0.99952     1.96034    0.00795     2.96781
      C    8   -0.08706      0.99936     2.07693    0.01076     3.08706
      C    9    0.14091      0.99965     1.84107    0.01838     2.85909
      N   10   -0.16073      0.99979     2.64971    0.01123     3.66073
      C   11    0.33904      0.99961     1.63953    0.02182     2.66096
      O   12   -0.32581      0.99988     3.31932    0.00662     4.32581
      N   13   -0.30455      0.99967     2.79789    0.00700     3.80455
      C   14    0.23464      0.99968     1.74890    0.01678     2.76536
      N   15   -0.27618      0.99968     2.76531    0.01119     3.77618
      H   16    0.09767      0.00000     0.40134    0.00098     0.40233
      H   17    0.10964      0.00000     0.38915    0.00121     0.39036
      H   18    0.10966      0.00000     0.38913    0.00121     0.39034
      H   19    0.10717      0.00000     0.39182    0.00102     0.39283
      H   20    0.19448      0.00000     0.30285    0.00267     0.30552
      H   21    0.07177      0.00000     0.42697    0.00126     0.42823
 =======================================================================
   * Total *   -0.00000     18.99401    36.80296    0.20303    56.00000

 Normal termination of Gaussian 16 at Thu Dec 10 15:10:01 2020.
