 Gaussian 16, Revision A.03,

 -----------------------------------------------------------
 # opt freq B3LYP/6-31G(d) empiricaldispersion=gd3bj scf=xqc
 -----------------------------------------------------------

 ------------------------------
 CID_58297712_JID_4263_neutraal
 ------------------------------
 Symbolic Z-matrix:
 Charge =  0 Multiplicity = 1

 SCF Done:  E(RB3LYP) =  -647.084428058     A.U. after   15 cycles
 SCF Done:  E(RB3LYP) =  -647.089380521     A.U. after   13 cycles
 SCF Done:  E(RB3LYP) =  -647.090320559     A.U. after   13 cycles
 SCF Done:  E(RB3LYP) =  -647.091261117     A.U. after   13 cycles
 SCF Done:  E(RB3LYP) =  -647.093216358     A.U. after   13 cycles
 SCF Done:  E(RB3LYP) =  -647.093639918     A.U. after   13 cycles
 SCF Done:  E(RB3LYP) =  -647.093669271     A.U. after   11 cycles
 SCF Done:  E(RB3LYP) =  -647.093730349     A.U. after   11 cycles
 SCF Done:  E(RB3LYP) =  -647.093735287     A.U. after   10 cycles
 SCF Done:  E(RB3LYP) =  -647.093735690     A.U. after    8 cycles
 Optimization completed.
    -- Stationary point found.
 Normal termination of Gaussian 16 at Thu Dec 10 09:19:10 2020.

 --------------------------------------------------------------------
 #N Geom=AllCheck Guess=TCheck SCRF=Check GenChk RB3LYP/6-31G(d) Freq
 --------------------------------------------------------------------

 Structure from the checkpoint file:  "JID_4263.chk"
 ------------------------------
 CID_58297712_JID_4263_neutraal
 ------------------------------
 Charge =  0 Multiplicity = 1

 SCF Done:  E(RB3LYP) =  -647.093735690     A.U. after    1 cycles

  Exact polarizability: 147.552   4.130 157.861  -3.823 -11.656  62.315
 Approx polarizability: 244.550   1.445 282.534 -13.426 -34.511 102.515

                      1                      2                      3
                      A                      A                      A
 Frequencies --     63.8872                73.4703               120.8403
 Red. masses --      4.9194                 6.3680                 3.2717
 Frc consts  --      0.0118                 0.0203                 0.0281
 IR Inten    --      0.5515                 2.2860                 0.0735

                      4                      5                      6
                      A                      A                      A
 Frequencies --    141.0571               190.7744               207.6779
 Red. masses --      4.5316                 1.7009                 2.0306
 Frc consts  --      0.0531                 0.0365                 0.0516
 IR Inten    --      0.2940                 0.4466                 1.2690

                      7                      8                      9
                      A                      A                      A
 Frequencies --    229.9119               240.4843               329.8614
 Red. masses --      3.9340                 4.8414                 2.7758
 Frc consts  --      0.1225                 0.1650                 0.1779
 IR Inten    --      1.8322                 1.2464                 1.8085

                     10                     11                     12
                      A                      A                      A
 Frequencies --    349.5031               407.5270               417.1651
 Red. masses --      6.9747                 3.9605                 4.7870
 Frc consts  --      0.5020                 0.3875                 0.4908
 IR Inten    --      4.1565                 0.6073                 0.1463

                     13                     14                     15
                      A                      A                      A
 Frequencies --    493.1532               528.3906               572.6830
 Red. masses --      3.7386                 4.7674                 2.7813
 Frc consts  --      0.5357                 0.7842                 0.5374
 IR Inten    --      1.7954                 2.6514                19.7925

                     16                     17                     18
                      A                      A                      A
 Frequencies --    583.5460               625.6603               643.4265
 Red. masses --      4.3694                 1.8392                 3.4474
 Frc consts  --      0.8766                 0.4242                 0.8409
 IR Inten    --      2.9721                63.9067                25.6120

                     19                     20                     21
                      A                      A                      A
 Frequencies --    674.9969               690.5376               720.4351
 Red. masses --      4.0967                 4.2490                 4.6833
 Frc consts  --      1.0997                 1.1938                 1.4322
 IR Inten    --      2.0094                26.9493                 8.3450

                     22                     23                     24
                      A                      A                      A
 Frequencies --    740.9811               764.3795               799.6448
 Red. masses --      3.5290                 3.7082                 1.2698
 Frc consts  --      1.1416                 1.2765                 0.4784
 IR Inten    --      2.5747                73.9529                 4.7982

                     25                     26                     27
                      A                      A                      A
 Frequencies --    807.1394               862.8247               880.2246
 Red. masses --      1.8831                 4.0232                 1.3734
 Frc consts  --      0.7228                 1.7647                 0.6270
 IR Inten    --     15.1907                 6.5979                11.0075

                     28                     29                     30
                      A                      A                      A
 Frequencies --    923.2248               966.6436               975.8486
 Red. masses --      1.3679                 2.7103                 1.3317
 Frc consts  --      0.6870                 1.4921                 0.7472
 IR Inten    --      0.3543                 5.5656                 0.7504

                     31                     32                     33
                      A                      A                      A
 Frequencies --    985.0237              1061.1088              1092.8934
 Red. masses --      4.4541                 2.8628                 2.0887
 Frc consts  --      2.5463                 1.8992                 1.4699
 IR Inten    --      2.2777                13.6842                 7.1850

                     34                     35                     36
                      A                      A                      A
 Frequencies --   1102.0984              1119.6966              1160.2618
 Red. masses --      1.6317                 2.0876                 1.8452
 Frc consts  --      1.1677                 1.5421                 1.4635
 IR Inten    --      2.5906                70.0645               197.8830

                     37                     38                     39
                      A                      A                      A
 Frequencies --   1188.3428              1206.1254              1254.2801
 Red. masses --      1.9894                 1.6874                 1.7898
 Frc consts  --      1.6553                 1.4463                 1.6590
 IR Inten    --    202.4547                76.1450                20.2080

                     40                     41                     42
                      A                      A                      A
 Frequencies --   1297.9248              1303.7126              1331.7217
 Red. masses --      1.4443                 2.1969                 3.5970
 Frc consts  --      1.4336                 2.2000                 3.7586
 IR Inten    --      0.6669                21.1428                43.9576

                     43                     44                     45
                      A                      A                      A
 Frequencies --   1372.9029              1391.7936              1408.3103
 Red. masses --      1.6610                 1.9308                 2.7981
 Frc consts  --      1.8446                 2.2036                 3.2697
 IR Inten    --      5.0853                43.5172                 2.8061

                     46                     47                     48
                      A                      A                      A
 Frequencies --   1418.4175              1441.0121              1466.2818
 Red. masses --      2.9756                 1.2347                 4.8243
 Frc consts  --      3.5272                 1.5106                 6.1112
 IR Inten    --     57.7825                 2.0792                 8.3559

                     49                     50                     51
                      A                      A                      A
 Frequencies --   1509.1427              1527.8934              1528.6382
 Red. masses --      1.1846                 1.0889                 1.6364
 Frc consts  --      1.5895                 1.4977                 2.2530
 IR Inten    --     11.4831                12.7502                 5.5938

                     52                     53                     54
                      A                      A                      A
 Frequencies --   1538.6872              1573.5563              1576.9540
 Red. masses --      1.6622                 4.8949                 4.6194
 Frc consts  --      2.3186                 7.1410                 6.7682
 IR Inten    --     10.9586                 5.6730                18.0102

                     55                     56                     57
                      A                      A                      A
 Frequencies --   1684.2681              1812.3250              3057.1201
 Red. masses --      6.7365                 9.5044                 1.0350
 Frc consts  --     11.2591                18.3928                 5.6995
 IR Inten    --      7.8725               250.7349                24.4046

                     58                     59                     60
                      A                      A                      A
 Frequencies --   3067.4076              3118.5878              3126.2596
 Red. masses --      1.0681                 1.0977                 1.1021
 Frc consts  --      5.9212                 6.2897                 6.3463
 IR Inten    --     21.0871                 7.5280                41.2431

                     61                     62                     63
                      A                      A                      A
 Frequencies --   3138.0409              3218.0160              3237.8578
 Red. masses --      1.0994                 1.0883                 1.0946
 Frc consts  --      6.3785                 6.6399                 6.7611
 IR Inten    --     19.6753                 4.6134                 3.8452

                     64                     65                     66
                      A                      A                      A
 Frequencies --   3243.4865              3251.8761              3692.5178
 Red. masses --      1.0960                 1.0928                 1.0641
 Frc consts  --      6.7933                 6.8085                 8.5481
 IR Inten    --     12.1213                 0.4894                82.9972

 - Thermochemistry -
 -------------------
 Temperature   298.150 Kelvin.  Pressure   1.00000 Atm.
 Atom     1 has atomic number  6 and mass  12.00000

 Molecular mass:   190.07423 amu.
 Principal axes and moments of inertia in atomic units:
                           1         2         3
     Eigenvalues --  1962.536412310.646423835.60086
           X            0.98311   0.18266   0.01141
           Y           -0.18275   0.98314   0.00699
           Z           -0.00994  -0.00896   0.99991
 This molecule is an asymmetric top.
 Rotational symmetry number  1.
 Warning -- assumption of classical behavior for rotation
           may cause significant error
 Rotational temperatures (Kelvin)      0.04413     0.03748     0.02258
 Rotational constants (GHZ):           0.91960     0.78105     0.47052
 Zero-point vibrational energy     499623.0 (Joules/Mol)
                                  119.41276 (Kcal/Mol)
 Warning -- explicit consideration of  16 degrees of freedom as
           vibrations may cause significant error
 Vibrational temperatures:     91.92   105.71   173.86   202.95   274.48
          (Kelvin)            298.80   330.79   346.00   474.60   502.86
                              586.34   600.21   709.54   760.24   823.96
                              839.59   900.19   925.75   971.17   993.53
                             1036.55  1066.11  1099.77  1150.51  1161.29
                             1241.41  1266.45  1328.31  1390.78  1404.03
                             1417.23  1526.70  1572.43  1585.67  1610.99
                             1669.36  1709.76  1735.35  1804.63  1867.42
                             1875.75  1916.05  1975.30  2002.48  2026.24
                             2040.79  2073.29  2109.65  2171.32  2198.30
                             2199.37  2213.83  2264.00  2268.89  2423.29
                             2607.53  4398.51  4413.32  4486.95  4497.99
                             4514.94  4630.01  4658.56  4666.65  4678.72
                             5312.71

 Zero-point correction=                           0.190296 (Hartree/Particle)
 Thermal correction to Energy=                    0.201868
 Thermal correction to Enthalpy=                  0.202812
 Thermal correction to Gibbs Free Energy=         0.152610
 Sum of electronic and zero-point Energies=           -646.903439
 Sum of electronic and thermal Energies=              -646.891868
 Sum of electronic and thermal Enthalpies=            -646.890924
 Sum of electronic and thermal Free Energies=         -646.941126

                     E (Thermal)             CV                S
                      KCal/Mol        Cal/Mol-Kelvin    Cal/Mol-Kelvin
 Total                  126.674             45.085            105.659
 Electronic               0.000              0.000              0.000
 Translational            0.889              2.981             41.632
 Rotational               0.889              2.981             31.231
 Vibrational            124.896             39.123             32.795
 Vibration     1          0.597              1.972              4.333
 Vibration     2          0.599              1.967              4.058
 Vibration     3          0.609              1.932              3.087
 Vibration     4          0.615              1.912              2.789
 Vibration     5          0.634              1.853              2.220
 Vibration     6          0.641              1.829              2.064
 Vibration     7          0.652              1.795              1.880
 Vibration     8          0.658              1.778              1.799
 Vibration     9          0.713              1.616              1.261
 Vibration    10          0.727              1.576              1.168
 Vibration    11          0.772              1.454              0.935
 Vibration    12          0.780              1.433              0.902
 Vibration    13          0.849              1.265              0.675
 Vibration    14          0.883              1.187              0.591
 Vibration    15          0.929              1.090              0.499
 Vibration    16          0.940              1.067              0.479

                           ! Non-Optimized Parameters !
 Normal termination of Gaussian 16 at Thu Dec 10 09:26:01 2020.

 ----------------------------------------------------------------------
 # B3LYP/6-311++G(d,p) empiricaldispersion=gd3bj scf=xqc pop=npa geom=c
 heck
 ----------------------------------------------------------------------

 --------------------------------------
 CID_58297712_JID_4263_Energie_neutraal
 --------------------------------------
 Structure from the checkpoint file:  "JID_4263.chk"
 Charge =  0 Multiplicity = 1

 SCF Done:  E(RB3LYP) =  -647.274931798     A.U. after   16 cycles
 Normal termination of Gaussian 16 at Thu Dec 10 09:28:51 2020.

 ----------------------------------------------------------------------
 # B3LYP/6-311++G(d,p) empiricaldispersion=gd3bj scf=xqc pop=npa geom=c
 heck
 ----------------------------------------------------------------------

 ------------------------------------
 CID_58297712_JID_4263_Energie_kation
 ------------------------------------
 Structure from the checkpoint file:  "JID_4263.chk"
 Charge =  1 Multiplicity = 2

 SCF Done:  E(UB3LYP) =  -646.987281716     A.U. after   21 cycles
 Normal termination of Gaussian 16 at Thu Dec 10 09:34:14 2020.
 Gaussian 16:  ES64L-G16RevA.03 25-Dec-2016

 ----------------------------------------------------------------------
 # B3LYP/6-311++G(d,p) empiricaldispersion=gd3bj scf=xqc pop=npa geom=c
 heck
 ----------------------------------------------------------------------

 -----------------------------------
 CID_58297712_JID_4263_Energie_anion
 -----------------------------------
 Structure from the checkpoint file:  "JID_4263.chk"
 Charge = -1 Multiplicity = 2

                         Standard orientation:
 ---------------------------------------------------------------------
 Center     Atomic      Atomic             Coordinates (Angstroms)
 Number     Number       Type             X           Y           Z
 ---------------------------------------------------------------------
      1          6           0        1.882046    1.869200    1.273307
      2          6           0        1.235699    2.125855   -0.099971
      3          6           0       -0.133736    1.541723   -0.226401
      4          6           0       -1.341549    2.224422   -0.297968
      5          7           0       -2.423537    1.412363   -0.211126
      6          6           0       -1.922851    0.187784   -0.081793
      7          7           0       -0.498882    0.207140   -0.111961
      8          6           0        0.212152   -0.982198   -0.001426
      9          6           0       -0.472158   -2.149000    0.264800
     10          6           0       -1.882272   -2.182512    0.343381
     11          6           0       -2.597153   -1.025317    0.140152
     12          6           0        1.637971   -1.045985   -0.383289
     13          8           0        2.180711   -0.360288   -1.226822
     14          8           0        2.295219   -2.034837    0.276541
     15          1           0        1.264470    2.282489    2.077601
     16          1           0        2.871085    2.336912    1.321351
     17          1           0        2.013443    0.800755    1.473732
     18          1           0        1.123809    3.206779   -0.243376
     19          1           0        1.895449    1.759254   -0.889511
     20          1           0       -1.448361    3.298721   -0.386860
     21          1           0        0.104931   -3.060356    0.353589
     22          1           0       -2.388737   -3.122390    0.533273
     23          1           0       -3.680587   -0.995296    0.160977
     24          1           0        3.185094   -2.066228   -0.121662
 ---------------------------------------------------------------------

 SCF Done:  E(UB3LYP) =  -647.296382517     A.U. after   23 cycles

 The electronic state is 2-A.
 Alpha  occ. eigenvalues --  -19.02538 -18.95111 -14.22888 -14.14045 -10.13693
 Alpha  occ. eigenvalues --  -10.07800 -10.05763 -10.05670 -10.04594 -10.04204
 Alpha  occ. eigenvalues --  -10.03962 -10.02657 -10.02074 -10.01234  -0.96222
 Alpha  occ. eigenvalues --   -0.87484  -0.86544  -0.75319  -0.68586  -0.64737
 Alpha  occ. eigenvalues --   -0.61526  -0.58238  -0.52453  -0.49814  -0.48388
 Alpha  occ. eigenvalues --   -0.46243  -0.42861  -0.36840  -0.36194  -0.34487
 Alpha  occ. eigenvalues --   -0.33708  -0.33385  -0.31768  -0.31386  -0.30282
 Alpha  occ. eigenvalues --   -0.28852  -0.27014  -0.25977  -0.25534  -0.24184
 Alpha  occ. eigenvalues --   -0.23542  -0.22468  -0.21963  -0.19393  -0.18374
 Alpha  occ. eigenvalues --   -0.16939  -0.13782  -0.12838  -0.10097  -0.06542
 Alpha  occ. eigenvalues --    0.03964
 Alpha virt. eigenvalues --    0.08620   0.09400   0.09970   0.10745   0.11802
 Alpha virt. eigenvalues --    0.11992   0.13586   0.13909   0.14138   0.14398
 Alpha virt. eigenvalues --    0.15234   0.15851   0.16833   0.17859   0.18004

  Beta  occ. eigenvalues --  -19.02472 -18.94782 -14.22680 -14.13944 -10.13428
  Beta  occ. eigenvalues --  -10.07880 -10.05790 -10.05431 -10.04591 -10.04192
  Beta  occ. eigenvalues --  -10.03893 -10.02683 -10.01880 -10.00797  -0.95905
  Beta  occ. eigenvalues --   -0.87158  -0.86106  -0.75012  -0.68284  -0.64542
  Beta  occ. eigenvalues --   -0.60869  -0.58065  -0.51905  -0.49585  -0.48105
  Beta  occ. eigenvalues --   -0.46091  -0.42641  -0.36484  -0.35872  -0.34305
  Beta  occ. eigenvalues --   -0.33361  -0.33127  -0.31589  -0.30766  -0.29923
  Beta  occ. eigenvalues --   -0.28241  -0.26757  -0.25763  -0.25425  -0.24075
  Beta  occ. eigenvalues --   -0.23386  -0.22358  -0.21741  -0.18497  -0.17057
  Beta  occ. eigenvalues --   -0.15673  -0.13503  -0.12610  -0.08739  -0.05490
  Beta virt. eigenvalues --    0.08547   0.09367   0.09922   0.10156   0.10720
  Beta virt. eigenvalues --    0.11805   0.11972   0.13623   0.14021   0.14157
  Beta virt. eigenvalues --    0.14547   0.15327   0.16410   0.17246   0.17948

 Mulliken charges and spin densities:
               1          2
     1  C   -0.416987  -0.058029
     2  C   -0.683902   0.082122
     3  C    0.525145  -0.004758
     4  C   -0.301141   0.058911
     5  N   -0.139577   0.042611
     6  C    0.067960  -0.092100
     7  N    0.239749   0.046075
     8  C    0.202390   0.136937
     9  C   -0.401735   0.213665
    10  C   -0.472311  -0.010382
    11  C   -0.298110   0.327822
    12  C   -0.314459   0.143972
    13  O   -0.331037   0.111982
    14  O   -0.144817   0.007647
    15  H    0.100615   0.022437
    16  H    0.080747   0.004321
    17  H    0.204985  -0.010501
    18  H    0.129352  -0.001861
    19  H    0.207333   0.000395
    20  H    0.111158  -0.003456
    21  H    0.154628  -0.002269
    22  H    0.114500   0.000658
    23  H    0.129604  -0.025125
    24  H    0.235912   0.008927
 Sum of Mulliken charges =  -1.00000   1.00000

 Dipole moment (field-independent basis, Debye):
    X=              3.2506    Y=             -0.0261    Z=              1.2620  Tot=              3.4871
 Quadrupole moment (field-independent basis, Debye-Ang):
   XX=           -109.0963   YY=            -96.6768   ZZ=            -95.7863
   XY=              3.8228   XZ=              2.0749   YZ=              1.2961

 Summary of Natural Population Analysis:

                                       Natural Population
                Natural  -----------------------------------------------
    Atom  No    Charge         Core      Valence    Rydberg      Total
 -----------------------------------------------------------------------
      C    1   -0.28116      0.99967     2.27722    0.00427     3.28116
      C    2   -0.20777      0.99961     2.20082    0.00734     3.20777
      C    3    0.04660      0.99953     1.94274    0.01113     2.95340
      C    4   -0.01017      0.99954     1.99682    0.01381     3.01017
      N    5   -0.26221      0.99970     2.74670    0.01581     3.76221
      C    6    0.16325      0.99958     1.82248    0.01468     2.83675
      N    7   -0.15650      0.99958     2.64801    0.00891     3.65650
      C    8    0.07130      0.99944     1.91746    0.01180     2.92870
      C    9   -0.06885      0.99955     2.06115    0.00815     3.06885
      C   10   -0.12527      0.99958     2.11577    0.00991     3.12527
      C   11   -0.02627      0.99952     2.01789    0.00886     3.02627
      C   12    0.41382      0.99966     1.56094    0.02558     2.58618
      O   13   -0.29949      0.99987     3.29277    0.00685     4.29949
      O   14   -0.35228      0.99988     3.34509    0.00731     4.35228
      H   15    0.09248      0.00000     0.40640    0.00111     0.40752
      H   16    0.08892      0.00000     0.40999    0.00109     0.41108
      H   17    0.10284      0.00000     0.39619    0.00096     0.39716
      H   18    0.09238      0.00000     0.40630    0.00131     0.40762
      H   19    0.11886      0.00000     0.37979    0.00135     0.38114
      H   20    0.08444      0.00000     0.41439    0.00117     0.41556
      H   21    0.10151      0.00000     0.39751    0.00098     0.39849
      H   22    0.09086      0.00000     0.40808    0.00106     0.40914
      H   23    0.09447      0.00000     0.40416    0.00137     0.40553
      H   24    0.22823      0.00000     0.26719    0.00458     0.27177
 =======================================================================
   * Total *   -0.00000     13.99470    35.83589    0.16940    50.00000

 Normal termination of Gaussian 16 at Thu Dec 10 09:40:11 2020.
