 Gaussian 16, Revision A.03,

 -----------------------------------------------------------
 # opt freq B3LYP/6-31G(d) empiricaldispersion=gd3bj scf=xqc
 -----------------------------------------------------------

 -------------------------------
 CID_118989969_JID_4188_neutraal
 -------------------------------
 Symbolic Z-matrix:
 Charge =  0 Multiplicity = 1

 SCF Done:  E(RB3LYP) =  -697.714016408     A.U. after   17 cycles
 SCF Done:  E(RB3LYP) =  -697.712019039     A.U. after   16 cycles
 SCF Done:  E(RB3LYP) =  -697.716134885     A.U. after   15 cycles
 SCF Done:  E(RB3LYP) =  -697.717359709     A.U. after   14 cycles
 SCF Done:  E(RB3LYP) =  -697.717793261     A.U. after   14 cycles
 SCF Done:  E(RB3LYP) =  -697.718102247     A.U. after   15 cycles
 SCF Done:  E(RB3LYP) =  -697.718321479     A.U. after   14 cycles
 SCF Done:  E(RB3LYP) =  -697.718437245     A.U. after   15 cycles
 SCF Done:  E(RB3LYP) =  -697.718483387     A.U. after   14 cycles
 SCF Done:  E(RB3LYP) =  -697.718501390     A.U. after   13 cycles
 SCF Done:  E(RB3LYP) =  -697.718504318     A.U. after   11 cycles
 SCF Done:  E(RB3LYP) =  -697.718504918     A.U. after    9 cycles
 SCF Done:  E(RB3LYP) =  -697.718505068     A.U. after    9 cycles
 SCF Done:  E(RB3LYP) =  -697.718505126     A.U. after    9 cycles
 Optimization completed.
    -- Stationary point found.
 Normal termination of Gaussian 16 at Thu Dec 10 09:17:49 2020.

 --------------------------------------------------------------------
 #N Geom=AllCheck Guess=TCheck SCRF=Check GenChk RB3LYP/6-31G(d) Freq
 --------------------------------------------------------------------

 Structure from the checkpoint file:  "JID_4188.chk"
 -------------------------------
 CID_118989969_JID_4188_neutraal
 -------------------------------
 Charge =  0 Multiplicity = 1

 SCF Done:  E(RB3LYP) =  -697.718505126     A.U. after    1 cycles

  Exact polarizability: 159.083  -1.594 115.592  -0.954   5.002  56.114
 Approx polarizability: 260.007  -6.603 207.117  -4.892  15.265  99.171

                      1                      2                      3
                      A                      A                      A
 Frequencies --     27.2909                76.8836                84.3772
 Red. masses --      7.0997                 9.1325                 7.7769
 Frc consts  --      0.0031                 0.0318                 0.0326
 IR Inten    --      6.9452                 6.0142                 6.6776

                      4                      5                      6
                      A                      A                      A
 Frequencies --    114.3714               120.6130               161.6883
 Red. masses --      4.8074                10.5979                 9.7466
 Frc consts  --      0.0371                 0.0908                 0.1501
 IR Inten    --      5.2942                 5.0484                 4.5581

                      7                      8                      9
                      A                      A                      A
 Frequencies --    210.3746               266.2637               318.5860
 Red. masses --      8.4124                 6.6378                 7.2904
 Frc consts  --      0.2194                 0.2773                 0.4360
 IR Inten    --      2.6083                 0.0179                 2.7324

                     10                     11                     12
                      A                      A                      A
 Frequencies --    345.8948               364.1846               405.8746
 Red. masses --      5.2535                 7.8603                 5.3823
 Frc consts  --      0.3703                 0.6142                 0.5224
 IR Inten    --      2.8748                 6.8082                 1.3600

                     13                     14                     15
                      A                      A                      A
 Frequencies --    445.6339               501.7383               532.8619
 Red. masses --      1.2254                 5.0307                 4.9013
 Frc consts  --      0.1434                 0.7462                 0.8200
 IR Inten    --    129.7885                 4.0591                14.9356

                     16                     17                     18
                      A                      A                      A
 Frequencies --    539.5331               577.5912               604.7354
 Red. masses --      2.1813                 5.4048                 2.6121
 Frc consts  --      0.3741                 1.0624                 0.5628
 IR Inten    --     46.0368                14.2125                51.2778

                     19                     20                     21
                      A                      A                      A
 Frequencies --    622.8993               660.8200               707.2468
 Red. masses --      3.6660                 5.7586                 5.0745
 Frc consts  --      0.8381                 1.4816                 1.4955
 IR Inten    --     11.8601                 7.9809                20.4248

                     22                     23                     24
                      A                      A                      A
 Frequencies --    721.6621               765.0162               781.4121
 Red. masses --      6.1468                 6.0574                 4.7018
 Frc consts  --      1.8861                 2.0887                 1.6915
 IR Inten    --      4.8734                17.5599                10.4198

                     25                     26                     27
                      A                      A                      A
 Frequencies --    846.5144               868.8108               918.6427
 Red. masses --      8.9207                 1.5750                 4.0930
 Frc consts  --      3.7663                 0.7004                 2.0351
 IR Inten    --     48.6701                18.2374                 8.0557

                     28                     29                     30
                      A                      A                      A
 Frequencies --    928.8231               985.7609              1091.6484
 Red. masses --      1.6045                 1.3289                 4.7477
 Frc consts  --      0.8155                 0.7608                 3.3335
 IR Inten    --     12.7866                 0.9194                 5.6020

                     31                     32                     33
                      A                      A                      A
 Frequencies --   1123.1287              1162.0431              1188.3376
 Red. masses --      1.8392                 1.6153                 1.7566
 Frc consts  --      1.3669                 1.2851                 1.4615
 IR Inten    --      3.0455                10.1659                 3.7988

                     34                     35                     36
                      A                      A                      A
 Frequencies --   1236.9172              1301.6594              1358.9717
 Red. masses --      3.7494                 1.5200                 8.7293
 Frc consts  --      3.3798                 1.5173                 9.4984
 IR Inten    --      9.2319                10.7034                 5.0139

                     37                     38                     39
                      A                      A                      A
 Frequencies --   1380.1696              1405.0588              1436.4236
 Red. masses --      3.3969                12.3098                 3.8882
 Frc consts  --      3.8124                14.3182                 4.7267
 IR Inten    --    175.5466               288.6716                20.6673

                     40                     41                     42
                      A                      A                      A
 Frequencies --   1521.3316              1620.0524              1647.3126
 Red. masses --      2.7235                 8.2903                 4.8102
 Frc consts  --      3.7139                12.8196                 7.6908
 IR Inten    --      2.5816                70.8114                98.7557

                     43                     44                     45
                      A                      A                      A
 Frequencies --   1652.4365              1670.6812              1818.5909
 Red. masses --      1.3224                 9.6849                 9.6035
 Frc consts  --      2.1274                15.9269                18.7133
 IR Inten    --     96.3727                83.7052               280.6984

                     46                     47                     48
                      A                      A                      A
 Frequencies --   2357.3796              3227.6625              3231.8387
 Red. masses --     12.6797                 1.0921                 1.0911
 Frc consts  --     41.5162                 6.7035                 6.7146
 IR Inten    --      7.8886                 0.0719                 0.5839

                     49                     50                     51
                      A                      A                      A
 Frequencies --   3254.1320              3565.6866              3685.0519
 Red. masses --      1.0937                 1.0464                 1.1025
 Frc consts  --      6.8239                 7.8388                 8.8210
 IR Inten    --      2.0899                51.8545                31.3428

 - Thermochemistry -
 -------------------
 Temperature   298.150 Kelvin.  Pressure   1.00000 Atm.
 Atom     1 has atomic number  6 and mass  12.00000

 Molecular mass:   191.03309 amu.
 Principal axes and moments of inertia in atomic units:
                           1         2         3
     Eigenvalues --  1623.195283478.764014760.22437
           X            0.99972   0.02313   0.00412
           Y           -0.02319   0.99960   0.01616
           Z           -0.00374  -0.01625   0.99986
 This molecule is an asymmetric top.
 Rotational symmetry number  1.
 Warning -- assumption of classical behavior for rotation
           may cause significant error
 Rotational temperatures (Kelvin)      0.05336     0.02490     0.01820
 Rotational constants (GHZ):           1.11184     0.51879     0.37913
 Zero-point vibrational energy     337601.8 (Joules/Mol)
                                   80.68878 (Kcal/Mol)
 Warning -- explicit consideration of  18 degrees of freedom as
           vibrations may cause significant error
 Vibrational temperatures:     39.27   110.62   121.40   164.55   173.54
          (Kelvin)            232.63   302.68   383.09   458.37   497.67
                              523.98   583.96   641.17   721.89   766.67
                              776.27   831.02   870.08   896.21   950.77
                             1017.57  1038.31  1100.69  1124.28  1217.95
                             1250.03  1321.72  1336.37  1418.29  1570.64
                             1615.93  1671.92  1709.75  1779.65  1872.80
                             1955.26  1985.76  2021.57  2066.69  2188.86
                             2330.89  2370.12  2377.49  2403.74  2616.55
                             3391.74  4643.89  4649.90  4681.97  5130.23
                             5301.97

 Zero-point correction=                           0.128586 (Hartree/Particle)
 Thermal correction to Energy=                    0.140599
 Thermal correction to Enthalpy=                  0.141544
 Thermal correction to Gibbs Free Energy=         0.089028
 Sum of electronic and zero-point Energies=           -697.589919
 Sum of electronic and thermal Energies=              -697.577906
 Sum of electronic and thermal Enthalpies=            -697.576962
 Sum of electronic and thermal Free Energies=         -697.629477

                     E (Thermal)             CV                S
                      KCal/Mol        Cal/Mol-Kelvin    Cal/Mol-Kelvin
 Total                   88.227             43.836            110.528
 Electronic               0.000              0.000              0.000
 Translational            0.889              2.981             41.647
 Rotational               0.889              2.981             31.664
 Vibrational             86.450             37.874             37.216
 Vibration     1          0.593              1.984              6.017
 Vibration     2          0.599              1.965              3.969
 Vibration     3          0.601              1.960              3.786
 Vibration     4          0.607              1.938              3.193
 Vibration     5          0.609              1.932              3.091
 Vibration     6          0.622              1.889              2.530
 Vibration     7          0.643              1.825              2.040
 Vibration     8          0.672              1.735              1.620
 Vibration     9          0.705              1.638              1.317
 Vibration    10          0.724              1.584              1.185
 Vibration    11          0.738              1.546              1.104
 Vibration    12          0.771              1.457              0.941
 Vibration    13          0.805              1.371              0.809
 Vibration    14          0.857              1.246              0.654
 Vibration    15          0.888              1.177              0.581
 Vibration    16          0.895              1.163              0.566
 Vibration    17          0.934              1.080              0.490
 Vibration    18          0.963              1.022              0.442

 Optimization completed.
    -- Stationary point found.
 Normal termination of Gaussian 16 at Thu Dec 10 09:22:35 2020.

 ----------------------------------------------------------------------
 # B3LYP/6-311++G(d,p) empiricaldispersion=gd3bj scf=xqc pop=npa geom=c
 heck
 ----------------------------------------------------------------------

 ---------------------------------------
 CID_118989969_JID_4188_Energie_neutraal
 ---------------------------------------
 Structure from the checkpoint file:  "JID_4188.chk"
 Charge =  0 Multiplicity = 1

 SCF Done:  E(RB3LYP) =  -697.923124708     A.U. after   17 cycles
 Normal termination of Gaussian 16 at Thu Dec 10 09:24:24 2020.

 ----------------------------------------------------------------------
 # B3LYP/6-311++G(d,p) empiricaldispersion=gd3bj scf=xqc pop=npa geom=c
 heck
 ----------------------------------------------------------------------

 -------------------------------------
 CID_118989969_JID_4188_Energie_kation
 -------------------------------------
 Structure from the checkpoint file:  "JID_4188.chk"
 Charge =  1 Multiplicity = 2

 SCF Done:  E(UB3LYP) =  -697.561342764     A.U. after   33 cycles
 SCF Done:  E(UB3LYP) =  -697.561342764     a.u. after    1 cycles
 Normal termination of Gaussian 16 at Thu Dec 10 09:28:52 2020.
 Gaussian 16:  ES64L-G16RevA.03 25-Dec-2016

 ----------------------------------------------------------------------
 # B3LYP/6-311++G(d,p) empiricaldispersion=gd3bj scf=xqc pop=npa geom=c
 heck
 ----------------------------------------------------------------------

 ------------------------------------
 CID_118989969_JID_4188_Energie_anion
 ------------------------------------
 Structure from the checkpoint file:  "JID_4188.chk"
 Charge = -1 Multiplicity = 2

                         Standard orientation:
 ---------------------------------------------------------------------
 Center     Atomic      Atomic             Coordinates (Angstroms)
 Number     Number       Type             X           Y           Z
 ---------------------------------------------------------------------
      1          6           0       -1.766328   -1.515729    0.022118
      2          6           0       -0.416664   -1.844620    0.027404
      3          6           0        0.531717   -0.826264    0.015060
      4          6           0        0.180727    0.526429   -0.024594
      5          6           0       -1.175991    0.846636   -0.027568
      6          6           0       -2.148270   -0.165375    0.001198
      7          6           0       -3.537640    0.185126    0.008007
      8          7           0       -4.664869    0.469041    0.018794
      9          6           0        1.189337    1.641124   -0.234707
     10          8           0        1.718495    1.795402   -1.319353
     11          7           0        1.315050    2.499472    0.820398
     12          7           0        1.949095   -1.212506    0.111945
     13          8           0        2.253540   -2.347940   -0.241173
     14          8           0        2.725740   -0.377956    0.573175
     15          1           0       -2.522815   -2.291870    0.041384
     16          1           0       -0.084377   -2.874884    0.050557
     17          1           0       -1.481033    1.886459   -0.067457
     18          1           0        1.113421    2.162776    1.752179
     19          1           0        2.056350    3.185465    0.742672
 ---------------------------------------------------------------------

 SCF Done:  E(UB3LYP) =  -697.992720983     A.U. after   23 cycles

 The electronic state is 2-A.
 Alpha  occ. eigenvalues --  -18.98508 -18.98035 -18.97936 -14.36191 -14.23393
 Alpha  occ. eigenvalues --  -14.18889 -10.17452 -10.09072 -10.09057 -10.08486
 Alpha  occ. eigenvalues --  -10.07781 -10.07698 -10.07326 -10.06404  -1.06057
 Alpha  occ. eigenvalues --   -0.93623  -0.89019  -0.80869  -0.79198  -0.76060
 Alpha  occ. eigenvalues --   -0.68049  -0.65622  -0.58442  -0.53499  -0.49213
 Alpha  occ. eigenvalues --   -0.47843  -0.45211  -0.41880  -0.39832  -0.38567
 Alpha  occ. eigenvalues --   -0.36758  -0.36476  -0.34224  -0.33220  -0.31441
 Alpha  occ. eigenvalues --   -0.29804  -0.29353  -0.28203  -0.25964  -0.24966
 Alpha  occ. eigenvalues --   -0.23290  -0.21933  -0.18147  -0.16902  -0.16333
 Alpha  occ. eigenvalues --   -0.15605  -0.15347  -0.14427  -0.13198  -0.00475
 Alpha virt. eigenvalues --    0.07672   0.08583   0.08853   0.09280   0.10783
 Alpha virt. eigenvalues --    0.11247   0.12224   0.12657   0.14470   0.14580
 Alpha virt. eigenvalues --    0.14956   0.15337   0.17340   0.17860   0.17993

  Beta  occ. eigenvalues --  -18.98495 -18.97624 -18.97525 -14.35769 -14.23390
  Beta  occ. eigenvalues --  -14.18678 -10.17456 -10.09095 -10.08854 -10.08204
  Beta  occ. eigenvalues --  -10.07792 -10.07597 -10.07304 -10.06329  -1.05249
  Beta  occ. eigenvalues --   -0.93591  -0.88258  -0.80846  -0.78882  -0.75711
  Beta  occ. eigenvalues --   -0.67401  -0.65333  -0.57593  -0.53409  -0.49093
  Beta  occ. eigenvalues --   -0.47301  -0.45142  -0.41766  -0.39284  -0.37619
  Beta  occ. eigenvalues --   -0.36418  -0.35105  -0.33645  -0.33093  -0.31365
  Beta  occ. eigenvalues --   -0.29660  -0.29076  -0.27384  -0.25837  -0.24657
  Beta  occ. eigenvalues --   -0.22414  -0.21812  -0.18049  -0.16254  -0.15043
  Beta  occ. eigenvalues --   -0.14549  -0.14074  -0.13477  -0.12371
  Beta virt. eigenvalues --    0.05619   0.07677   0.08851   0.09253   0.10684
  Beta virt. eigenvalues --    0.11207   0.11895   0.12245   0.12745   0.14544
  Beta virt. eigenvalues --    0.14598   0.14981   0.15406   0.17361   0.18001

 Mulliken charges and spin densities:
               1          2
     1  C   -0.653642   0.032251
     2  C   -0.225686   0.114708
     3  C   -1.853856   0.025445
     4  C    1.466839   0.125564
     5  C   -0.127987   0.015281
     6  C    1.729260   0.213598
     7  C   -1.415780  -0.090932
     8  N   -0.279325   0.111569
     9  C    0.349497   0.001693
    10  O   -0.282172  -0.001444
    11  N   -0.315932   0.002184
    12  N   -0.163719   0.141568
    13  O   -0.128713   0.151660
    14  O   -0.148085   0.152299
    15  H    0.147606  -0.001581
    16  H    0.213607  -0.001391
    17  H    0.172796   0.000772
    18  H    0.240900   0.004738
    19  H    0.274391   0.002018
 Sum of Mulliken charges =  -1.00000   1.00000

 Dipole moment (field-independent basis, Debye):
    X=             -0.1281    Y=              2.3012    Z=              2.9470  Tot=              3.7412
 Quadrupole moment (field-independent basis, Debye-Ang):
   XX=           -147.0322   YY=            -89.8416   ZZ=            -86.5131
   XY=             15.4601   XZ=              5.0215   YZ=              6.0333

 Summary of Natural Population Analysis:

                                       Natural Population
                Natural  -----------------------------------------------
    Atom  No    Charge         Core      Valence    Rydberg      Total
 -----------------------------------------------------------------------
      C    1   -0.07696      0.99955     2.06997    0.00744     3.07696
      C    2   -0.08215      0.99953     2.07396    0.00866     3.08215
      C    3    0.09419      0.99935     1.89206    0.01440     2.90581
      C    4   -0.04383      0.99941     2.02958    0.01484     3.04383
      C    5   -0.07854      0.99951     2.07198    0.00705     3.07854
      C    6   -0.04898      0.99942     2.03866    0.01090     3.04898
      C    7    0.14464      0.99964     1.83752    0.01820     2.85536
      N    8   -0.16577      0.99979     2.65496    0.01102     3.66577
      C    9    0.34664      0.99966     1.62976    0.02393     2.65336
      O   10   -0.30601      0.99987     3.29943    0.00670     4.30601
      N   11   -0.40371      0.99969     2.89752    0.00650     3.90371
      N   12    0.28740      0.99972     2.18675    0.02613     3.21260
      O   13   -0.18403      0.99990     3.17667    0.00746     4.18403
      O   14   -0.18643      0.99990     3.17773    0.00881     4.18643
      H   15    0.10013      0.00000     0.39899    0.00087     0.39987
      H   16    0.11479      0.00000     0.38404    0.00118     0.38521
      H   17    0.10423      0.00000     0.39479    0.00098     0.39577
      H   18    0.19470      0.00000     0.30417    0.00114     0.30530
      H   19    0.18969      0.00000     0.30870    0.00162     0.31031
 =======================================================================
   * Total *   -0.00000     13.99494    34.82723    0.17783    49.00000

 Normal termination of Gaussian 16 at Thu Dec 10 09:32:00 2020.
