 Gaussian 16, Revision A.03,

 -----------------------------------------------------------
 # opt freq B3LYP/6-31G(d) empiricaldispersion=gd3bj scf=xqc
 -----------------------------------------------------------

 -----------------------------
 CID_13330241_JID_925_neutraal
 -----------------------------
 Symbolic Z-matrix:
 Charge =  0 Multiplicity = 1

 SCF Done:  E(RB3LYP) =  -438.818843347     A.U. after   16 cycles
 SCF Done:  E(RB3LYP) =  -438.819541363     A.U. after   15 cycles
 SCF Done:  E(RB3LYP) =  -438.821719806     A.U. after   13 cycles
 SCF Done:  E(RB3LYP) =  -438.821849674     A.U. after   12 cycles
 SCF Done:  E(RB3LYP) =  -438.821869599     A.U. after   12 cycles
 SCF Done:  E(RB3LYP) =  -438.821903759     A.U. after   11 cycles
 SCF Done:  E(RB3LYP) =  -438.821904403     A.U. after    8 cycles
 Optimization completed.
    -- Stationary point found.

 1\1\GINC-NODE121\FOpt\RB3LYP\6-31G(d)\C7H13N3\VSC10255\08-Dec-2020\0\\
 # opt freq B3LYP/6-31G(d) empiricaldispersion=gd3bj scf=xqc\\CID_13330
 241_JID_925_neutraal\\0,1\C,2.5118898011,-0.0075235801,-0.1288289792\C
 ,1.0538410089,-0.0159968713,0.3394354599\C,0.3197429614,1.2551064379,-
 0.1145421779\C,-1.1651848433,1.249492915,0.2665101815\C,-1.8734433206,
 -0.0015481555,-0.2682438784\C,-1.1719683228,-1.2787060615,0.2110416096
 \C,0.3142608196,-1.2704302909,-0.1667468792\N,1.020973521,0.0336754362
 ,1.8469960256\N,1.5096024208,-0.9393427639,2.4223518876\N,1.9354713915

 Normal termination of Gaussian 16 at Tue Dec  8 13:30:42 2020.

 --------------------------------------------------------------------
 #N Geom=AllCheck Guess=TCheck SCRF=Check GenChk RB3LYP/6-31G(d) Freq
 --------------------------------------------------------------------

 Structure from the checkpoint file:  "JID_925.chk"
 -----------------------------
 CID_13330241_JID_925_neutraal
 -----------------------------
 Charge =  0 Multiplicity = 1

 SCF Done:  E(RB3LYP) =  -438.821904403     A.U. after    1 cycles

  Exact polarizability: 107.526  10.873  87.194  -2.238  -0.750  75.590
 Approx polarizability: 170.467  39.940 132.590 -10.347  -5.679 114.744

                      1                      2                      3
                      A                      A                      A
 Frequencies --     48.6615               131.0432               153.7924
 Red. masses --      6.6455                 3.8883                 3.3647
 Frc consts  --      0.0093                 0.0393                 0.0469
 IR Inten    --      0.0222                 0.5512                 0.9140

                      4                      5                      6
                      A                      A                      A
 Frequencies --    219.6884               255.9253               284.2169
 Red. masses --      2.7077                 1.0363                 2.2481
 Frc consts  --      0.0770                 0.0400                 0.1070
 IR Inten    --      1.2855                 0.0151                 0.3394

                      7                      8                      9
                      A                      A                      A
 Frequencies --    301.1142               349.7555               408.0127
 Red. masses --      2.7363                 2.2309                 2.0770
 Frc consts  --      0.1462                 0.1608                 0.2037
 IR Inten    --      1.0359                 0.2698                 0.4232

                     10                     11                     12
                      A                      A                      A
 Frequencies --    428.1059               469.7976               481.6718
 Red. masses --      2.4848                 2.7343                 3.5301
 Frc consts  --      0.2683                 0.3556                 0.4826
 IR Inten    --      1.1030                 2.4179                 0.9545

                     13                     14                     15
                      A                      A                      A
 Frequencies --    566.8175               586.6066               610.6176
 Red. masses --      2.0978                 8.3005                 4.8237
 Frc consts  --      0.3971                 1.6829                 1.0597
 IR Inten    --      0.6193                12.0548                11.3985

                     16                     17                     18
                      A                      A                      A
 Frequencies --    755.1327               795.9380               831.1995
 Red. masses --      3.9575                 1.5434                 3.0810
 Frc consts  --      1.3296                 0.5761                 1.2542
 IR Inten    --      5.6747                 1.2076                 5.1066

                     19                     20                     21
                      A                      A                      A
 Frequencies --    865.2654               895.2078               897.9459
 Red. masses --      2.0256                 1.8566                 2.2043
 Frc consts  --      0.8935                 0.8766                 1.0472
 IR Inten    --      2.6909                 8.3208                 2.1958

                     22                     23                     24
                      A                      A                      A
 Frequencies --    952.2019               982.0342              1005.5038
 Red. masses --      1.4129                 2.2080                 1.5007
 Frc consts  --      0.7548                 1.2546                 0.8939
 IR Inten    --      4.3737                10.3407                 0.0749

                     25                     26                     27
                      A                      A                      A
 Frequencies --   1039.9684              1066.7035              1096.1771
 Red. masses --      1.5931                 1.8560                 1.8022
 Frc consts  --      1.0152                 1.2443                 1.2759
 IR Inten    --      1.5316                 3.6673                 0.1302

                     28                     29                     30
                      A                      A                      A
 Frequencies --   1128.6642              1158.7351              1182.2681
 Red. masses --      1.1563                 2.9173                 1.4717
 Frc consts  --      0.8679                 2.3078                 1.2120
 IR Inten    --      0.4940                12.6150                 4.6916

                     31                     32                     33
                      A                      A                      A
 Frequencies --   1200.4619              1280.3575              1301.1731
 Red. masses --      2.3193                 1.8843                 1.3406
 Frc consts  --      1.9692                 1.8200                 1.3373
 IR Inten    --     25.4415                 6.7049                16.1538

                     34                     35                     36
                      A                      A                      A
 Frequencies --   1320.4428              1323.7697              1330.1505
 Red. masses --      1.3486                 1.3266                 9.0866
 Frc consts  --      1.3854                 1.3697                 9.4723
 IR Inten    --      1.8486                 1.0833               135.8330

                     37                     38                     39
                      A                      A                      A
 Frequencies --   1373.5142              1391.3723              1403.7759
 Red. masses --      1.4246                 1.4284                 1.4359
 Frc consts  --      1.5834                 1.6293                 1.6671
 IR Inten    --      3.1872                 0.2418                 0.2912

                     40                     41                     42
                      A                      A                      A
 Frequencies --   1407.5445              1413.8780              1439.2146
 Red. masses --      1.5326                 1.5121                 1.2346
 Frc consts  --      1.7890                 1.7810                 1.5067
 IR Inten    --      2.3495                 0.1322                 6.5489

                     43                     44                     45
                      A                      A                      A
 Frequencies --   1503.2525              1513.1368              1515.0227
 Red. masses --      1.0851                 1.0953                 1.0953
 Frc consts  --      1.4447                 1.4776                 1.4812
 IR Inten    --      0.6092                 1.3653                 4.7611

                     46                     47                     48
                      A                      A                      A
 Frequencies --   1519.9346              1524.1695              1525.7947
 Red. masses --      1.0788                 1.0552                 1.0532
 Frc consts  --      1.4684                 1.4442                 1.4446
 IR Inten    --      6.4568                 5.6032                 4.7943

                     49                     50                     51
                      A                      A                      A
 Frequencies --   1534.4004              2250.0499              3021.0518
 Red. masses --      1.0980                13.8847                 1.0679
 Frc consts  --      1.5232                41.4164                 5.7426
 IR Inten    --      2.5223               505.0554                27.1284

                     52                     53                     54
                      A                      A                      A
 Frequencies --   3034.8236              3042.0064              3047.6743
 Red. masses --      1.0604                 1.0601                 1.0633
 Frc consts  --      5.7542                 5.7796                 5.8189
 IR Inten    --     13.8160                19.0431                13.0827

                     55                     56                     57
                      A                      A                      A
 Frequencies --   3050.6511              3053.0552              3072.6266
 Red. masses --      1.0607                 1.0403                 1.1007
 Frc consts  --      5.8163                 5.7134                 6.1227
 IR Inten    --     25.7997                27.6169                33.6018

                     58                     59                     60
                      A                      A                      A
 Frequencies --   3078.3726              3086.5524              3089.8972
 Red. masses --      1.0923                 1.1006                 1.1043
 Frc consts  --      6.0987                 6.1777                 6.2118
 IR Inten    --     55.4627                35.7130                12.5687

                     61                     62                     63
                      A                      A                      A
 Frequencies --   3097.1107              3119.4998              3132.0119
 Red. masses --      1.1044                 1.1021                 1.1030
 Frc consts  --      6.2413                 6.3187                 6.3749
 IR Inten    --     74.2203                29.9124                24.9895

 - Thermochemistry -
 -------------------
 Temperature   298.150 Kelvin.  Pressure   1.00000 Atm.
 Atom     1 has atomic number  6 and mass  12.00000

 Molecular mass:   139.11095 amu.
 Principal axes and moments of inertia in atomic units:
                           1         2         3
     Eigenvalues --   871.447091712.978921950.17515
           X            0.99875  -0.04446  -0.02275
           Y            0.04434   0.99900  -0.00577
           Z            0.02298   0.00475   0.99972
 This molecule is an asymmetric top.
 Rotational symmetry number  1.
 Warning -- assumption of classical behavior for rotation
           may cause significant error
 Rotational temperatures (Kelvin)      0.09939     0.05056     0.04441
 Rotational constants (GHZ):           2.07097     1.05357     0.92543
 Zero-point vibrational energy     532012.4 (Joules/Mol)
                                  127.15401 (Kcal/Mol)
 Warning -- explicit consideration of  15 degrees of freedom as
           vibrations may cause significant error
 Vibrational temperatures:     70.01   188.54   221.27   316.08   368.22
          (Kelvin)            408.92   433.24   503.22   587.04   615.95
                              675.93   693.02   815.52   844.00   878.54
                             1086.47  1145.18  1195.91  1244.92  1288.00
                             1291.94  1370.01  1412.93  1446.70  1496.28
                             1534.75  1577.15  1623.90  1667.16  1701.02
                             1727.20  1842.15  1872.10  1899.82  1904.61
                             1913.79  1976.18  2001.87  2019.72  2025.14
                             2034.26  2070.71  2162.85  2177.07  2179.78
                             2186.85  2192.94  2195.28  2207.66  3237.32
                             4346.62  4366.43  4376.77  4384.92  4389.21
                             4392.67  4420.82  4429.09  4440.86  4445.67
                             4456.05  4488.26  4506.27

 Zero-point correction=                           0.202633 (Hartree/Particle)
 Thermal correction to Energy=                    0.212241
 Thermal correction to Enthalpy=                  0.213185
 Thermal correction to Gibbs Free Energy=         0.168007
 Sum of electronic and zero-point Energies=           -438.619272
 Sum of electronic and thermal Energies=              -438.609663
 Sum of electronic and thermal Enthalpies=            -438.608719
 Sum of electronic and thermal Free Energies=         -438.653898

                     E (Thermal)             CV                S
                      KCal/Mol        Cal/Mol-Kelvin    Cal/Mol-Kelvin
 Total                  133.183             37.339             95.086
 Electronic               0.000              0.000              0.000
 Translational            0.889              2.981             40.702
 Rotational               0.889              2.981             29.455
 Vibrational            131.406             31.377             24.929
 Vibration     1          0.595              1.978              4.871
 Vibration     2          0.612              1.922              2.931
 Vibration     3          0.619              1.898              2.625
 Vibration     4          0.647              1.811              1.962
 Vibration     5          0.666              1.753              1.689
 Vibration     6          0.683              1.703              1.508
 Vibration     7          0.693              1.672              1.411
 Vibration     8          0.727              1.576              1.167
 Vibration     9          0.773              1.453              0.934
 Vibration    10          0.790              1.409              0.865
 Vibration    11          0.827              1.317              0.738
 Vibration    12          0.838              1.291              0.706
 Vibration    13          0.923              1.103              0.510
 Vibration    14          0.944              1.060              0.473
 Vibration    15          0.970              1.009              0.432

 Optimization completed.
    -- Stationary point found.

 1\1\GINC-NODE121\Freq\RB3LYP\6-31G(d)\C7H13N3\VSC10255\08-Dec-2020\0\\
 #N Geom=AllCheck Guess=TCheck SCRF=Check GenChk RB3LYP/6-31G(d) Freq\\
 CID_13330241_JID_925_neutraal\\0,1\C,2.5118898011,-0.0075235801,-0.128
 8289792\C,1.0538410089,-0.0159968713,0.3394354599\C,0.3197429614,1.255
 1064379,-0.1145421779\C,-1.1651848433,1.249492915,0.2665101815\C,-1.87
 34433206,-0.0015481555,-0.2682438784\C,-1.1719683228,-1.2787060615,0.2
 110416096\C,0.3142608196,-1.2704302909,-0.1667468792\N,1.020973521,0.0
 336754362,1.8469960256\N,1.5096024208,-0.9393427639,2.4223518876\N,1.9

 Normal termination of Gaussian 16 at Tue Dec  8 13:36:40 2020.

 ----------------------------------------------------------------------
 # B3LYP/6-311++G(d,p) empiricaldispersion=gd3bj scf=xqc pop=npa geom=c
 heck
 ----------------------------------------------------------------------

 -------------------------------------
 CID_13330241_JID_925_Energie_neutraal
 -------------------------------------
 Structure from the checkpoint file:  "JID_925.chk"
 Charge =  0 Multiplicity = 1

 SCF Done:  E(RB3LYP) =  -438.940973973     A.U. after   15 cycles
 Normal termination of Gaussian 16 at Tue Dec  8 13:40:08 2020.

 ----------------------------------------------------------------------
 # B3LYP/6-311++G(d,p) empiricaldispersion=gd3bj scf=xqc pop=npa geom=c
 heck
 ----------------------------------------------------------------------

 -----------------------------------
 CID_13330241_JID_925_Energie_kation
 -----------------------------------
 Structure from the checkpoint file:  "JID_925.chk"
 Charge =  1 Multiplicity = 2

 SCF Done:  E(UB3LYP) =  -438.603208615     A.U. after   23 cycles
 Normal termination of Gaussian 16 at Tue Dec  8 13:47:05 2020.
 Gaussian 16:  ES64L-G16RevA.03 25-Dec-2016

 ----------------------------------
 CID_13330241_JID_925_Energie_anion
 ----------------------------------
 Structure from the checkpoint file:  "JID_925.chk"
 Charge = -1 Multiplicity = 2

                         Standard orientation:
 ---------------------------------------------------------------------
 Center     Atomic      Atomic             Coordinates (Angstroms)
 Number     Number       Type             X           Y           Z
 ---------------------------------------------------------------------
      1          6           0       -1.133686    1.775463    0.799993
      2          6           0       -0.246844    0.686088    0.190056
      3          6           0        0.982788    1.296120   -0.500281
      4          6           0        1.937995    0.233554   -1.055958
      5          6           0        2.368026   -0.755064    0.035098
      6          6           0        1.148428   -1.400261    0.705332
      7          6           0        0.191335   -0.336710    1.257148
      8          7           0       -1.007669   -0.007358   -0.912924
      9          7           0       -2.012984   -0.624570   -0.559444
     10          7           0       -2.961131   -1.227232   -0.342404
     11          1           0       -0.585014    2.322595    1.574070
     12          1           0       -1.452602    2.486933    0.031704
     13          1           0       -2.028037    1.342356    1.262718
     14          1           0        0.645005    1.968630   -1.297180
     15          1           0        1.506582    1.912165    0.243044
     16          1           0        2.814657    0.722039   -1.497985
     17          1           0        1.432858   -0.310310   -1.863501
     18          1           0        2.959601   -0.223298    0.795218
     19          1           0        3.021228   -1.527816   -0.387686
     20          1           0        1.462701   -2.067637    1.516536
     21          1           0        0.617852   -2.020566   -0.028026
     22          1           0        0.685839    0.219684    2.064964
     23          1           0       -0.696432   -0.805794    1.701202
 ---------------------------------------------------------------------

 SCF Done:  E(UB3LYP) =  -438.925435819     A.U. after   33 cycles
 SCF Done:  E(UB3LYP) =  -438.925435819     a.u. after    1 cycles

 The electronic state is 2-A.
 Alpha  occ. eigenvalues --  -14.34307 -14.24563 -14.22809 -10.10864 -10.05402
 Alpha  occ. eigenvalues --  -10.05389 -10.05331 -10.05159 -10.05128 -10.04949
 Alpha  occ. eigenvalues --   -1.00987  -0.85310  -0.72793  -0.66133  -0.63365
 Alpha  occ. eigenvalues --   -0.57353  -0.51329  -0.50285  -0.46158  -0.39425
 Alpha  occ. eigenvalues --   -0.38744  -0.37407  -0.35742  -0.33372  -0.32935
 Alpha  occ. eigenvalues --   -0.32031  -0.30975  -0.29364  -0.27372  -0.26948
 Alpha  occ. eigenvalues --   -0.26401  -0.24728  -0.23389  -0.21601  -0.19800
 Alpha  occ. eigenvalues --   -0.19756  -0.17178  -0.13134   0.05253
 Alpha virt. eigenvalues --    0.07282   0.08081   0.08691   0.09543   0.10372
 Alpha virt. eigenvalues --    0.11149   0.11406   0.12104   0.12449   0.12961
 Alpha virt. eigenvalues --    0.13140   0.14359   0.14952   0.15105   0.16544

  Beta  occ. eigenvalues --  -14.34081 -14.24360 -14.22813 -10.10798 -10.05383
  Beta  occ. eigenvalues --  -10.05374 -10.05312 -10.05147 -10.05119 -10.04922
  Beta  occ. eigenvalues --   -1.00608  -0.85153  -0.72713  -0.66058  -0.63334
  Beta  occ. eigenvalues --   -0.57300  -0.51174  -0.50193  -0.46070  -0.39033
  Beta  occ. eigenvalues --   -0.38310  -0.37237  -0.35646  -0.33087  -0.32822
  Beta  occ. eigenvalues --   -0.31688  -0.30930  -0.29228  -0.27312  -0.26905
  Beta  occ. eigenvalues --   -0.26345  -0.24688  -0.23332  -0.21527  -0.19750
  Beta  occ. eigenvalues --   -0.19660  -0.16801  -0.13065
  Beta virt. eigenvalues --    0.07884   0.08714   0.08871   0.09548   0.10524
  Beta virt. eigenvalues --    0.10845   0.11545   0.12014   0.12525   0.13063
  Beta virt. eigenvalues --    0.13229   0.13599   0.14601   0.15298   0.15599

 Mulliken charges and spin densities:
               1          2
     1  C    1.130091  -1.460311
     2  C   -1.653234   1.797637
     3  C    0.963147  -1.297978
     4  C   -1.066978   0.670529
     5  C    1.344597  -1.647655
     6  C   -0.750043   0.350575
     7  C    0.993325  -1.481531
     8  N   -0.339110  -0.006535
     9  N    0.607882   0.042946
    10  N   -0.324404   0.142821
    11  H   -0.412842   0.569985
    12  H    0.034523   0.107133
    13  H   -0.057463   0.202735
    14  H    0.175375  -0.026953
    15  H   -0.370690   0.549262
    16  H   -0.259175   0.425563
    17  H    0.186181  -0.041998
    18  H   -0.103015   0.238810
    19  H   -0.581091   0.732272
    20  H   -0.329055   0.500576
    21  H    0.200161  -0.081649
    22  H   -0.384002   0.561921
    23  H   -0.004180   0.151845
 Sum of Mulliken charges =  -1.00000   1.00000

 Dipole moment (field-independent basis, Debye):
    X=             -2.9489    Y=             -0.6959    Z=             -4.1335  Tot=              5.1250
 Quadrupole moment (field-independent basis, Debye-Ang):
   XX=           -116.8575   YY=            -96.3697   ZZ=            -95.4842
   XY=             -3.7870   XZ=             -4.0939   YZ=             -4.0372

 Summary of Natural Population Analysis:

                                       Natural Population
                Natural  -----------------------------------------------
    Atom  No    Charge         Core      Valence    Rydberg      Total
 -----------------------------------------------------------------------
      C    1   -0.29016      0.99961     2.28356    0.00700     3.29016
      C    2    0.06230      0.99953     1.92424    0.01393     2.93770
      C    3   -0.19156      0.99957     2.18057    0.01142     3.19156
      C    4   -0.19059      0.99962     2.18181    0.00916     3.19059
      C    5   -0.18860      0.99963     2.18022    0.00875     3.18860
      C    6   -0.18995      0.99962     2.18078    0.00954     3.18995
      C    7   -0.20004      0.99957     2.18906    0.01142     3.20004
      N    8   -0.20167      0.99968     2.68806    0.01393     3.70167
      N    9    0.13543      0.99970     2.34893    0.01594     3.36457
      N   10   -0.04714      0.99982     2.53469    0.01263     3.54714
      H   11    0.10802      0.00000     0.39020    0.00177     0.39198
      H   12    0.09997      0.00000     0.39912    0.00091     0.40003
      H   13    0.10107      0.00000     0.39803    0.00090     0.39893
      H   14    0.09978      0.00000     0.39908    0.00114     0.40022
      H   15    0.10325      0.00000     0.39479    0.00196     0.39675
      H   16    0.09773      0.00000     0.40136    0.00092     0.40227
      H   17    0.09734      0.00000     0.40131    0.00136     0.40266
      H   18    0.09661      0.00000     0.40053    0.00287     0.40339
      H   19    0.09658      0.00000     0.40230    0.00112     0.40342
      H   20    0.09995      0.00000     0.39899    0.00105     0.40005
      H   21    0.09368      0.00000     0.40479    0.00153     0.40632
      H   22    0.10680      0.00000     0.39001    0.00319     0.39320
      H   23    0.10120      0.00000     0.39770    0.00110     0.39880
 =======================================================================
   * Total *    0.00000      9.99634    27.87012    0.13354    38.00000

 Normal termination of Gaussian 16 at Tue Dec  8 13:57:39 2020.
