 Gaussian 16, Revision A.03,

 -----------------------------------------------------------
 # opt freq B3LYP/6-31G(d) empiricaldispersion=gd3bj scf=xqc
 -----------------------------------------------------------

 -------------------------------
 CID_117015327_JID_7838_neutraal
 -------------------------------
 Symbolic Z-matrix:
 Charge =  0 Multiplicity = 1

 SCF Done:  E(RB3LYP) =  -785.845837096     A.U. after   14 cycles
 SCF Done:  E(RB3LYP) =  -785.852759127     A.U. after   13 cycles
 SCF Done:  E(RB3LYP) =  -785.852362293     A.U. after   14 cycles
 SCF Done:  E(RB3LYP) =  -785.854991413     A.U. after   11 cycles
 SCF Done:  E(RB3LYP) =  -785.855778379     A.U. after   12 cycles
 SCF Done:  E(RB3LYP) =  -785.855837634     A.U. after   12 cycles
 SCF Done:  E(RB3LYP) =  -785.856416999     A.U. after   11 cycles
 SCF Done:  E(RB3LYP) =  -785.856563567     A.U. after   11 cycles
 SCF Done:  E(RB3LYP) =  -785.856645454     A.U. after   11 cycles
 SCF Done:  E(RB3LYP) =  -785.856694585     A.U. after   10 cycles
 SCF Done:  E(RB3LYP) =  -785.856713170     A.U. after   10 cycles
 SCF Done:  E(RB3LYP) =  -785.856719103     A.U. after    8 cycles
 SCF Done:  E(RB3LYP) =  -785.856719771     A.U. after    8 cycles
 SCF Done:  E(RB3LYP) =  -785.856719861     A.U. after    6 cycles
 Optimization completed.
    -- Stationary point found.
 Normal termination of Gaussian 16 at Fri Dec 11 13:24:24 2020.

 --------------------------------------------------------------------
 #N Geom=AllCheck Guess=TCheck SCRF=Check GenChk RB3LYP/6-31G(d) Freq
 --------------------------------------------------------------------

 Structure from the checkpoint file:  "JID_7838.chk"
 -------------------------------
 CID_117015327_JID_7838_neutraal
 -------------------------------
 Charge =  0 Multiplicity = 1

 SCF Done:  E(RB3LYP) =  -785.856719861     A.U. after    1 cycles

  Exact polarizability: 170.489   0.061 144.194   2.233  -0.307 130.953
 Approx polarizability: 203.654   0.820 208.175   4.698  -2.779 213.043

                      1                      2                      3
                      A                      A                      A
 Frequencies --     32.9912                54.1435                58.1575
 Red. masses --      4.1238                 3.5034                 3.5097
 Frc consts  --      0.0026                 0.0061                 0.0070
 IR Inten    --      0.6128                 0.3061                 0.3136

                      4                      5                      6
                      A                      A                      A
 Frequencies --     84.5756               107.8061               134.2154
 Red. masses --      3.6374                 5.3144                 5.0950
 Frc consts  --      0.0153                 0.0364                 0.0541
 IR Inten    --      0.2208                 1.3169                 0.5660

                      7                      8                      9
                      A                      A                      A
 Frequencies --    167.0286               202.8092               218.4975
 Red. masses --      3.1439                 2.7443                 2.7346
 Frc consts  --      0.0517                 0.0665                 0.0769
 IR Inten    --      1.6391                 1.4878                14.6064

                     10                     11                     12
                      A                      A                      A
 Frequencies --    219.9311               241.5209               276.9792
 Red. masses --      2.9932                 2.6369                 3.4055
 Frc consts  --      0.0853                 0.0906                 0.1539
 IR Inten    --      8.9159                 3.3233                 1.0436

                     13                     14                     15
                      A                      A                      A
 Frequencies --    314.0541               321.6832               350.3271
 Red. masses --      2.8338                 1.9451                 2.1133
 Frc consts  --      0.1647                 0.1186                 0.1528
 IR Inten    --      8.9797                 0.0576                 8.7280

                     16                     17                     18
                      A                      A                      A
 Frequencies --    386.3790               398.9981               429.3644
 Red. masses --      2.0832                 1.8951                 2.7113
 Frc consts  --      0.1832                 0.1778                 0.2945
 IR Inten    --      1.9019                 1.1635                 5.8697

                     19                     20                     21
                      A                      A                      A
 Frequencies --    446.3233               463.0247               488.4589
 Red. masses --      2.0973                 3.9081                 2.6108
 Frc consts  --      0.2462                 0.4937                 0.3670
 IR Inten    --      3.9671                 0.7385                 1.5173

                     22                     23                     24
                      A                      A                      A
 Frequencies --    511.5925               536.7256               556.1707
 Red. masses --      2.2110                 2.0965                 2.6420
 Frc consts  --      0.3410                 0.3558                 0.4815
 IR Inten    --      7.6735                 6.1863                 3.8195

                     25                     26                     27
                      A                      A                      A
 Frequencies --    589.1827               629.8005               646.7172
 Red. masses --      3.6034                 1.7430                 1.8012
 Frc consts  --      0.7370                 0.4073                 0.4439
 IR Inten    --      8.6465                22.6018                19.2314

                     28                     29                     30
                      A                      A                      A
 Frequencies --    686.9866               719.2913               766.5278
 Red. masses --      2.1344                 3.8429                 3.0914
 Frc consts  --      0.5935                 1.1714                 1.0702
 IR Inten    --     19.9160                 6.7041                19.9067

                     31                     32                     33
                      A                      A                      A
 Frequencies --    835.6290               849.8407               852.3491
 Red. masses --      2.2698                 2.2432                 1.9593
 Frc consts  --      0.9338                 0.9545                 0.8386
 IR Inten    --      3.4382                 9.6945                 9.0904

                     34                     35                     36
                      A                      A                      A
 Frequencies --    861.9002               898.4959               906.2253
 Red. masses --      3.0365                 2.3082                 2.2325
 Frc consts  --      1.3290                 1.0979                 1.0802
 IR Inten    --     14.8483                 6.1383                10.5670

                     37                     38                     39
                      A                      A                      A
 Frequencies --    916.0250               922.5176               960.1950
 Red. masses --      1.7569                 2.0223                 2.3960
 Frc consts  --      0.8686                 1.0140                 1.3015
 IR Inten    --      6.5204                 1.4658                11.8823

                     40                     41                     42
                      A                      A                      A
 Frequencies --    992.2802              1002.9002              1024.9160
 Red. masses --      2.1767                 2.3049                 2.1418
 Frc consts  --      1.2627                 1.3659                 1.3256
 IR Inten    --     18.8732                33.4776                 7.1072

                     43                     44                     45
                      A                      A                      A
 Frequencies --   1044.9608              1060.5039              1075.4587
 Red. masses --      2.4859                 2.3083                 2.2248
 Frc consts  --      1.5993                 1.5296                 1.5161
 IR Inten    --     15.4138                14.2657                20.8384

                     46                     47                     48
                      A                      A                      A
 Frequencies --   1087.5403              1097.7906              1104.0607
 Red. masses --      2.1268                 1.9108                 2.0767
 Frc consts  --      1.4820                 1.3568                 1.4915
 IR Inten    --     21.0644                11.4549                22.8167

                     49                     50                     51
                      A                      A                      A
 Frequencies --   1118.3817              1125.4925              1142.6057
 Red. masses --      2.5830                 2.9158                 2.5048
 Frc consts  --      1.9035                 2.1762                 1.9267
 IR Inten    --      5.5611                38.3696                71.1367

                     52                     53                     54
                      A                      A                      A
 Frequencies --   1146.3579              1185.7966              1189.4168
 Red. masses --      6.2084                 2.2275                 3.2562
 Frc consts  --      4.8070                 1.8454                 2.7141
 IR Inten    --     74.7969                11.7506                 4.6269

                     55                     56                     57
                      A                      A                      A
 Frequencies --   1193.9384              1199.3085              1227.6510
 Red. masses --      2.2943                 2.6984                 1.3923
 Frc consts  --      1.9269                 2.2867                 1.2363
 IR Inten    --     24.7339                47.2339                62.8895

                     58                     59                     60
                      A                      A                      A
 Frequencies --   1248.9248              1249.3808              1281.6112
 Red. masses --      1.3015                 1.1144                 1.2043
 Frc consts  --      1.1961                 1.0249                 1.1655
 IR Inten    --      5.8384                 7.3500                11.5412

                     61                     62                     63
                      A                      A                      A
 Frequencies --   1296.2433              1307.3587              1323.5869
 Red. masses --      1.2099                 1.1608                 1.2153
 Frc consts  --      1.1977                 1.1690                 1.2544
 IR Inten    --      3.7337                 3.1946                 2.3144

                     64                     65                     66
                      A                      A                      A
 Frequencies --   1331.4490              1333.9871              1344.9596
 Red. masses --      1.2239                 1.3256                 1.1868
 Frc consts  --      1.2783                 1.3899                 1.2649
 IR Inten    --      2.9903                24.3290                 1.2919

                     67                     68                     69
                      A                      A                      A
 Frequencies --   1369.4541              1375.8478              1386.9118
 Red. masses --      1.4850                 1.2558                 1.3263
 Frc consts  --      1.6409                 1.4006                 1.5031
 IR Inten    --      4.2039                 0.1646                36.8957

                     70                     71                     72
                      A                      A                      A
 Frequencies --   1395.3189              1404.5705              1406.5757
 Red. masses --      1.4017                 1.3090                 1.3992
 Frc consts  --      1.6079                 1.5215                 1.6310
 IR Inten    --     19.8888                19.1277                23.4706

                     73                     74                     75
                      A                      A                      A
 Frequencies --   1409.2934              1412.3161              1429.8586
 Red. masses --      1.3553                 1.3995                 1.3804
 Frc consts  --      1.5859                 1.6447                 1.6628
 IR Inten    --     22.4389                 8.4690                 4.0487

                     76                     77                     78
                      A                      A                      A
 Frequencies --   1433.3861              1441.4175              1452.6270
 Red. masses --      1.3434                 1.3207                 1.4310
 Frc consts  --      1.6263                 1.6167                 1.7791
 IR Inten    --      9.0764                 3.7591                 1.2112

                     79                     80                     81
                      A                      A                      A
 Frequencies --   1486.8211              1491.3453              1495.1175
 Red. masses --      1.1006                 1.1661                 1.0878
 Frc consts  --      1.4334                 1.5280                 1.4326
 IR Inten    --      8.4910                 1.6755                 1.5291

                     82                     83                     84
                      A                      A                      A
 Frequencies --   1503.5824              1512.5838              1515.1046
 Red. masses --      1.0946                 1.1146                 1.0992
 Frc consts  --      1.4580                 1.5025                 1.4867
 IR Inten    --      5.7919                 7.4015                 3.7346

                     85                     86                     87
                      A                      A                      A
 Frequencies --   1519.2424              1523.0391              1524.7708
 Red. masses --      1.0927                 1.1163                 1.1172
 Frc consts  --      1.4860                 1.5257                 1.5303
 IR Inten    --      2.3127                13.4401                 1.1155

                     88                     89                     90
                      A                      A                      A
 Frequencies --   1530.1346              1531.1011              1531.6655
 Red. masses --      1.0976                 1.1049                 1.1021
 Frc consts  --      1.5140                 1.5261                 1.5234
 IR Inten    --      2.3852                 3.8847                 4.3018

                     91                     92                     93
                      A                      A                      A
 Frequencies --   1796.8240              2941.8184              2951.4340
 Red. masses --     11.3059                 1.0731                 1.0716
 Frc consts  --     21.5063                 5.4718                 5.5000
 IR Inten    --    158.8822               120.5156                30.1074

                     94                     95                     96
                      A                      A                      A
 Frequencies --   2978.8170              2983.6386              2990.1039
 Red. masses --      1.0710                 1.0693                 1.0714
 Frc consts  --      5.5993                 5.6083                 5.6437
 IR Inten    --     27.8328                40.4112               108.6391

                     97                     98                     99
                      A                      A                      A
 Frequencies --   3021.3542              3024.6340              3033.5851
 Red. masses --      1.0591                 1.0674                 1.0626
 Frc consts  --      5.6962                 5.7532                 5.7615
 IR Inten    --     44.0958                47.1843                27.2177

                    100                    101                    102
                      A                      A                      A
 Frequencies --   3057.7068              3060.3616              3065.9114
 Red. masses --      1.0634                 1.0690                 1.0911
 Frc consts  --      5.8580                 5.8988                 6.0430
 IR Inten    --     33.7893                23.0833                35.6696

                    103                    104                    105
                      A                      A                      A
 Frequencies --   3066.6686              3068.4315              3073.3659
 Red. masses --      1.0979                 1.0625                 1.0963
 Frc consts  --      6.0832                 5.8938                 6.1008
 IR Inten    --     32.5701                18.1403                22.3381

                    106                    107                    108
                      A                      A                      A
 Frequencies --   3081.5520              3090.4158              3095.4455
 Red. masses --      1.0902                 1.0990                 1.0948
 Frc consts  --      6.0996                 6.1840                 6.1805
 IR Inten    --     27.1358                 7.3213                83.6206

                    109                    110                    111
                      A                      A                      A
 Frequencies --   3100.7170              3101.8496              3106.8246
 Red. masses --      1.0934                 1.1005                 1.0934
 Frc consts  --      6.1936                 6.2384                 6.2180
 IR Inten    --     57.2345                16.7072                42.0782

                    112                    113                    114
                      A                      A                      A
 Frequencies --   3115.9205              3136.8045              3558.9239
 Red. masses --      1.1017                 1.0963                 1.0759
 Frc consts  --      6.3021                 6.3553                 8.0291
 IR Inten    --     37.6485                14.5380                 1.8242

 - Thermochemistry -
 -------------------
 Temperature   298.150 Kelvin.  Pressure   1.00000 Atm.
 Atom     1 has atomic number  6 and mass  12.00000

 Molecular mass:   241.17903 amu.
 Principal axes and moments of inertia in atomic units:
                           1         2         3
     Eigenvalues --  1706.792627019.870617466.15929
           X            0.99998  -0.00546   0.00126
           Y            0.00545   0.99997   0.00552
           Z           -0.00129  -0.00551   0.99998
 This molecule is an asymmetric top.
 Rotational symmetry number  1.
 Warning -- assumption of classical behavior for rotation
           may cause significant error
 Rotational temperatures (Kelvin)      0.05075     0.01234     0.01160
 Rotational constants (GHZ):           1.05739     0.25709     0.24172
 Zero-point vibrational energy     947236.0 (Joules/Mol)
                                  226.39484 (Kcal/Mol)
 Warning -- explicit consideration of  25 degrees of freedom as
           vibrations may cause significant error
 Vibrational temperatures:     47.47    77.90    83.68   121.69   155.11
          (Kelvin)            193.11   240.32   291.80   314.37   316.43
                              347.49   398.51   451.85   462.83   504.04
                              555.91   574.07   617.76   642.16   666.19
                              702.78   736.07   772.23   800.21   847.70
                              906.14   930.48   988.42  1034.90  1102.86
                             1202.28  1222.73  1226.34  1240.08  1292.74
                             1303.86  1317.96  1327.30  1381.51  1427.67
                             1442.95  1474.63  1503.47  1525.83  1547.35
                             1564.73  1579.48  1588.50  1609.10  1619.33
                             1643.95  1649.35  1706.10  1711.31  1717.81
                             1725.54  1766.32  1796.92  1797.58  1843.95
                             1865.00  1881.00  1904.35  1915.66  1919.31
                             1935.10  1970.34  1979.54  1995.46  2007.55
                             2020.86  2023.75  2027.66  2032.01  2057.25
                             2062.32  2073.88  2090.01  2139.20  2145.71
                             2151.14  2163.32  2176.27  2179.90  2185.85
                             2191.31  2193.81  2201.52  2202.91  2203.73
                             2585.23  4232.62  4246.46  4285.85  4292.79
                             4302.09  4347.05  4351.77  4364.65  4399.36
                             4403.18  4411.16  4412.25  4414.79  4421.89
                             4433.67  4446.42  4453.66  4461.24  4462.87
                             4470.03  4483.11  4513.16  5120.50

 Zero-point correction=                           0.360783 (Hartree/Particle)
 Thermal correction to Energy=                    0.376849
 Thermal correction to Enthalpy=                  0.377793
 Thermal correction to Gibbs Free Energy=         0.317169
 Sum of electronic and zero-point Energies=           -785.495937
 Sum of electronic and thermal Energies=              -785.479871
 Sum of electronic and thermal Enthalpies=            -785.478927
 Sum of electronic and thermal Free Energies=         -785.539551

                     E (Thermal)             CV                S
                      KCal/Mol        Cal/Mol-Kelvin    Cal/Mol-Kelvin
 Total                  236.476             63.644            127.595
 Electronic               0.000              0.000              0.000
 Translational            0.889              2.981             42.342
 Rotational               0.889              2.981             32.859
 Vibrational            234.699             57.682             52.394
 Vibration     1          0.594              1.983              5.641
 Vibration     2          0.596              1.976              4.660
 Vibration     3          0.596              1.974              4.519
 Vibration     4          0.601              1.960              3.782
 Vibration     5          0.606              1.943              3.308
 Vibration     6          0.613              1.919              2.885
 Vibration     7          0.624              1.883              2.469
 Vibration     8          0.639              1.836              2.107
 Vibration     9          0.646              1.813              1.972
 Vibration    10          0.647              1.811              1.960
 Vibration    11          0.658              1.777              1.792
 Vibration    12          0.678              1.716              1.552
 Vibration    13          0.702              1.647              1.341
 Vibration    14          0.707              1.632              1.302
 Vibration    15          0.727              1.575              1.165
 Vibration    16          0.755              1.499              1.014
 Vibration    17          0.765              1.472              0.966
 Vibration    18          0.791              1.406              0.861
 Vibration    19          0.806              1.369              0.807
 Vibration    20          0.821              1.332              0.757
 Vibration    21          0.844              1.276              0.688
 Vibration    22          0.867              1.224              0.630
 Vibration    23          0.892              1.169              0.572
 Vibration    24          0.912              1.126              0.532
 Vibration    25          0.946              1.055              0.469

 Optimization completed.
    -- Stationary point found.
 Normal termination of Gaussian 16 at Fri Dec 11 13:41:37 2020.

 ----------------------------------------------------------------------
 # B3LYP/6-311++G(d,p) empiricaldispersion=gd3bj scf=xqc pop=npa geom=c
 heck
 ----------------------------------------------------------------------

 ---------------------------------------
 CID_117015327_JID_7838_Energie_neutraal
 ---------------------------------------
 Structure from the checkpoint file:  "JID_7838.chk"
 Charge =  0 Multiplicity = 1

 SCF Done:  E(RB3LYP) =  -786.080582624     A.U. after   14 cycles
 Normal termination of Gaussian 16 at Fri Dec 11 13:50:24 2020.

 ----------------------------------------------------------------------
 # B3LYP/6-311++G(d,p) empiricaldispersion=gd3bj scf=xqc pop=npa geom=c
 heck
 ----------------------------------------------------------------------

 -------------------------------------
 CID_117015327_JID_7838_Energie_kation
 -------------------------------------
 Structure from the checkpoint file:  "JID_7838.chk"
 Charge =  1 Multiplicity = 2

 SCF Done:  E(UB3LYP) =  -785.809649587     A.U. after   31 cycles
 Normal termination of Gaussian 16 at Fri Dec 11 14:16:39 2020.
 Gaussian 16:  ES64L-G16RevA.03 25-Dec-2016

 ----------------------------------------------------------------------
 # B3LYP/6-311++G(d,p) empiricaldispersion=gd3bj scf=xqc pop=npa geom=c
 heck
 ----------------------------------------------------------------------

 ------------------------------------
 CID_117015327_JID_7838_Energie_anion
 ------------------------------------
 Structure from the checkpoint file:  "JID_7838.chk"
 Charge = -1 Multiplicity = 2

                         Standard orientation:
 ---------------------------------------------------------------------
 Center     Atomic      Atomic             Coordinates (Angstroms)
 Number     Number       Type             X           Y           Z
 ---------------------------------------------------------------------
      1          6           0       -2.304764    1.855178   -0.494786
      2          6           0       -1.249439    1.465297    0.538795
      3          6           0       -1.040777   -0.020898    0.755654
      4          8           0       -0.710658   -0.481045    1.829163
      5          7           0       -1.138412   -0.868816   -0.441084
      6          6           0       -2.359837   -1.699827   -0.394288
      7          6           0       -3.640574   -0.892853   -0.582835
      8          7           0       -3.787473    0.136950    0.446775
      9          6           0       -3.720015    1.515786   -0.021528
     10          6           0        0.050359   -1.733517   -0.548131
     11          6           0        1.268694   -0.962913   -1.053361
     12          7           0        1.647299    0.141206   -0.174621
     13          6           0        2.442735    1.187008   -0.822651
     14          6           0        3.915621    0.799344   -0.979200
     15          8           0        4.480581    0.458189    0.280448
     16          6           0        3.768120   -0.615082    0.891193
     17          6           0        2.293753   -0.257773    1.082873
     18          1           0       -2.083151    1.335580   -1.433086
     19          1           0       -2.246202    2.930631   -0.702594
     20          1           0       -0.269489    1.831420    0.210908
     21          1           0       -1.458607    1.911057    1.516907
     22          1           0       -2.417266   -2.257081    0.556268
     23          1           0       -2.288290   -2.434231   -1.205229
     24          1           0       -4.487498   -1.591065   -0.548285
     25          1           0       -3.642755   -0.439559   -1.583958
     26          1           0       -4.617110   -0.014865    1.008097
     27          1           0       -3.980659    2.159428    0.827641
     28          1           0       -4.441947    1.733730   -0.831426
     29          1           0        0.262868   -2.244492    0.402373
     30          1           0       -0.169491   -2.510928   -1.287388
     31          1           0        2.083247   -1.688356   -1.232557
     32          1           0        1.007637   -0.527981   -2.024155
     33          1           0        2.388605    2.087329   -0.195326
     34          1           0        1.998375    1.427540   -1.795443
     35          1           0        4.017307   -0.046789   -1.680784
     36          1           0        4.505502    1.636376   -1.366491
     37          1           0        4.255149   -0.798317    1.853893
     38          1           0        3.871687   -1.526153    0.277436
     39          1           0        2.220866    0.589771    1.775472
     40          1           0        1.738678   -1.084066    1.532933
 ---------------------------------------------------------------------

 SCF Done:  E(UB3LYP) =  -786.067643813     A.U. after   33 cycles
 SCF Done:  E(UB3LYP) =  -786.067643813     a.u. after    1 cycles

 The electronic state is 2-A.
 Alpha  occ. eigenvalues --  -19.03936 -19.00568 -14.21682 -14.21201 -14.20061
 Alpha  occ. eigenvalues --  -10.17678 -10.12942 -10.12721 -10.10602 -10.10202
 Alpha  occ. eigenvalues --  -10.10178 -10.09871 -10.09661 -10.09583 -10.09463
 Alpha  occ. eigenvalues --  -10.07102 -10.06862  -0.95474  -0.94974  -0.83922
 Alpha  occ. eigenvalues --   -0.82282  -0.80016  -0.69348  -0.68511  -0.66890
 Alpha  occ. eigenvalues --   -0.62477  -0.59832  -0.58361  -0.56791  -0.53249
 Alpha  occ. eigenvalues --   -0.51614  -0.48794  -0.46671  -0.42931  -0.42617
 Alpha  occ. eigenvalues --   -0.41308  -0.39287  -0.39041  -0.38039  -0.37795
 Alpha  occ. eigenvalues --   -0.37099  -0.36612  -0.36399  -0.35913  -0.34628
 Alpha  occ. eigenvalues --   -0.33165  -0.31499  -0.31078  -0.30161  -0.29234
 Alpha  occ. eigenvalues --   -0.28942  -0.28229  -0.27661  -0.27295  -0.26506
 Alpha  occ. eigenvalues --   -0.25943  -0.25249  -0.24816  -0.23931  -0.23329
 Alpha  occ. eigenvalues --   -0.22888  -0.19244  -0.16721  -0.13835  -0.12743
 Alpha  occ. eigenvalues --   -0.11956   0.04121
 Alpha virt. eigenvalues --    0.05626   0.06440   0.07259   0.07541   0.07839
 Alpha virt. eigenvalues --    0.08536   0.08736   0.09267   0.09710   0.10019
 Alpha virt. eigenvalues --    0.10251   0.10824   0.11203   0.11463   0.12457

  Beta  occ. eigenvalues --  -19.03931 -19.00562 -14.21684 -14.21194 -14.20032
  Beta  occ. eigenvalues --  -10.17672 -10.12933 -10.12702 -10.10587 -10.10198
  Beta  occ. eigenvalues --  -10.10160 -10.09859 -10.09649 -10.09563 -10.09434
  Beta  occ. eigenvalues --  -10.07100 -10.06852  -0.95464  -0.94962  -0.83911
  Beta  occ. eigenvalues --   -0.82254  -0.79985  -0.69323  -0.68489  -0.66861
  Beta  occ. eigenvalues --   -0.62441  -0.59795  -0.58334  -0.56763  -0.53210
  Beta  occ. eigenvalues --   -0.51566  -0.48732  -0.46629  -0.42903  -0.42577
  Beta  occ. eigenvalues --   -0.41253  -0.39261  -0.39022  -0.38017  -0.37778
  Beta  occ. eigenvalues --   -0.37059  -0.36586  -0.36369  -0.35882  -0.34600
  Beta  occ. eigenvalues --   -0.33123  -0.31475  -0.31049  -0.30133  -0.29211
  Beta  occ. eigenvalues --   -0.28915  -0.28197  -0.27630  -0.27275  -0.26468
  Beta  occ. eigenvalues --   -0.25918  -0.25220  -0.24790  -0.23903  -0.23301
  Beta  occ. eigenvalues --   -0.22868  -0.19216  -0.16699  -0.13795  -0.12679
  Beta  occ. eigenvalues --   -0.11943
  Beta virt. eigenvalues --    0.06170   0.06703   0.07113   0.07556   0.08147
  Beta virt. eigenvalues --    0.08219   0.08824   0.08878   0.09761   0.09966
  Beta virt. eigenvalues --    0.10418   0.10556   0.11017   0.11361   0.11718

 Mulliken charges and spin densities:
               1          2
     1  C   -0.171202   0.033434
     2  C   -0.558796   0.451005
     3  C   -0.058987  -0.401357
     4  O   -0.124839   0.012785
     5  N    0.071226   0.110526
     6  C   -0.813206   0.874438
     7  C    1.614763  -2.232014
     8  N   -0.577714   0.358939
     9  C    1.045378  -1.529868
    10  C    1.126074  -1.269570
    11  C   -1.081235   0.439585
    12  N   -0.012008   0.074160
    13  C   -0.109640   0.199433
    14  C    0.309469  -0.874069
    15  O   -0.149187   0.037071
    16  C   -0.135886  -0.455627
    17  C   -0.152835   0.144337
    18  H    0.139702  -0.012629
    19  H   -0.145363   0.307424
    20  H   -0.075927   0.304643
    21  H    0.120174   0.056482
    22  H    0.207686  -0.039036
    23  H   -0.256550   0.360022
    24  H   -0.720773   0.907489
    25  H    0.124215   0.039918
    26  H   -0.094813   0.384809
    27  H   -0.081736   0.225677
    28  H   -0.243251   0.384976
    29  H    0.182104  -0.013759
    30  H   -0.276792   0.425639
    31  H    0.115168   0.016149
    32  H   -0.114560   0.285864
    33  H    0.118347   0.022145
    34  H   -0.215210   0.353280
    35  H   -0.142519   0.292117
    36  H   -0.279632   0.481474
    37  H    0.167818   0.012604
    38  H   -0.066763   0.209491
    39  H    0.165496   0.031196
    40  H    0.151801  -0.009184
 Sum of Mulliken charges =  -1.00000   1.00000

 Dipole moment (field-independent basis, Debye):
    X=              4.7446    Y=              0.3377    Z=              2.2120  Tot=              5.2458
 Quadrupole moment (field-independent basis, Debye-Ang):
   XX=           -210.1887   YY=           -144.1514   ZZ=           -144.9063
   XY=             -7.6465   XZ=              5.5977   YZ=             -1.4707

 Summary of Natural Population Analysis:

                                       Natural Population
                Natural  -----------------------------------------------
    Atom  No    Charge         Core      Valence    Rydberg      Total
 -----------------------------------------------------------------------
      C    1   -0.19788      0.99962     2.18986    0.00840     3.19788
      C    2   -0.23704      0.99953     2.22769    0.00982     3.23704
      C    3    0.39401      0.99967     1.57839    0.02794     2.60599
      O    4   -0.30480      0.99986     3.29858    0.00636     4.30480
      N    5   -0.31897      0.99968     2.80631    0.01299     3.81897
      C    6   -0.08089      0.99959     2.06977    0.01153     3.08089
      C    7   -0.09157      0.99961     2.07982    0.01214     3.09157
      N    8   -0.34613      0.99973     2.83308    0.01332     3.84613
      C    9   -0.08108      0.99962     2.06987    0.01159     3.08108
      C   10   -0.08714      0.99960     2.07568    0.01186     3.08714
      C   11   -0.08765      0.99959     2.07526    0.01280     3.08765
      N   12   -0.28701      0.99974     2.77362    0.01365     3.78701
      C   13   -0.09656      0.99961     2.08504    0.01192     3.09656
      C   14   -0.02066      0.99958     2.00799    0.01309     3.02066
      O   15   -0.30165      0.99989     3.29234    0.00941     4.30165
      C   16   -0.01910      0.99958     2.00888    0.01064     3.01910
      C   17   -0.10274      0.99961     2.09317    0.00996     3.10274
      H   18    0.10386      0.00000     0.39386    0.00228     0.39614
      H   19    0.09960      0.00000     0.39934    0.00107     0.40040
      H   20    0.12016      0.00000     0.37824    0.00160     0.37984
      H   21    0.10336      0.00000     0.39518    0.00147     0.39664
      H   22    0.08683      0.00000     0.41167    0.00150     0.41317
      H   23    0.09553      0.00000     0.40287    0.00160     0.40447
      H   24    0.09763      0.00000     0.40007    0.00231     0.40237
      H   25    0.08843      0.00000     0.40952    0.00206     0.41157
      H   26    0.18423      0.00000     0.31239    0.00338     0.31577
      H   27    0.09245      0.00000     0.40630    0.00125     0.40755
      H   28    0.08171      0.00000     0.41682    0.00147     0.41829
      H   29    0.09083      0.00000     0.40771    0.00146     0.40917
      H   30    0.09916      0.00000     0.39955    0.00129     0.40084
      H   31    0.08426      0.00000     0.41406    0.00168     0.41574
      H   32    0.10026      0.00000     0.39786    0.00189     0.39974
      H   33    0.09358      0.00000     0.40507    0.00135     0.40642
      H   34    0.10091      0.00000     0.39764    0.00145     0.39909
      H   35    0.07874      0.00000     0.41981    0.00145     0.42126
      H   36    0.09184      0.00000     0.40678    0.00138     0.40816
      H   37    0.08991      0.00000     0.40895    0.00114     0.41009
      H   38    0.07787      0.00000     0.42080    0.00132     0.42213
      H   39    0.09727      0.00000     0.40153    0.00120     0.40273
      H   40    0.10844      0.00000     0.39043    0.00113     0.39156
 =======================================================================
   * Total *   -0.00000     16.99409    48.76178    0.24413    66.00000

 Normal termination of Gaussian 16 at Fri Dec 11 14:44:24 2020.
