 Gaussian 16, Revision A.03,

 -----------------------------------------------------------
 # opt freq B3LYP/6-31G(d) empiricaldispersion=gd3bj scf=xqc
 -----------------------------------------------------------

 -------------------------------
 CID_151266621_JID_6182_neutraal
 -------------------------------
 Symbolic Z-matrix:
 Charge =  0 Multiplicity = 1

 SCF Done:  E(RB3LYP) =  -1147.36391304     A.U. after   16 cycles
 SCF Done:  E(RB3LYP) =  -1147.38285045     A.U. after   15 cycles
 SCF Done:  E(RB3LYP) =  -1147.38598526     A.U. after   14 cycles
 SCF Done:  E(RB3LYP) =  -1147.38707145     A.U. after   13 cycles
 SCF Done:  E(RB3LYP) =  -1147.38764347     A.U. after   13 cycles
 SCF Done:  E(RB3LYP) =  -1147.38794157     A.U. after   14 cycles
 SCF Done:  E(RB3LYP) =  -1147.38825104     A.U. after   12 cycles
 SCF Done:  E(RB3LYP) =  -1147.38859759     A.U. after   14 cycles
 SCF Done:  E(RB3LYP) =  -1147.38870587     A.U. after   13 cycles
 SCF Done:  E(RB3LYP) =  -1147.38885386     A.U. after   13 cycles
 SCF Done:  E(RB3LYP) =  -1147.38981329     A.U. after   12 cycles
 SCF Done:  E(RB3LYP) =  -1147.38983101     A.U. after   12 cycles
 SCF Done:  E(RB3LYP) =  -1147.38983155     A.U. after    9 cycles
 SCF Done:  E(RB3LYP) =  -1147.38983152     A.U. after    8 cycles
 SCF Done:  E(RB3LYP) =  -1147.38983207     A.U. after    9 cycles
 SCF Done:  E(RB3LYP) =  -1147.38983211     A.U. after    8 cycles
 Optimization completed.
    -- Stationary point found.
 Normal termination of Gaussian 16 at Thu Dec 10 21:26:38 2020.

 --------------------------------------------------------------------
 #N Geom=AllCheck Guess=TCheck SCRF=Check GenChk RB3LYP/6-31G(d) Freq
 --------------------------------------------------------------------

 Structure from the checkpoint file:  "JID_6182.chk"
 -------------------------------
 CID_151266621_JID_6182_neutraal
 -------------------------------
 Charge =  0 Multiplicity = 1

 SCF Done:  E(RB3LYP) =  -1147.38983211     A.U. after    1 cycles

  Exact polarizability: 162.678 -16.309 130.822 -10.743  -8.186  95.701
 Approx polarizability: 249.827 -42.426 235.935 -33.486  -3.398 195.907

                      1                      2                      3
                      A                      A                      A
 Frequencies --     16.3616                22.5609                63.6774
 Red. masses --      9.9806                 6.4922                 9.8236
 Frc consts  --      0.0016                 0.0019                 0.0235
 IR Inten    --      0.6043                 0.4992                 0.5008

                      4                      5                      6
                      A                      A                      A
 Frequencies --     68.7985               152.9003               163.1922
 Red. masses --      8.2361                12.0418                 8.8621
 Frc consts  --      0.0230                 0.1659                 0.1391
 IR Inten    --      1.4610                 0.6576                 1.1727

                      7                      8                      9
                      A                      A                      A
 Frequencies --    219.4278               235.7389               270.0984
 Red. masses --      7.2633                 4.8082                13.0629
 Frc consts  --      0.2060                 0.1574                 0.5615
 IR Inten    --      1.9072                 1.1924                 0.7070

                     10                     11                     12
                      A                      A                      A
 Frequencies --    345.4678               362.9907               378.7281
 Red. masses --      6.2859                 7.9880                 1.5556
 Frc consts  --      0.4420                 0.6201                 0.1315
 IR Inten    --      7.3588                 9.3743                64.7507

                     13                     14                     15
                      A                      A                      A
 Frequencies --    400.0243               415.9134               428.0031
 Red. masses --      6.5922                 1.3913                 8.7559
 Frc consts  --      0.6215                 0.1418                 0.9450
 IR Inten    --     28.6378                80.5665                 1.2185

                     16                     17                     18
                      A                      A                      A
 Frequencies --    444.9331               482.6643               520.3831
 Red. masses --      3.0451                 7.4734                 8.3718
 Frc consts  --      0.3552                 1.0258                 1.3357
 IR Inten    --      3.3759                 8.1816                77.6814

                     19                     20                     21
                      A                      A                      A
 Frequencies --    554.0330               559.9670               580.2265
 Red. masses --      5.5645                11.8279                11.8710
 Frc consts  --      1.0064                 2.1852                 2.3547
 IR Inten    --     33.1579                 7.0653                90.8829

                     22                     23                     24
                      A                      A                      A
 Frequencies --    617.1396               658.9955               678.5837
 Red. masses --      4.6019                 3.7090                 4.0991
 Frc consts  --      1.0326                 0.9490                 1.1121
 IR Inten    --     71.5137                50.8417                 3.9094

                     25                     26                     27
                      A                      A                      A
 Frequencies --    723.1185               761.1831               786.8275
 Red. masses --     13.9293                 3.3299                 4.6178
 Frc consts  --      4.2914                 1.1367                 1.6844
 IR Inten    --     28.5200                10.0886                 4.6246

                     28                     29                     30
                      A                      A                      A
 Frequencies --    809.5440               848.6911               859.8166
 Red. masses --      2.0323                 2.9141                 1.4677
 Frc consts  --      0.7847                 1.2367                 0.6393
 IR Inten    --     10.3486                24.8364                21.3696

                     31                     32                     33
                      A                      A                      A
 Frequencies --    882.5757               928.9755               943.8574
 Red. masses --      2.9635                 1.5836                 1.3742
 Frc consts  --      1.3601                 0.8052                 0.7213
 IR Inten    --     95.2214                59.3596                16.3325

                     34                     35                     36
                      A                      A                      A
 Frequencies --    956.7034               982.1225              1111.1707
 Red. masses --      4.2344                 2.9901                 3.7777
 Frc consts  --      2.2835                 1.6993                 2.7481
 IR Inten    --     47.9514                 9.1829                11.5342

                     37                     38                     39
                      A                      A                      A
 Frequencies --   1139.3867              1169.5267              1178.7043
 Red. masses --     12.4135                 1.3559                 1.8765
 Frc consts  --      9.4948                 1.0927                 1.5361
 IR Inten    --    190.1510                 0.5793                20.9167

                     40                     41                     42
                      A                      A                      A
 Frequencies --   1251.4183              1271.1325              1273.8614
 Red. masses --      2.3380                 4.5132                 2.1306
 Frc consts  --      2.1572                 4.2965                 2.0371
 IR Inten    --     11.4352               136.2695                34.7965

                     43                     44                     45
                      A                      A                      A
 Frequencies --   1309.0731              1317.9870              1346.1582
 Red. masses --      2.1711                 1.9627                 4.9922
 Frc consts  --      2.1921                 2.0087                 5.3301
 IR Inten    --      3.2935                19.5696               113.0904

                     46                     47                     48
                      A                      A                      A
 Frequencies --   1376.8577              1410.8849              1443.7684
 Red. masses --      6.9857                 1.7637                 3.0706
 Frc consts  --      7.8026                 2.0685                 3.7711
 IR Inten    --     31.5826                86.6467                 8.6653

                     49                     50                     51
                      A                      A                      A
 Frequencies --   1474.3512              1518.4816              1558.5785
 Red. masses --      3.4237                 3.1144                 4.0636
 Frc consts  --      4.3848                 4.2310                 5.8159
 IR Inten    --      7.8847                 0.8873                38.5694

                     52                     53                     54
                      A                      A                      A
 Frequencies --   1635.7426              1681.9330              2275.5902
 Red. masses --      5.4838                 6.7857                14.0026
 Frc consts  --      8.6449                11.3100                42.7214
 IR Inten    --      1.0403                10.5793               438.0387

                     55                     56                     57
                      A                      A                      A
 Frequencies --   3204.6783              3219.6120              3229.4902
 Red. masses --      1.0879                 1.0958                 1.0923
 Frc consts  --      6.5827                 6.6922                 6.7119
 IR Inten    --      4.0730                 7.1750                 1.0117

                     58                     59                     60
                      A                      A                      A
 Frequencies --   3266.1323              3542.6619              3674.5866
 Red. masses --      1.0963                 1.0755                 1.0811
 Frc consts  --      6.8904                 7.9526                 8.6009
 IR Inten    --      4.2756                51.8159                92.1840

 - Thermochemistry -
 -------------------
 Temperature   298.150 Kelvin.  Pressure   1.00000 Atm.
 Atom     1 has atomic number  6 and mass  12.00000

 Molecular mass:   238.02730 amu.
 Principal axes and moments of inertia in atomic units:
                           1         2         3
     Eigenvalues --  1807.346566172.629217012.16857
           X            0.99999  -0.00215  -0.00420
           Y            0.00200   0.99936  -0.03582
           Z            0.00427   0.03581   0.99935
 This molecule is an asymmetric top.
 Rotational symmetry number  1.
 Warning -- assumption of classical behavior for rotation
           may cause significant error
 Rotational temperatures (Kelvin)      0.04792     0.01403     0.01235
 Rotational constants (GHZ):           0.99856     0.29238     0.25737
 Zero-point vibrational energy     388822.2 (Joules/Mol)
                                   92.93073 (Kcal/Mol)
 Warning -- explicit consideration of  22 degrees of freedom as
           vibrations may cause significant error
 Vibrational temperatures:     23.54    32.46    91.62    98.99   219.99
          (Kelvin)            234.80   315.71   339.18   388.61   497.05
                              522.26   544.91   575.55   598.41   615.80
                              640.16   694.45   748.72   797.13   805.67
                              834.82   887.93   948.15   976.33  1040.41
                             1095.17  1132.07  1164.75  1221.08  1237.08
                             1269.83  1336.59  1358.00  1376.48  1413.06
                             1598.73  1639.32  1682.69  1695.89  1800.51
                             1828.88  1832.80  1883.46  1896.29  1936.82
                             1980.99  2029.95  2077.26  2121.26  2184.76
                             2242.45  2353.47  2419.93  3274.07  4610.82
                             4632.30  4646.52  4699.24  5097.10  5286.91

 Zero-point correction=                           0.148095 (Hartree/Particle)
 Thermal correction to Energy=                    0.161584
 Thermal correction to Enthalpy=                  0.162528
 Thermal correction to Gibbs Free Energy=         0.105166
 Sum of electronic and zero-point Energies=          -1147.241738
 Sum of electronic and thermal Energies=             -1147.228249
 Sum of electronic and thermal Enthalpies=           -1147.227304
 Sum of electronic and thermal Free Energies=        -1147.284666

                     E (Thermal)             CV                S
                      KCal/Mol        Cal/Mol-Kelvin    Cal/Mol-Kelvin
 Total                  101.395             50.590            120.728
 Electronic               0.000              0.000              0.000
 Translational            0.889              2.981             42.303
 Rotational               0.889              2.981             32.725
 Vibrational             99.618             44.629             45.700
 Vibration     1          0.593              1.986              7.033
 Vibration     2          0.593              1.985              6.395
 Vibration     3          0.597              1.972              4.340
 Vibration     4          0.598              1.969              4.187
 Vibration     5          0.619              1.899              2.636
 Vibration     6          0.623              1.888              2.512
 Vibration     7          0.647              1.811              1.964
 Vibration     8          0.655              1.786              1.835
 Vibration     9          0.674              1.728              1.596
 Vibration    10          0.724              1.584              1.187
 Vibration    11          0.737              1.548              1.109
 Vibration    12          0.749              1.515              1.044
 Vibration    13          0.766              1.470              0.963
 Vibration    14          0.779              1.436              0.906
 Vibration    15          0.790              1.409              0.865
 Vibration    16          0.804              1.372              0.811
 Vibration    17          0.839              1.288              0.703
 Vibration    18          0.875              1.205              0.609
 Vibration    19          0.909              1.131              0.536
 Vibration    20          0.916              1.118              0.524
 Vibration    21          0.937              1.074              0.485
 Vibration    22          0.977              0.996              0.421

 Optimization completed.
    -- Stationary point found.
 Normal termination of Gaussian 16 at Thu Dec 10 21:33:04 2020.

 ----------------------------------------------------------------------
 # B3LYP/6-311++G(d,p) empiricaldispersion=gd3bj scf=xqc pop=npa geom=c
 heck
 ----------------------------------------------------------------------

 ---------------------------------------
 CID_151266621_JID_6182_Energie_neutraal
 ---------------------------------------
 Structure from the checkpoint file:  "JID_6182.chk"
 Charge =  0 Multiplicity = 1

 SCF Done:  E(RB3LYP) =  -1147.62424340     A.U. after   17 cycles
 Normal termination of Gaussian 16 at Thu Dec 10 21:36:07 2020.

 ----------------------------------------------------------------------
 # B3LYP/6-311++G(d,p) empiricaldispersion=gd3bj scf=xqc pop=npa geom=c
 heck
 ----------------------------------------------------------------------

 -------------------------------------
 CID_151266621_JID_6182_Energie_kation
 -------------------------------------
 Structure from the checkpoint file:  "JID_6182.chk"
 Charge =  1 Multiplicity = 2

 SCF Done:  E(UB3LYP) =  -1147.30692685     A.U. after   28 cycles
 Normal termination of Gaussian 16 at Thu Dec 10 21:43:18 2020.
 Gaussian 16:  ES64L-G16RevA.03 25-Dec-2016

 ----------------------------------------------------------------------
 # B3LYP/6-311++G(d,p) empiricaldispersion=gd3bj scf=xqc pop=npa geom=c
 heck
 ----------------------------------------------------------------------

 ------------------------------------
 CID_151266621_JID_6182_Energie_anion
 ------------------------------------
 Structure from the checkpoint file:  "JID_6182.chk"
 Charge = -1 Multiplicity = 2

                         Standard orientation:
 ---------------------------------------------------------------------
 Center     Atomic      Atomic             Coordinates (Angstroms)
 Number     Number       Type             X           Y           Z
 ---------------------------------------------------------------------
      1          6           0       -0.757942   -1.750142    0.453950
      2          6           0       -2.049601   -1.574022    0.915272
      3          6           0       -2.772034   -0.489621    0.391966
      4          6           0       -2.219608    0.394594   -0.573010
      5          6           0       -0.912080    0.184852   -1.037542
      6          6           0       -0.200388   -0.886649   -0.521622
      7          7           0        1.143132   -1.088900   -0.988468
      8         16           0        2.404640   -0.488641   -0.066718
      9          8           0        2.131798   -0.509249    1.368115
     10          8           0        3.618244   -1.068485   -0.620843
     11          7           0        2.289084    1.177537   -0.592810
     12          7           0        2.335122    1.980102    0.360201
     13          7           0        2.358866    2.793447    1.150734
     14          6           0       -3.263651    1.337200   -0.828611
     15          7           0       -4.340065    1.075339   -0.109364
     16          7           0       -4.036431   -0.030965    0.623973
     17          1           0       -0.145255   -2.554395    0.848421
     18          1           0       -2.475588   -2.239006    1.659604
     19          1           0       -0.451881    0.827759   -1.779584
     20          1           0        1.391924   -2.023251   -1.304829
     21          1           0       -3.259206    2.182515   -1.503355
     22          1           0       -4.730708   -0.396679    1.256785
 ---------------------------------------------------------------------

 SCF Done:  E(UB3LYP) =  -1147.64580207     A.U. after   31 cycles

 The electronic state is 2-A.
 Alpha  occ. eigenvalues --  -88.93662 -18.99943 -18.99597 -14.31039 -14.27573
 Alpha  occ. eigenvalues --  -14.22790 -14.22554 -14.22237 -14.22144 -10.10673
 Alpha  occ. eigenvalues --  -10.09541 -10.08331 -10.06778 -10.06683 -10.06544
 Alpha  occ. eigenvalues --  -10.05461  -7.99964  -5.96168  -5.96143  -5.96134
 Alpha  occ. eigenvalues --   -1.01315  -0.98132  -0.93809  -0.89295  -0.82921
 Alpha  occ. eigenvalues --   -0.81877  -0.74136  -0.71963  -0.64979  -0.63430
 Alpha  occ. eigenvalues --   -0.57299  -0.52358  -0.51104  -0.50121  -0.44348
 Alpha  occ. eigenvalues --   -0.43867  -0.41783  -0.39308  -0.37075  -0.36172
 Alpha  occ. eigenvalues --   -0.35465  -0.35033  -0.34137  -0.33720  -0.33077
 Alpha  occ. eigenvalues --   -0.31800  -0.30866  -0.29154  -0.26158  -0.24719
 Alpha  occ. eigenvalues --   -0.24669  -0.23092  -0.21248  -0.20208  -0.19220
 Alpha  occ. eigenvalues --   -0.19041  -0.17224  -0.16530  -0.13706  -0.13080
 Alpha  occ. eigenvalues --   -0.11694   0.03696
 Alpha virt. eigenvalues --    0.06225   0.07138   0.08609   0.09401   0.10290
 Alpha virt. eigenvalues --    0.10850   0.12005   0.12653   0.13351   0.13584
 Alpha virt. eigenvalues --    0.14463   0.15025   0.15457   0.16403   0.16742

  Beta  occ. eigenvalues --  -88.93532 -18.99901 -18.99550 -14.30650 -14.27567
  Beta  occ. eigenvalues --  -14.22736 -14.22338 -14.22216 -14.21514 -10.10694
  Beta  occ. eigenvalues --  -10.09563 -10.08283 -10.06729 -10.06551 -10.06549
  Beta  occ. eigenvalues --  -10.05202  -7.99814  -5.96065  -5.96033  -5.95898
  Beta  occ. eigenvalues --   -1.00966  -0.97420  -0.93638  -0.89160  -0.82517
  Beta  occ. eigenvalues --   -0.81637  -0.73934  -0.71803  -0.64779  -0.63107
  Beta  occ. eigenvalues --   -0.56637  -0.52016  -0.50972  -0.50016  -0.44061
  Beta  occ. eigenvalues --   -0.43689  -0.41624  -0.39120  -0.36282  -0.35529
  Beta  occ. eigenvalues --   -0.34980  -0.34817  -0.33757  -0.33595  -0.32652
  Beta  occ. eigenvalues --   -0.31695  -0.29463  -0.29015  -0.25539  -0.24618
  Beta  occ. eigenvalues --   -0.24134  -0.22964  -0.21082  -0.19889  -0.18969
  Beta  occ. eigenvalues --   -0.18433  -0.16881  -0.15847  -0.13125  -0.12795
  Beta  occ. eigenvalues --   -0.10981
  Beta virt. eigenvalues --    0.07101   0.07874   0.08607   0.09365   0.10221
  Beta virt. eigenvalues --    0.10335   0.11507   0.12040   0.12981   0.13450
  Beta virt. eigenvalues --    0.13716   0.14477   0.15350   0.15465   0.16443

 Mulliken charges and spin densities:
               1          2
     1  C    0.628889  -0.019095
     2  C   -0.590703   0.109058
     3  C   -0.158151  -0.026557
     4  C    1.055712   0.004132
     5  C   -1.109152   0.190572
     6  C   -1.034856   0.014976
     7  N   -0.291902  -0.014843
     8  S    0.454946   0.080964
     9  O   -0.272409   0.014452
    10  O   -0.231469   0.015748
    11  N   -0.456743   0.004003
    12  N    0.251005   0.084653
    13  N   -0.255982   0.366756
    14  C    0.155949   0.034251
    15  N   -0.242604   0.097166
    16  N   -0.042025  -0.004353
    17  H    0.147005   0.026699
    18  H    0.119988  -0.007003
    19  H    0.151138  -0.005918
    20  H    0.284095   0.037093
    21  H    0.148166  -0.002872
    22  H    0.289102   0.000116
 Sum of Mulliken charges =  -1.00000   1.00000

 Dipole moment (field-independent basis, Debye):
    X=             -5.1917    Y=             -4.2203    Z=             -0.8030  Tot=              6.7386
 Quadrupole moment (field-independent basis, Debye-Ang):
   XX=           -151.4443   YY=           -115.8497   ZZ=           -110.3453
   XY=              3.7280   XZ=             -8.7262   YZ=             -7.3718

 Summary of Natural Population Analysis:

                                       Natural Population
                Natural  -----------------------------------------------
    Atom  No    Charge         Core      Valence    Rydberg      Total
 -----------------------------------------------------------------------
      C    1   -0.08539      0.99954     2.07683    0.00902     3.08539
      C    2   -0.10237      0.99954     2.09487    0.00797     3.10237
      C    3    0.07256      0.99950     1.91822    0.00973     2.92744
      C    4   -0.06776      0.99950     2.06088    0.00737     3.06776
      C    5   -0.03134      0.99948     2.02414    0.00772     3.03134
      C    6    0.03831      0.99947     1.94820    0.01402     2.96169
      N    7   -0.42834      0.99971     2.91422    0.01442     3.92834
      S    8    1.16095      4.99935     1.73642    0.10328     6.83905
      O    9   -0.45380      0.99990     3.44745    0.00645     4.45380
      O   10   -0.45908      0.99990     3.45355    0.00564     4.45908
      N   11   -0.31606      0.99973     2.80104    0.01528     3.81606
      N   12    0.13730      0.99971     2.34672    0.01627     3.36270
      N   13    0.05555      0.99982     2.43210    0.01253     3.44445
      C   14   -0.00214      0.99962     1.98746    0.01507     3.00214
      N   15   -0.11903      0.99973     2.60493    0.01436     3.61903
      N   16   -0.18538      0.99965     2.67376    0.01197     3.68538
      H   17    0.10060      0.00000     0.39792    0.00148     0.39940
      H   18    0.09529      0.00000     0.40321    0.00151     0.40471
      H   19    0.10686      0.00000     0.39187    0.00127     0.39314
      H   20    0.19676      0.00000     0.30125    0.00198     0.30324
      H   21    0.09473      0.00000     0.40423    0.00103     0.40527
      H   22    0.19178      0.00000     0.30625    0.00198     0.30822
 =======================================================================
   * Total *   -0.00000     19.99414    40.72551    0.28035    61.00000

 Normal termination of Gaussian 16 at Thu Dec 10 21:51:18 2020.
