 Gaussian 16, Revision A.03,

 -----------------------------------------------------------
 # opt freq B3LYP/6-31G(d) empiricaldispersion=gd3bj scf=xqc
 -----------------------------------------------------------

 -------------------------------
 CID_141498460_JID_5267_neutraal
 -------------------------------
 Symbolic Z-matrix:
 Charge =  0 Multiplicity = 1

 SCF Done:  E(RB3LYP) =  -724.705535942     A.U. after   15 cycles
 SCF Done:  E(RB3LYP) =  -724.712996455     A.U. after   13 cycles
 SCF Done:  E(RB3LYP) =  -724.714522965     A.U. after   12 cycles
 SCF Done:  E(RB3LYP) =  -724.715126034     A.U. after   13 cycles
 SCF Done:  E(RB3LYP) =  -724.715722023     A.U. after   12 cycles
 SCF Done:  E(RB3LYP) =  -724.716036825     A.U. after   13 cycles
 SCF Done:  E(RB3LYP) =  -724.715949578     A.U. after   13 cycles
 SCF Done:  E(RB3LYP) =  -724.716278474     A.U. after   12 cycles
 SCF Done:  E(RB3LYP) =  -724.716327439     A.U. after   13 cycles
 SCF Done:  E(RB3LYP) =  -724.716395696     A.U. after   11 cycles
 SCF Done:  E(RB3LYP) =  -724.716407679     A.U. after    8 cycles
 SCF Done:  E(RB3LYP) =  -724.716408761     A.U. after    9 cycles
 SCF Done:  E(RB3LYP) =  -724.716409120     A.U. after    8 cycles
 SCF Done:  E(RB3LYP) =  -724.716409374     A.U. after    8 cycles
 SCF Done:  E(RB3LYP) =  -724.716409467     A.U. after    8 cycles
 Optimization completed.
    -- Stationary point found.
 Normal termination of Gaussian 16 at Thu Dec 10 15:21:18 2020.

 --------------------------------------------------------------------
 #N Geom=AllCheck Guess=TCheck SCRF=Check GenChk RB3LYP/6-31G(d) Freq
 --------------------------------------------------------------------

 Structure from the checkpoint file:  "JID_5267.chk"
 -------------------------------
 CID_141498460_JID_5267_neutraal
 -------------------------------
 Charge =  0 Multiplicity = 1

 SCF Done:  E(RB3LYP) =  -724.716409467     A.U. after    1 cycles

  Exact polarizability: 157.228   1.189 122.988   3.688   4.736  85.926
 Approx polarizability: 192.843  -6.987 210.128   5.813   6.963 127.953

                      1                      2                      3
                      A                      A                      A
 Frequencies --     20.8323                36.1565                53.3132
 Red. masses --      4.8345                 4.4397                 5.5814
 Frc consts  --      0.0012                 0.0034                 0.0093
 IR Inten    --      0.2252                 0.0208                 0.2773

                      4                      5                      6
                      A                      A                      A
 Frequencies --     60.9472               105.2335               113.8721
 Red. masses --      5.2376                 3.9046                 6.2928
 Frc consts  --      0.0115                 0.0255                 0.0481
 IR Inten    --      0.8561                 0.5580                 2.5341

                      7                      8                      9
                      A                      A                      A
 Frequencies --    136.8874               194.2011               207.9914
 Red. masses --      2.3510                 4.4351                 2.3874
 Frc consts  --      0.0260                 0.0986                 0.0609
 IR Inten    --      2.4797                 0.3868                 1.2613

                     10                     11                     12
                      A                      A                      A
 Frequencies --    215.7970               218.5582               252.1270
 Red. masses --      2.3901                 1.2075                 1.5373
 Frc consts  --      0.0656                 0.0340                 0.0576
 IR Inten    --      0.9678                 0.1276                 1.7378

                     13                     14                     15
                      A                      A                      A
 Frequencies --    274.9895               295.0596               327.9640
 Red. masses --      3.0964                 2.3879                 2.2602
 Frc consts  --      0.1380                 0.1225                 0.1432
 IR Inten    --      1.2767                 3.2939                 0.1559

                     16                     17                     18
                      A                      A                      A
 Frequencies --    339.7087               407.8212               429.8435
 Red. masses --      2.7007                 2.4470                 2.2821
 Frc consts  --      0.1836                 0.2398                 0.2484
 IR Inten    --      0.6738                10.0112                11.9013

                     19                     20                     21
                      A                      A                      A
 Frequencies --    499.2034               545.5476               572.5775
 Red. masses --      3.4831                 3.5122                 3.5993
 Frc consts  --      0.5114                 0.6159                 0.6952
 IR Inten    --      8.3409                14.9725                15.3716

                     22                     23                     24
                      A                      A                      A
 Frequencies --    594.0845               623.6036               630.3206
 Red. masses --      3.0293                 2.7241                 3.3942
 Frc consts  --      0.6299                 0.6241                 0.7945
 IR Inten    --     21.2230                22.7198                37.5200

                     25                     26                     27
                      A                      A                      A
 Frequencies --    689.0566               709.0424               753.1316
 Red. masses --      1.6240                 4.5968                 6.2534
 Frc consts  --      0.4543                 1.3616                 2.0898
 IR Inten    --     47.9517                 4.6589                 5.3934

                     28                     29                     30
                      A                      A                      A
 Frequencies --    758.9812               774.1359               794.9621
 Red. masses --      3.5955                 5.1154                 3.3592
 Frc consts  --      1.2203                 1.8062                 1.2508
 IR Inten    --      3.4712                 5.9952                26.1365

                     31                     32                     33
                      A                      A                      A
 Frequencies --    879.6214               906.6063               934.2056
 Red. masses --      2.9126                 8.1293                 2.2621
 Frc consts  --      1.3278                 3.9368                 1.1632
 IR Inten    --      7.2691                80.0287                57.6471

                     34                     35                     36
                      A                      A                      A
 Frequencies --    962.8672               969.7909               972.2138
 Red. masses --      1.5277                 1.4568                 1.9828
 Frc consts  --      0.8345                 0.8073                 1.1042
 IR Inten    --     31.8069                 1.3509                56.3517

                     37                     38                     39
                      A                      A                      A
 Frequencies --    984.0266              1030.5092              1041.1949
 Red. masses --      2.4273                 1.1335                 1.3564
 Frc consts  --      1.3848                 0.7092                 0.8664
 IR Inten    --     34.5748                31.4939                 4.8825

                     40                     41                     42
                      A                      A                      A
 Frequencies --   1044.9089              1082.5887              1090.2392
 Red. masses --      1.8409                 2.1373                 2.2267
 Frc consts  --      1.1842                 1.4758                 1.5594
 IR Inten    --     56.2985                34.2041                40.0379

                     43                     44                     45
                      A                      A                      A
 Frequencies --   1151.4710              1201.5081              1220.0746
 Red. masses --      2.9279                 3.5088                 1.4789
 Frc consts  --      2.2872                 2.9844                 1.2970
 IR Inten    --      8.1343                 4.6030                25.0183

                     46                     47                     48
                      A                      A                      A
 Frequencies --   1239.4050              1266.1436              1289.4005
 Red. masses --      2.8690                 1.9851                 2.9940
 Frc consts  --      2.5966                 1.8750                 2.9328
 IR Inten    --     80.1105                93.7464                19.5689

                     49                     50                     51
                      A                      A                      A
 Frequencies --   1315.6533              1321.6256              1371.1277
 Red. masses --      1.6604                 1.3035                 1.8824
 Frc consts  --      1.6933                 1.3415                 2.0851
 IR Inten    --     46.9455                 0.3290               161.3047

                     52                     53                     54
                      A                      A                      A
 Frequencies --   1387.9788              1419.0241              1423.1490
 Red. masses --      1.5790                 1.2188                 1.4427
 Frc consts  --      1.7922                 1.4460                 1.7216
 IR Inten    --      8.7010                 4.3744                11.6780

                     55                     56                     57
                      A                      A                      A
 Frequencies --   1440.0377              1473.4427              1486.9873
 Red. masses --      1.2122                 1.3214                 1.1098
 Frc consts  --      1.4810                 1.6903                 1.4458
 IR Inten    --      2.8276                30.2620                10.2488

                     58                     59                     60
                      A                      A                      A
 Frequencies --   1507.7874              1509.6113              1513.6527
 Red. masses --      1.0504                 1.7715                 1.0437
 Frc consts  --      1.4070                 2.3787                 1.4089
 IR Inten    --      4.9070               110.3105                 0.2208

                     61                     62                     63
                      A                      A                      A
 Frequencies --   1525.3283              1528.0178              1536.7128
 Red. masses --      1.0603                 1.0858                 1.0527
 Frc consts  --      1.4535                 1.4937                 1.4646
 IR Inten    --      5.5211                 5.7643                 6.8594

                     64                     65                     66
                      A                      A                      A
 Frequencies --   1705.4798              1749.0903              1775.8068
 Red. masses --      4.5018                10.8756                 7.7207
 Frc consts  --      7.7148                19.6033                14.3450
 IR Inten    --     45.5692               236.2405               296.6503

                     67                     68                     69
                      A                      A                      A
 Frequencies --   1920.3124              3038.1144              3064.8171
 Red. masses --     12.7740                 1.0737                 1.0589
 Frc consts  --     27.7536                 5.8392                 5.8603
 IR Inten    --    265.2923                31.5791                 6.2666

                     70                     71                     72
                      A                      A                      A
 Frequencies --   3064.8666              3067.6853              3130.5801
 Red. masses --      1.0385                 1.0342                 1.0992
 Frc consts  --      5.7475                 5.7345                 6.3474
 IR Inten    --     28.3333                10.0028                 8.2210

                     73                     74                     75
                      A                      A                      A
 Frequencies --   3140.2229              3142.0700              3148.5909
 Red. masses --      1.1037                 1.1033                 1.1048
 Frc consts  --      6.4127                 6.4174                 6.4528
 IR Inten    --     14.2121                22.4910                 0.0562

                     76                     77                     78
                      A                      A                      A
 Frequencies --   3152.9809              3162.8691              3166.9448
 Red. masses --      1.1040                 1.0871                 1.0618
 Frc consts  --      6.4664                 6.4076                 6.2746
 IR Inten    --     18.5732                 3.3126                 7.8511

                     79                     80                     81
                      A                      A                      A
 Frequencies --   3198.5822              3246.4787              3591.1546
 Red. masses --      1.0926                 1.1158                 1.0755
 Frc consts  --      6.5860                 6.9290                 8.1722
 IR Inten    --      2.2625                17.9215                45.1712

 - Thermochemistry -
 -------------------
 Temperature   298.150 Kelvin.  Pressure   1.00000 Atm.
 Atom     1 has atomic number  6 and mass  12.00000

 Molecular mass:   210.10044 amu.
 Principal axes and moments of inertia in atomic units:
                           1         2         3
     Eigenvalues --  1304.289966538.105427250.64997
           X            0.99997   0.00788   0.00247
           Y           -0.00793   0.99976   0.02047
           Z           -0.00231  -0.02049   0.99979
 This molecule is an asymmetric top.
 Rotational symmetry number  1.
 Warning -- assumption of classical behavior for rotation
           may cause significant error
 Rotational temperatures (Kelvin)      0.06641     0.01325     0.01195
 Rotational constants (GHZ):           1.38370     0.27603     0.24891
 Zero-point vibrational energy     622832.8 (Joules/Mol)
                                  148.86061 (Kcal/Mol)
 Warning -- explicit consideration of  22 degrees of freedom as
           vibrations may cause significant error
 Vibrational temperatures:     29.97    52.02    76.71    87.69   151.41
          (Kelvin)            163.84   196.95   279.41   299.25   310.48
                              314.46   362.75   395.65   424.52   471.87
                              488.77   586.76   618.45   718.24   784.92
                              823.81   854.76   897.23   906.89   991.40
                             1020.15  1083.59  1092.00  1113.81  1143.77
                             1265.58  1304.40  1344.11  1385.35  1395.31
                             1398.80  1415.79  1482.67  1498.05  1503.39
                             1557.60  1568.61  1656.71  1728.70  1755.42
                             1783.23  1821.70  1855.16  1892.93  1901.52
                             1972.75  1996.99  2041.66  2047.59  2071.89
                             2119.96  2139.44  2169.37  2171.99  2177.81
                             2194.61  2198.48  2210.99  2453.81  2516.55
                             2554.99  2762.90  4371.17  4409.59  4409.66
                             4413.71  4504.21  4518.08  4520.74  4530.12
                             4536.44  4550.66  4556.53  4602.05  4670.96
                             5166.87

 Zero-point correction=                           0.237224 (Hartree/Particle)
 Thermal correction to Energy=                    0.252736
 Thermal correction to Enthalpy=                  0.253680
 Thermal correction to Gibbs Free Energy=         0.192687
 Sum of electronic and zero-point Energies=           -724.479185
 Sum of electronic and thermal Energies=              -724.463673
 Sum of electronic and thermal Enthalpies=            -724.462729
 Sum of electronic and thermal Free Energies=         -724.523722

                     E (Thermal)             CV                S
                      KCal/Mol        Cal/Mol-Kelvin    Cal/Mol-Kelvin
 Total                  158.594             56.497            128.371
 Electronic               0.000              0.000              0.000
 Translational            0.889              2.981             41.931
 Rotational               0.889              2.981             32.492
 Vibrational            156.817             50.535             53.948
 Vibration     1          0.593              1.986              6.553
 Vibration     2          0.594              1.982              5.459
 Vibration     3          0.596              1.976              4.691
 Vibration     4          0.597              1.973              4.426
 Vibration     5          0.605              1.945              3.355
 Vibration     6          0.607              1.938              3.202
 Vibration     7          0.614              1.916              2.847
 Vibration     8          0.635              1.848              2.187
 Vibration     9          0.641              1.828              2.061
 Vibration    10          0.645              1.817              1.994
 Vibration    11          0.646              1.813              1.971
 Vibration    12          0.664              1.759              1.716
 Vibration    13          0.677              1.720              1.565
 Vibration    14          0.689              1.683              1.445
 Vibration    15          0.711              1.620              1.270
 Vibration    16          0.720              1.596              1.214
 Vibration    17          0.772              1.453              0.934
 Vibration    18          0.791              1.405              0.859
 Vibration    19          0.855              1.252              0.660
 Vibration    20          0.901              1.149              0.553
 Vibration    21          0.929              1.091              0.499
 Vibration    22          0.952              1.044              0.460

 Optimization completed.
    -- Stationary point found.
 Normal termination of Gaussian 16 at Thu Dec 10 15:28:44 2020.

 ----------------------------------------------------------------------
 # B3LYP/6-311++G(d,p) empiricaldispersion=gd3bj scf=xqc pop=npa geom=c
 heck
 ----------------------------------------------------------------------

 ---------------------------------------
 CID_141498460_JID_5267_Energie_neutraal
 ---------------------------------------
 Structure from the checkpoint file:  "JID_5267.chk"
 Charge =  0 Multiplicity = 1

 SCF Done:  E(RB3LYP) =  -724.929053760     A.U. after   15 cycles
 Normal termination of Gaussian 16 at Thu Dec 10 15:32:43 2020.

 ----------------------------------------------------------------------
 # B3LYP/6-311++G(d,p) empiricaldispersion=gd3bj scf=xqc pop=npa geom=c
 heck
 ----------------------------------------------------------------------

 -------------------------------------
 CID_141498460_JID_5267_Energie_kation
 -------------------------------------
 Structure from the checkpoint file:  "JID_5267.chk"
 Charge =  1 Multiplicity = 2

 SCF Done:  E(UB3LYP) =  -724.598464871     A.U. after   30 cycles
 Normal termination of Gaussian 16 at Thu Dec 10 15:44:31 2020.
 Gaussian 16:  ES64L-G16RevA.03 25-Dec-2016

 ----------------------------------------------------------------------
 # B3LYP/6-311++G(d,p) empiricaldispersion=gd3bj scf=xqc pop=npa geom=c
 heck
 ----------------------------------------------------------------------

 ------------------------------------
 CID_141498460_JID_5267_Energie_anion
 ------------------------------------
 Structure from the checkpoint file:  "JID_5267.chk"
 Charge = -1 Multiplicity = 2

                         Standard orientation:
 ---------------------------------------------------------------------
 Center     Atomic      Atomic             Coordinates (Angstroms)
 Number     Number       Type             X           Y           Z
 ---------------------------------------------------------------------
      1          6           0        3.744727   -0.108686    1.352728
      2          6           0        2.985803   -0.250184    0.026523
      3          6           0        2.153913    1.008332   -0.236733
      4          8           0        2.476572    2.151815   -0.376005
      5          8           0        0.823654    0.586566   -0.294076
      6          6           0        0.850742   -0.793442   -0.073971
      7          7           0        1.987964   -1.327135    0.116296
      8          6           0       -0.482098   -1.463270   -0.070019
      9          6           0       -1.503682   -0.781925    0.864642
     10          7           0       -2.016781    0.468618    0.336577
     11          6           0       -3.321929    0.837101    0.121150
     12          8           0       -3.635648    2.011895   -0.033583
     13          6           0       -4.375272   -0.222267    0.018903
     14          6           0       -4.276503   -1.345065   -0.696435
     15          6           0        3.943951   -0.500578   -1.146150
     16          1           0        4.428055    0.743987    1.301317
     17          1           0        4.316276   -1.020985    1.544883
     18          1           0        3.051958    0.047091    2.185409
     19          1           0       -0.887336   -1.467863   -1.089507
     20          1           0       -0.313720   -2.499397    0.236396
     21          1           0       -2.345024   -1.456466    1.020038
     22          1           0       -1.039532   -0.611934    1.845646
     23          1           0       -1.375734    1.253591    0.316629
     24          1           0       -5.323308    0.068107    0.464237
     25          1           0       -5.125764   -2.009523   -0.828458
     26          1           0       -3.358783   -1.626475   -1.206306
     27          1           0        4.634190    0.341864   -1.249048
     28          1           0        4.513378   -1.415867   -0.962010
     29          1           0        3.392525   -0.618829   -2.083861
 ---------------------------------------------------------------------

 SCF Done:  E(UB3LYP) =  -724.926912226     A.U. after   33 cycles
 SCF Done:  E(UB3LYP) =  -724.926912226     a.u. after    1 cycles

 The electronic state is 2-A.
 Alpha  occ. eigenvalues --  -19.07525 -19.00640 -18.95901 -14.21362 -14.19372
 Alpha  occ. eigenvalues --  -10.18056 -10.15569 -10.14406 -10.12315 -10.10869
 Alpha  occ. eigenvalues --  -10.08495 -10.07605 -10.06977 -10.05256 -10.05001
 Alpha  occ. eigenvalues --   -1.01594  -0.93685  -0.91220  -0.81825  -0.80611
 Alpha  occ. eigenvalues --   -0.70746  -0.66646  -0.65637  -0.60357  -0.57988
 Alpha  occ. eigenvalues --   -0.53206  -0.51145  -0.49624  -0.45828  -0.44946
 Alpha  occ. eigenvalues --   -0.40305  -0.38471  -0.38022  -0.36013  -0.35325
 Alpha  occ. eigenvalues --   -0.34750  -0.33848  -0.33564  -0.32213  -0.31420
 Alpha  occ. eigenvalues --   -0.31054  -0.29554  -0.29241  -0.28666  -0.27288
 Alpha  occ. eigenvalues --   -0.26976  -0.26545  -0.25820  -0.25161  -0.24422
 Alpha  occ. eigenvalues --   -0.20784  -0.17497  -0.16533  -0.15869  -0.14204
 Alpha  occ. eigenvalues --   -0.13124   0.04671
 Alpha virt. eigenvalues --    0.06443   0.07099   0.07877   0.08766   0.09248
 Alpha virt. eigenvalues --    0.09840   0.09995   0.10602   0.11213   0.11370
 Alpha virt. eigenvalues --    0.12293   0.12968   0.13123   0.13226   0.14155

  Beta  occ. eigenvalues --  -19.07580 -19.00449 -18.95775 -14.21335 -14.19275
  Beta  occ. eigenvalues --  -10.17821 -10.15392 -10.14318 -10.12343 -10.10851
  Beta  occ. eigenvalues --  -10.08506 -10.07567 -10.06899 -10.05113 -10.04823
  Beta  occ. eigenvalues --   -1.01451  -0.93389  -0.90997  -0.81684  -0.80516
  Beta  occ. eigenvalues --   -0.70556  -0.66492  -0.65298  -0.60245  -0.57771
  Beta  occ. eigenvalues --   -0.52972  -0.50748  -0.49504  -0.45656  -0.44726
  Beta  occ. eigenvalues --   -0.40123  -0.38356  -0.37626  -0.35810  -0.35140
  Beta  occ. eigenvalues --   -0.34570  -0.33649  -0.33472  -0.32086  -0.31225
  Beta  occ. eigenvalues --   -0.30887  -0.29428  -0.29109  -0.28494  -0.27042
  Beta  occ. eigenvalues --   -0.26593  -0.26463  -0.25667  -0.24537  -0.24224
  Beta  occ. eigenvalues --   -0.20690  -0.16962  -0.15707  -0.15563  -0.13935
  Beta  occ. eigenvalues --   -0.12711
  Beta virt. eigenvalues --    0.06968   0.07947   0.08179   0.08748   0.09267
  Beta virt. eigenvalues --    0.09574   0.10001   0.10248   0.10754   0.11387
  Beta virt. eigenvalues --    0.12050   0.12523   0.13000   0.13159   0.13495

 Mulliken charges and spin densities:
               1          2
     1  C   -0.583025   0.138534
     2  C   -0.270920   0.684163
     3  C    0.072460   0.007522
     4  O   -0.358918   0.060566
     5  O   -0.041406  -0.017834
     6  C   -0.480540   0.402877
     7  N    0.020911   0.078884
     8  C    0.030727  -0.703491
     9  C   -0.132417  -0.108823
    10  N   -0.190663   0.012013
    11  C   -0.102950  -0.041488
    12  O   -0.375670   0.041590
    13  C   -0.013755   0.173018
    14  C   -0.227228  -0.000604
    15  C    0.493602  -0.938153
    16  H    0.140535   0.006407
    17  H    0.162502  -0.014136
    18  H    0.151613   0.002016
    19  H    0.161376   0.041692
    20  H    0.047535   0.112971
    21  H    0.028991   0.160719
    22  H    0.195168  -0.036647
    23  H    0.391005  -0.020778
    24  H    0.118421   0.041477
    25  H   -0.098269   0.204475
    26  H    0.065479   0.044119
    27  H    0.016890   0.127296
    28  H   -0.140219   0.298329
    29  H   -0.081234   0.243286
 Sum of Mulliken charges =  -1.00000   1.00000

 Dipole moment (field-independent basis, Debye):
    X=              3.5973    Y=             -2.1657    Z=              2.8691  Tot=              5.0855
 Quadrupole moment (field-independent basis, Debye-Ang):
   XX=           -167.0787   YY=           -130.4978   ZZ=           -100.5872
   XY=              5.7528   XZ=              4.8752   YZ=              1.0131

 Summary of Natural Population Analysis:

                                       Natural Population
                Natural  -----------------------------------------------
    Atom  No    Charge         Core      Valence    Rydberg      Total
 -----------------------------------------------------------------------
      C    1   -0.27469      0.99962     2.26925    0.00581     3.27469
      C    2   -0.00614      0.99954     1.99295    0.01365     3.00614
      C    3    0.43414      0.99960     1.53801    0.02825     2.56586
      O    4   -0.27259      0.99986     3.26677    0.00596     4.27259
      O    5   -0.29198      0.99986     3.28490    0.00721     4.29198
      C    6    0.31349      0.99956     1.66757    0.01939     2.68651
      N    7   -0.25343      0.99966     2.74391    0.00986     3.75343
      C    8   -0.22564      0.99957     2.21716    0.00890     3.22564
      C    9   -0.08603      0.99962     2.07541    0.01100     3.08603
      N   10   -0.32247      0.99967     2.81378    0.00902     3.82247
      C   11    0.33632      0.99965     1.64170    0.02233     2.66368
      O   12   -0.31416      0.99988     3.30850    0.00577     4.31416
      C   13   -0.11742      0.99953     2.10563    0.01226     3.11742
      C   14   -0.15477      0.99959     2.14697    0.00822     3.15477
      C   15   -0.27677      0.99962     2.26967    0.00748     3.27677
      H   16    0.10284      0.00000     0.39635    0.00081     0.39716
      H   17    0.10046      0.00000     0.39870    0.00084     0.39954
      H   18    0.10065      0.00000     0.39856    0.00078     0.39935
      H   19    0.11323      0.00000     0.38537    0.00140     0.38677
      H   20    0.11283      0.00000     0.38591    0.00126     0.38717
      H   21    0.11269      0.00000     0.38615    0.00116     0.38731
      H   22    0.08809      0.00000     0.41089    0.00102     0.41191
      H   23    0.19862      0.00000     0.29870    0.00269     0.30138
      H   24    0.09691      0.00000     0.40208    0.00101     0.40309
      H   25    0.08947      0.00000     0.40949    0.00104     0.41053
      H   26    0.08769      0.00000     0.41116    0.00114     0.41231
      H   27    0.10305      0.00000     0.39590    0.00104     0.39695
      H   28    0.10209      0.00000     0.39668    0.00123     0.39791
      H   29    0.10350      0.00000     0.39541    0.00109     0.39650
 =======================================================================
   * Total *   -0.00000     14.99483    40.81353    0.19163    56.00000

 Normal termination of Gaussian 16 at Thu Dec 10 15:58:07 2020.
