 Gaussian 16, Revision A.03,

 -----------------------------------------------------------
 # opt freq B3LYP/6-31G(d) empiricaldispersion=gd3bj scf=xqc
 -----------------------------------------------------------

 ------------------------------
 CID_15767250_JID_9278_neutraal
 ------------------------------
 Symbolic Z-matrix:
 Charge =  0 Multiplicity = 1

 SCF Done:  E(RB3LYP) =  -861.057048984     A.U. after   15 cycles
 SCF Done:  E(RB3LYP) =  -861.064146068     A.U. after   13 cycles
 SCF Done:  E(RB3LYP) =  -861.065560363     A.U. after   12 cycles
 SCF Done:  E(RB3LYP) =  -861.066307208     A.U. after   14 cycles
 SCF Done:  E(RB3LYP) =  -861.067229798     A.U. after   12 cycles
 SCF Done:  E(RB3LYP) =  -861.067049623     A.U. after   14 cycles
 SCF Done:  E(RB3LYP) =  -861.067924143     A.U. after   12 cycles
 SCF Done:  E(RB3LYP) =  -861.068086942     A.U. after   12 cycles
 SCF Done:  E(RB3LYP) =  -861.068153906     A.U. after   11 cycles
 SCF Done:  E(RB3LYP) =  -861.068176419     A.U. after   10 cycles
 SCF Done:  E(RB3LYP) =  -861.068200443     A.U. after    9 cycles
 SCF Done:  E(RB3LYP) =  -861.068203189     A.U. after   10 cycles
 SCF Done:  E(RB3LYP) =  -861.068204807     A.U. after   10 cycles
 SCF Done:  E(RB3LYP) =  -861.068205577     A.U. after    9 cycles
 SCF Done:  E(RB3LYP) =  -861.068205627     A.U. after    7 cycles
 Optimization completed.
    -- Stationary point found.
 Normal termination of Gaussian 16 at Sun Dec 13 12:39:56 2020.

 --------------------------------------------------------------------
 #N Geom=AllCheck Guess=TCheck SCRF=Check GenChk RB3LYP/6-31G(d) Freq
 --------------------------------------------------------------------

 Structure from the checkpoint file:  "JID_9278.chk"
 ------------------------------
 CID_15767250_JID_9278_neutraal
 ------------------------------
 Charge =  0 Multiplicity = 1

 SCF Done:  E(RB3LYP) =  -861.068205627     A.U. after    1 cycles

  Exact polarizability: 206.522   5.437 156.945 -19.484  -2.301 141.741
 Approx polarizability: 284.544  14.642 239.494 -40.648 -12.010 242.465

                      1                      2                      3
                      A                      A                      A
 Frequencies --     16.7466                24.8807                31.5928
 Red. masses --      3.9187                 3.7843                 5.1965
 Frc consts  --      0.0006                 0.0014                 0.0031
 IR Inten    --      0.2179                 0.0148                 0.6300

                      4                      5                      6
                      A                      A                      A
 Frequencies --     67.0460                83.1188               118.0304
 Red. masses --      5.0124                 8.0234                 3.5998
 Frc consts  --      0.0133                 0.0327                 0.0295
 IR Inten    --      1.3640                 0.4119                 0.4860

                      7                      8                      9
                      A                      A                      A
 Frequencies --    123.3924               138.8327               170.1149
 Red. masses --      2.4369                 2.0823                 3.6574
 Frc consts  --      0.0219                 0.0236                 0.0624
 IR Inten    --      0.4421                 3.4833                 0.4037

                     10                     11                     12
                      A                      A                      A
 Frequencies --    187.1141               193.3543               229.9103
 Red. masses --      1.3213                 1.6076                 3.1101
 Frc consts  --      0.0273                 0.0354                 0.0969
 IR Inten    --      2.3658                 1.7349                 4.3540

                     13                     14                     15
                      A                      A                      A
 Frequencies --    269.0144               275.8669               346.4631
 Red. masses --      4.6626                 4.6190                 5.2297
 Frc consts  --      0.1988                 0.2071                 0.3699
 IR Inten    --      6.3289                 2.2155                 1.3085

                     16                     17                     18
                      A                      A                      A
 Frequencies --    347.5647               370.7216               396.4126
 Red. masses --      4.7812                 5.6170                 6.3264
 Frc consts  --      0.3403                 0.4548                 0.5857
 IR Inten    --      8.2569                 2.2126                 7.1521

                     19                     20                     21
                      A                      A                      A
 Frequencies --    422.9806               454.1363               472.5727
 Red. masses --      3.0752                 3.6254                 3.2128
 Frc consts  --      0.3242                 0.4405                 0.4227
 IR Inten    --      0.1453                 1.7736                 6.2568

                     22                     23                     24
                      A                      A                      A
 Frequencies --    511.2529               517.0179               564.2749
 Red. masses --      3.3693                 4.9267                 4.3349
 Frc consts  --      0.5189                 0.7759                 0.8132
 IR Inten    --      5.9703                11.3319                 5.9035

                     25                     26                     27
                      A                      A                      A
 Frequencies --    583.6347               625.5028               631.2308
 Red. masses --      5.8178                 6.6186                 6.3649
 Frc consts  --      1.1676                 1.5257                 1.4942
 IR Inten    --      3.6892                12.0823                 2.2540

                     28                     29                     30
                      A                      A                      A
 Frequencies --    675.2189               700.3267               731.4638
 Red. masses --      6.6450                 2.4506                 2.9934
 Frc consts  --      1.7850                 0.7081                 0.9436
 IR Inten    --      6.4112                11.4596                 7.8760

                     31                     32                     33
                      A                      A                      A
 Frequencies --    743.9067               763.5224               778.3253
 Red. masses --      3.1583                 2.0390                 1.6905
 Frc consts  --      1.0298                 0.7003                 0.6034
 IR Inten    --     18.1790                48.5675                18.6696

                     34                     35                     36
                      A                      A                      A
 Frequencies --    805.3878               836.3155               839.7559
 Red. masses --      4.2742                 4.4517                 1.3752
 Frc consts  --      1.6335                 1.8345                 0.5714
 IR Inten    --      8.1365                 1.8338                 1.0010

                     37                     38                     39
                      A                      A                      A
 Frequencies --    845.1592               876.7312               916.7297
 Red. masses --      4.6015                 1.3374                 1.4867
 Frc consts  --      1.9366                 0.6057                 0.7361
 IR Inten    --      6.0191                 0.7916                 4.4681

                     40                     41                     42
                      A                      A                      A
 Frequencies --    944.1128               961.0523               983.9395
 Red. masses --      1.3710                 1.3347                 1.2684
 Frc consts  --      0.7200                 0.7263                 0.7235
 IR Inten    --      0.9561                 0.1040                 0.0730

                     43                     44                     45
                      A                      A                      A
 Frequencies --    985.3158               987.3925              1018.1661
 Red. masses --      4.7616                 1.3204                 1.5545
 Frc consts  --      2.7236                 0.7585                 0.9494
 IR Inten    --      4.8968                 0.8762                 4.0377

                     46                     47                     48
                      A                      A                      A
 Frequencies --   1024.0567              1038.3534              1057.6829
 Red. masses --      6.0983                 6.7592                 2.1220
 Frc consts  --      3.7680                 4.2938                 1.3986
 IR Inten    --      8.0119                45.7626                14.5006

                     49                     50                     51
                      A                      A                      A
 Frequencies --   1077.6619              1081.4923              1092.8674
 Red. masses --      1.5919                 2.3805                 5.1242
 Frc consts  --      1.0893                 1.6405                 3.6059
 IR Inten    --      4.5769                42.7346               117.0850

                     52                     53                     54
                      A                      A                      A
 Frequencies --   1111.1323              1152.3615              1184.6286
 Red. masses --      1.4925                 1.7259                 1.2679
 Frc consts  --      1.0857                 1.3503                 1.0483
 IR Inten    --      6.5764                10.2031                 6.1239

                     55                     56                     57
                      A                      A                      A
 Frequencies --   1191.6923              1197.6535              1202.4799
 Red. masses --      1.1051                 1.0928                 1.1581
 Frc consts  --      0.9247                 0.9235                 0.9866
 IR Inten    --      1.8615                 0.2161                19.3731

                     58                     59                     60
                      A                      A                      A
 Frequencies --   1221.0016              1236.4951              1254.6103
 Red. masses --      1.7195                 2.1660                 4.5586
 Frc consts  --      1.5104                 1.9512                 4.2277
 IR Inten    --      4.5198                 0.6562               524.5286

                     61                     62                     63
                      A                      A                      A
 Frequencies --   1273.8818              1323.4452              1332.5475
 Red. masses --      4.4158                 1.5105                 5.3684
 Frc consts  --      4.2220                 1.5588                 5.6164
 IR Inten    --    243.5511                 0.5661               292.8471

                     64                     65                     66
                      A                      A                      A
 Frequencies --   1349.6592              1355.8232              1367.5196
 Red. masses --      1.9201                 6.0121                 3.3771
 Frc consts  --      2.0607                 6.5116                 3.7210
 IR Inten    --     38.7584                45.3528                27.1194

                     67                     68                     69
                      A                      A                      A
 Frequencies --   1439.8925              1473.1734              1494.0076
 Red. masses --      1.2522                 1.1458                 1.9646
 Frc consts  --      1.5296                 1.4650                 2.5836
 IR Inten    --      0.8384                 0.0454                 1.5563

                     70                     71                     72
                      A                      A                      A
 Frequencies --   1498.6273              1505.7533              1509.4373
 Red. masses --      1.0561                 2.2826                 1.0577
 Frc consts  --      1.3974                 3.0493                 1.4198
 IR Inten    --      4.5026                 4.0567                 9.1058

                     73                     74                     75
                      A                      A                      A
 Frequencies --   1529.2654              1543.8919              1545.9194
 Red. masses --      1.2091                 2.0429                 1.9291
 Frc consts  --      1.6661                 2.8690                 2.7163
 IR Inten    --      7.5877                70.6454                30.8279

                     76                     77                     78
                      A                      A                      A
 Frequencies --   1550.4665              1642.5105              1654.9849
 Red. masses --      1.2616                 5.9485                 5.9355
 Frc consts  --      1.7869                 9.4553                 9.5784
 IR Inten    --     20.6118                 5.7377                19.0036

                     79                     80                     81
                      A                      A                      A
 Frequencies --   1662.9710              1664.8623              1831.5082
 Red. masses --      6.0107                 5.9110                12.4201
 Frc consts  --      9.7936                 9.6531                24.5467
 IR Inten    --     20.7174                 0.2056               366.0895

                     82                     83                     84
                      A                      A                      A
 Frequencies --   3052.4063              3063.5131              3111.0975
 Red. masses --      1.0374                 1.0295                 1.0983
 Frc consts  --      5.6949                 5.6927                 6.2631
 IR Inten    --     10.6330                57.4127                13.9548

                     85                     86                     87
                      A                      A                      A
 Frequencies --   3135.5671              3143.6801              3161.5964
 Red. masses --      1.1030                 1.1051                 1.1071
 Frc consts  --      6.3896                 6.4348                 6.5199
 IR Inten    --     26.8023                15.4947                14.6906

                     88                     89                     90
                      A                      A                      A
 Frequencies --   3183.1893              3189.3782              3195.9934
 Red. masses --      1.0867                 1.0854                 1.0890
 Frc consts  --      6.4873                 6.5051                 6.5540
 IR Inten    --      6.8472                 0.1544                 9.0686

                     91                     92                     93
                      A                      A                      A
 Frequencies --   3199.2122              3207.0962              3211.7048
 Red. masses --      1.0899                 1.0930                 1.0944
 Frc consts  --      6.5725                 6.6235                 6.6510
 IR Inten    --     15.5719                30.5953                31.0056

                     94                     95                     96
                      A                      A                      A
 Frequencies --   3218.5445              3222.1323              3251.7177
 Red. masses --      1.0969                 1.0954                 1.0931
 Frc consts  --      6.6951                 6.7006                 6.8101
 IR Inten    --     11.9853                 6.3909                 1.6213

 - Thermochemistry -
 -------------------
 Temperature   298.150 Kelvin.  Pressure   1.00000 Atm.
 Atom     1 has atomic number  6 and mass  12.00000

 Molecular mass:   257.10519 amu.
 Principal axes and moments of inertia in atomic units:
                           1         2         3
     Eigenvalues --  2883.541117645.490019011.93591
           X            0.99993  -0.00707  -0.00933
           Y            0.00723   0.99982   0.01745
           Z            0.00920  -0.01752   0.99980
 This molecule is an asymmetric top.
 Rotational symmetry number  1.
 Warning -- assumption of classical behavior for rotation
           may cause significant error
 Rotational temperatures (Kelvin)      0.03004     0.01133     0.00961
 Rotational constants (GHZ):           0.62588     0.23605     0.20026
 Zero-point vibrational energy     716483.9 (Joules/Mol)
                                  171.24376 (Kcal/Mol)
 Warning -- explicit consideration of  25 degrees of freedom as
           vibrations may cause significant error
 Vibrational temperatures:     24.09    35.80    45.45    96.46   119.59
          (Kelvin)            169.82   177.53   199.75   244.76   269.22
                              278.19   330.79   387.05   396.91   498.48
                              500.07   533.39   570.35   608.57   653.40
                              679.93   735.58   743.87   811.87   839.72
                              899.96   908.20   971.49  1007.61  1052.41
                             1070.32  1098.54  1119.84  1158.77  1203.27
                             1208.22  1216.00  1261.42  1318.97  1358.37
                             1382.74  1415.67  1417.65  1420.64  1464.91
                             1473.39  1493.96  1521.77  1550.52  1556.03
                             1572.39  1598.67  1657.99  1704.42  1714.58
                             1723.16  1730.10  1756.75  1779.04  1805.10
                             1832.83  1904.14  1917.24  1941.86  1950.73
                             1967.56  2071.68  2119.57  2149.54  2156.19
                             2166.44  2171.74  2200.27  2221.32  2224.23
                             2230.78  2363.21  2381.15  2392.64  2395.37
                             2635.13  4391.73  4407.71  4476.18  4511.38
                             4523.05  4548.83  4579.90  4588.80  4598.32
                             4602.95  4614.30  4620.93  4630.77  4635.93
                             4678.50

 Zero-point correction=                           0.272894 (Hartree/Particle)
 Thermal correction to Energy=                    0.290132
 Thermal correction to Enthalpy=                  0.291076
 Thermal correction to Gibbs Free Energy=         0.225361
 Sum of electronic and zero-point Energies=           -860.795311
 Sum of electronic and thermal Energies=              -860.778073
 Sum of electronic and thermal Enthalpies=            -860.777129
 Sum of electronic and thermal Free Energies=         -860.842844

                     E (Thermal)             CV                S
                      KCal/Mol        Cal/Mol-Kelvin    Cal/Mol-Kelvin
 Total                  182.061             65.207            138.309
 Electronic               0.000              0.000              0.000
 Translational            0.889              2.981             42.533
 Rotational               0.889              2.981             33.651
 Vibrational            180.283             59.245             62.125
 Vibration     1          0.593              1.986              6.987
 Vibration     2          0.593              1.985              6.201
 Vibration     3          0.594              1.983              5.727
 Vibration     4          0.598              1.970              4.238
 Vibration     5          0.600              1.961              3.816
 Vibration     6          0.608              1.934              3.132
 Vibration     7          0.610              1.930              3.047
 Vibration     8          0.614              1.915              2.820
 Vibration     9          0.625              1.879              2.434
 Vibration    10          0.632              1.858              2.256
 Vibration    11          0.635              1.849              2.195
 Vibration    12          0.652              1.795              1.880
 Vibration    13          0.673              1.730              1.603
 Vibration    14          0.678              1.718              1.559
 Vibration    15          0.724              1.582              1.182
 Vibration    16          0.725              1.580              1.177
 Vibration    17          0.743              1.532              1.077
 Vibration    18          0.763              1.478              0.976
 Vibration    19          0.785              1.420              0.882
 Vibration    20          0.813              1.352              0.783
 Vibration    21          0.829              1.311              0.730
 Vibration    22          0.866              1.225              0.631
 Vibration    23          0.872              1.212              0.617
 Vibration    24          0.920              1.109              0.515
 Vibration    25          0.941              1.067              0.479

                           ! Non-Optimized Parameters !
 Normal termination of Gaussian 16 at Sun Dec 13 12:56:43 2020.

 ----------------------------------------------------------------------
 # B3LYP/6-311++G(d,p) empiricaldispersion=gd3bj scf=xqc pop=npa geom=c
 heck
 ----------------------------------------------------------------------

 --------------------------------------
 CID_15767250_JID_9278_Energie_neutraal
 --------------------------------------
 Structure from the checkpoint file:  "JID_9278.chk"
 Charge =  0 Multiplicity = 1

 SCF Done:  E(RB3LYP) =  -861.301942063     A.U. after   15 cycles
 Normal termination of Gaussian 16 at Sun Dec 13 13:03:46 2020.

 ----------------------------------------------------------------------
 # B3LYP/6-311++G(d,p) empiricaldispersion=gd3bj scf=xqc pop=npa geom=c
 heck
 ----------------------------------------------------------------------

 ------------------------------------
 CID_15767250_JID_9278_Energie_kation
 ------------------------------------
 Structure from the checkpoint file:  "JID_9278.chk"
 Charge =  1 Multiplicity = 2

 SCF Done:  E(UB3LYP) =  -861.006104140     A.U. after   29 cycles
 Normal termination of Gaussian 16 at Sun Dec 13 13:23:15 2020.
 Gaussian 16:  ES64L-G16RevA.03 25-Dec-2016

 ----------------------------------------------------------------------
 # B3LYP/6-311++G(d,p) empiricaldispersion=gd3bj scf=xqc pop=npa geom=c
 heck
 ----------------------------------------------------------------------

 -----------------------------------
 CID_15767250_JID_9278_Energie_anion
 -----------------------------------
 Structure from the checkpoint file:  "JID_9278.chk"
 Charge = -1 Multiplicity = 2

                         Standard orientation:
 ---------------------------------------------------------------------
 Center     Atomic      Atomic             Coordinates (Angstroms)
 Number     Number       Type             X           Y           Z
 ---------------------------------------------------------------------
      1          6           0       -3.175054    0.451256    1.785098
      2          6           0       -2.817721   -0.518930    0.691833
      3          6           0       -3.515946   -1.722029    0.543063
      4          6           0       -3.203919   -2.624491   -0.472564
      5          6           0       -2.179015   -2.333189   -1.372891
      6          6           0       -1.477396   -1.137788   -1.249014
      7          6           0       -1.786488   -0.244371   -0.220383
      8          7           0       -1.068434    0.989100   -0.104587
      9          6           0        0.305967    1.084665   -0.262604
     10          8           0        0.900141    2.064544   -0.648574
     11          8           0        0.877311   -0.071335    0.193120
     12          6           0        2.263014   -0.215095    0.182917
     13          6           0        3.048613    0.127024   -0.916485
     14          6           0        4.418782   -0.128972   -0.864546
     15          6           0        4.991962   -0.724554    0.260261
     16          6           0        4.186552   -1.067428    1.347163
     17          6           0        2.816458   -0.811429    1.312775
     18          8           0       -1.779606    2.056760   -0.711053
     19          6           0       -1.747165    3.228041    0.110962
     20          1           0       -3.744334    1.299382    1.386270
     21          1           0       -3.787192   -0.031958    2.552041
     22          1           0       -2.276204    0.858856    2.258695
     23          1           0       -4.313933   -1.953830    1.243658
     24          1           0       -3.759830   -3.553626   -0.559526
     25          1           0       -1.930812   -3.027493   -2.169918
     26          1           0       -0.681317   -0.891432   -1.943991
     27          1           0        2.601011    0.596770   -1.782419
     28          1           0        5.039968    0.139567   -1.714117
     29          1           0        6.059603   -0.920784    0.288727
     30          1           0        4.622124   -1.533968    2.225959
     31          1           0        2.167851   -1.069431    2.143325
     32          1           0       -2.128573    3.017429    1.115185
     33          1           0       -0.735507    3.637296    0.164909
     34          1           0       -2.408443    3.933500   -0.398139
 ---------------------------------------------------------------------

 SCF Done:  E(UB3LYP) =  -861.289664400     A.U. after   33 cycles
 SCF Done:  E(UB3LYP) =  -861.289664943     a.u. after    2 cycles

 The electronic state is 2-A.
 Alpha  occ. eigenvalues --  -19.08300 -19.07288 -19.01376 -14.29471 -10.23425
 Alpha  occ. eigenvalues --  -10.14693 -10.12382 -10.10219 -10.08592 -10.08533
 Alpha  occ. eigenvalues --  -10.08463 -10.08403 -10.08330 -10.08026 -10.07416
 Alpha  occ. eigenvalues --  -10.07292 -10.07216 -10.07080 -10.06659  -1.03526
 Alpha  occ. eigenvalues --   -0.99222  -0.93626  -0.80874  -0.76648  -0.74698
 Alpha  occ. eigenvalues --   -0.67825  -0.66541  -0.66071  -0.64138  -0.60472
 Alpha  occ. eigenvalues --   -0.59180  -0.55271  -0.53097  -0.51917  -0.49579
 Alpha  occ. eigenvalues --   -0.47721  -0.45239  -0.43015  -0.41579  -0.40298
 Alpha  occ. eigenvalues --   -0.39005  -0.38387  -0.37656  -0.36466  -0.35763
 Alpha  occ. eigenvalues --   -0.35113  -0.34234  -0.33820  -0.33349  -0.32550
 Alpha  occ. eigenvalues --   -0.31744  -0.31412  -0.29892  -0.28458  -0.28037
 Alpha  occ. eigenvalues --   -0.27326  -0.26442  -0.26110  -0.25653  -0.25084
 Alpha  occ. eigenvalues --   -0.23559  -0.20941  -0.20251  -0.17466  -0.16563
 Alpha  occ. eigenvalues --   -0.15730  -0.14994  -0.13828   0.04424
 Alpha virt. eigenvalues --    0.05843   0.06297   0.06998   0.07321   0.07512
 Alpha virt. eigenvalues --    0.07734   0.07900   0.08474   0.08671   0.09278
 Alpha virt. eigenvalues --    0.09705   0.10459   0.10654   0.11406   0.11699

  Beta  occ. eigenvalues --  -19.08302 -19.07202 -19.01361 -14.29462 -10.23413
  Beta  occ. eigenvalues --  -10.14680 -10.12367 -10.10055 -10.08578 -10.08519
  Beta  occ. eigenvalues --  -10.08459 -10.08392 -10.08285 -10.08002 -10.07377
  Beta  occ. eigenvalues --  -10.07279 -10.07219 -10.07080 -10.06480  -1.03475
  Beta  occ. eigenvalues --   -0.99089  -0.93591  -0.80715  -0.76597  -0.74565
  Beta  occ. eigenvalues --   -0.67689  -0.66477  -0.66031  -0.63930  -0.60379
  Beta  occ. eigenvalues --   -0.59082  -0.55183  -0.52968  -0.51834  -0.49489
  Beta  occ. eigenvalues --   -0.47648  -0.45123  -0.42897  -0.41528  -0.40229
  Beta  occ. eigenvalues --   -0.38941  -0.38300  -0.37603  -0.36420  -0.35697
  Beta  occ. eigenvalues --   -0.35063  -0.34168  -0.33775  -0.33276  -0.32426
  Beta  occ. eigenvalues --   -0.31704  -0.31372  -0.29840  -0.28412  -0.27987
  Beta  occ. eigenvalues --   -0.27283  -0.26341  -0.25840  -0.25461  -0.25011
  Beta  occ. eigenvalues --   -0.23528  -0.20865  -0.20163  -0.17152  -0.16519
  Beta  occ. eigenvalues --   -0.15531  -0.14689  -0.13346
  Beta virt. eigenvalues --    0.06304   0.06847   0.07039   0.07400   0.07570
  Beta virt. eigenvalues --    0.07810   0.08122   0.08261   0.08609   0.08924
  Beta virt. eigenvalues --    0.09481   0.09773   0.10626   0.10934   0.11495

 Mulliken charges and spin densities:
               1          2
     1  C    0.482303  -1.114460
     2  C   -0.663913   1.048009
     3  C    0.118675  -0.462543
     4  C   -0.181935  -0.171931
     5  C    0.030982  -0.239170
     6  C    0.454140  -0.076010
     7  C   -0.798968   0.426879
     8  N   -0.144417   0.038064
     9  C    0.044042  -0.200168
    10  O   -0.214480   0.006235
    11  O    0.115777   0.001207
    12  C   -0.473413  -0.108488
    13  C    0.376747  -0.116158
    14  C   -0.238707   0.119188
    15  C    1.484374  -1.725207
    16  C    0.580967  -0.747925
    17  C   -1.031652   1.109677
    18  O    0.186060   0.000666
    19  C   -0.024076  -0.172316
    20  H    0.037060   0.131127
    21  H   -0.189841   0.342079
    22  H    0.064847   0.097824
    23  H   -0.087577   0.219596
    24  H   -0.032137   0.147987
    25  H    0.081688   0.066672
    26  H    0.084480   0.042508
    27  H    0.163078   0.012056
    28  H   -0.309851   0.486173
    29  H   -0.587788   0.748099
    30  H   -0.627708   0.810572
    31  H    0.017734   0.137870
    32  H    0.064263   0.050582
    33  H    0.143717   0.026033
    34  H    0.075528   0.065272
 Sum of Mulliken charges =  -1.00000   1.00000

 Dipole moment (field-independent basis, Debye):
    X=             -5.7760    Y=              2.5205    Z=             -1.4422  Tot=              6.4649
 Quadrupole moment (field-independent basis, Debye-Ang):
   XX=           -218.0464   YY=           -142.8085   ZZ=           -139.8789
   XY=              4.1765   XZ=             -5.6402   YZ=              6.8393

 Summary of Natural Population Analysis:

                                       Natural Population
                Natural  -----------------------------------------------
    Atom  No    Charge         Core      Valence    Rydberg      Total
 -----------------------------------------------------------------------
      C    1   -0.29619      0.99964     2.29031    0.00625     3.29619
      C    2   -0.00215      0.99948     1.99248    0.01020     3.00215
      C    3   -0.10580      0.99952     2.09674    0.00953     3.10580
      C    4   -0.06776      0.99957     2.05862    0.00957     3.06776
      C    5   -0.10989      0.99957     2.10061    0.00971     3.10989
      C    6   -0.08362      0.99952     2.07631    0.00780     3.08362
      C    7    0.08772      0.99939     1.90043    0.01245     2.91228
      N    8   -0.11136      0.99957     2.59794    0.01386     3.61136
      C    9    0.46265      0.99966     1.51317    0.02452     2.53735
      O   10   -0.31409      0.99987     3.30865    0.00558     4.31409
      O   11   -0.27391      0.99984     3.26560    0.00848     4.27391
      C   12    0.15185      0.99934     1.83644    0.01236     2.84815
      C   13   -0.11795      0.99951     2.10992    0.00853     3.11795
      C   14   -0.09603      0.99957     2.08552    0.01094     3.09603
      C   15   -0.10636      0.99956     2.09644    0.01036     3.10636
      C   16   -0.09635      0.99957     2.08621    0.01057     3.09635
      C   17   -0.11498      0.99951     2.10522    0.01025     3.11498
      O   18   -0.20142      0.99990     3.19235    0.00916     4.20142
      C   19   -0.10160      0.99962     2.09358    0.00841     3.10160
      H   20    0.10514      0.00000     0.39365    0.00121     0.39486
      H   21    0.10137      0.00000     0.39779    0.00084     0.39863
      H   22    0.10564      0.00000     0.39306    0.00131     0.39436
      H   23    0.09648      0.00000     0.40257    0.00095     0.40352
      H   24    0.09489      0.00000     0.40432    0.00079     0.40511
      H   25    0.09784      0.00000     0.40138    0.00077     0.40216
      H   26    0.10109      0.00000     0.39776    0.00115     0.39891
      H   27    0.11235      0.00000     0.38659    0.00106     0.38765
      H   28    0.10176      0.00000     0.39719    0.00104     0.39824
      H   29    0.10421      0.00000     0.39348    0.00231     0.39579
      H   30    0.10396      0.00000     0.39424    0.00180     0.39604
      H   31    0.10889      0.00000     0.39006    0.00105     0.39111
      H   32    0.08310      0.00000     0.41547    0.00143     0.41690
      H   33    0.09253      0.00000     0.40609    0.00138     0.40747
      H   34    0.08799      0.00000     0.41100    0.00101     0.41201
 =======================================================================
   * Total *   -0.00000     18.99219    48.79118    0.21663    68.00000

 Normal termination of Gaussian 16 at Sun Dec 13 14:09:50 2020.
