 Gaussian 16, Revision A.03,

 -----------------------------------------------------------
 # opt freq B3LYP/6-31G(d) empiricaldispersion=gd3bj scf=xqc
 -----------------------------------------------------------

 -------------------------------
 CID_145636711_JID_3558_neutraal
 -------------------------------
 Symbolic Z-matrix:
 Charge =  0 Multiplicity = 1

 SCF Done:  E(RB3LYP) =  -587.854300307     A.U. after   15 cycles
 SCF Done:  E(RB3LYP) =  -587.858450244     A.U. after   14 cycles
 SCF Done:  E(RB3LYP) =  -587.859212827     A.U. after   13 cycles
 SCF Done:  E(RB3LYP) =  -587.859181423     A.U. after   13 cycles
 SCF Done:  E(RB3LYP) =  -587.859575034     A.U. after   12 cycles
 SCF Done:  E(RB3LYP) =  -587.859552587     A.U. after   11 cycles
 SCF Done:  E(RB3LYP) =  -587.859611849     A.U. after   10 cycles
 SCF Done:  E(RB3LYP) =  -587.859613448     A.U. after    9 cycles
 SCF Done:  E(RB3LYP) =  -587.859614653     A.U. after    9 cycles
 SCF Done:  E(RB3LYP) =  -587.859615115     A.U. after    8 cycles
 SCF Done:  E(RB3LYP) =  -587.859615322     A.U. after    9 cycles
 SCF Done:  E(RB3LYP) =  -587.859615369     A.U. after    8 cycles
 Optimization completed.
    -- Stationary point found.
 Normal termination of Gaussian 16 at Wed Dec  9 23:37:42 2020.

 --------------------------------------------------------------------
 #N Geom=AllCheck Guess=TCheck SCRF=Check GenChk RB3LYP/6-31G(d) Freq
 --------------------------------------------------------------------

 Structure from the checkpoint file:  "JID_3558.chk"
 -------------------------------
 CID_145636711_JID_3558_neutraal
 -------------------------------
 Charge =  0 Multiplicity = 1

 SCF Done:  E(RB3LYP) =  -587.859615369     A.U. after    1 cycles

  Exact polarizability: 166.850  -3.912 139.380   1.661   5.108  57.619
 Approx polarizability: 250.016  -3.581 234.687   7.031  15.204  94.302

                      1                      2                      3
                      A                      A                      A
 Frequencies --     53.1263                84.8788               108.3572
 Red. masses --      5.6573                 3.2067                 4.1218
 Frc consts  --      0.0094                 0.0136                 0.0285
 IR Inten    --      0.4974                 3.4482                 0.4982

                      4                      5                      6
                      A                      A                      A
 Frequencies --    133.8430               159.3989               170.0054
 Red. masses --      4.4293                 3.2059                 2.3322
 Frc consts  --      0.0467                 0.0480                 0.0397
 IR Inten    --      0.3771                 3.7979                 4.3751

                      7                      8                      9
                      A                      A                      A
 Frequencies --    203.4866               215.0191               245.8924
 Red. masses --      2.7185                 4.0295                 4.2566
 Frc consts  --      0.0663                 0.1098                 0.1516
 IR Inten    --      0.8621                 1.0499                 4.3490

                     10                     11                     12
                      A                      A                      A
 Frequencies --    309.4177               394.5374               405.9044
 Red. masses --      3.4927                 3.4498                 5.1612
 Frc consts  --      0.1970                 0.3164                 0.5010
 IR Inten    --      5.8288                 2.3240                 9.5348

                     13                     14                     15
                      A                      A                      A
 Frequencies --    413.3378               495.2024               539.2692
 Red. masses --      4.3216                 4.5564                 2.8847
 Frc consts  --      0.4350                 0.6583                 0.4943
 IR Inten    --      9.7959                14.0047                 1.7055

                     16                     17                     18
                      A                      A                      A
 Frequencies --    573.0938               601.6239               632.9801
 Red. masses --      3.4755                 4.7409                 4.2605
 Frc consts  --      0.6725                 1.0110                 1.0058
 IR Inten    --      8.7500                28.7036                 6.3207

                     19                     20                     21
                      A                      A                      A
 Frequencies --    701.7455               716.2020               736.0981
 Red. masses --      2.3421                 1.1813                 1.9266
 Frc consts  --      0.6795                 0.3570                 0.6151
 IR Inten    --      8.9577                97.3807                 2.6000

                     22                     23                     24
                      A                      A                      A
 Frequencies --    801.0930               813.9246               842.7713
 Red. masses --      6.5852                 3.8022                 1.4443
 Frc consts  --      2.4899                 1.4841                 0.6044
 IR Inten    --      5.6227                 0.2626                24.0189

                     25                     26                     27
                      A                      A                      A
 Frequencies --    855.7497               958.5739               964.7384
 Red. masses --      3.9483                 1.3775                 1.3509
 Frc consts  --      1.7035                 0.7458                 0.7408
 IR Inten    --      2.9259                24.9667                 2.8698

                     28                     29                     30
                      A                      A                      A
 Frequencies --    994.4644              1036.9312              1051.0956
 Red. masses --      2.6353                 1.0975                 1.5531
 Frc consts  --      1.5355                 0.6953                 1.0110
 IR Inten    --      2.8619                18.3593                 0.4198

                     31                     32                     33
                      A                      A                      A
 Frequencies --   1076.3559              1089.2955              1139.4973
 Red. masses --      1.3586                 2.2843                 1.8498
 Frc consts  --      0.9274                 1.5970                 1.4151
 IR Inten    --      9.1320                16.7679                 2.2915

                     34                     35                     36
                      A                      A                      A
 Frequencies --   1207.1739              1233.2308              1243.6064
 Red. masses --      1.7689                 3.2265                 2.3418
 Frc consts  --      1.5188                 2.8911                 2.1339
 IR Inten    --     10.0158                59.1497                96.3838

                     37                     38                     39
                      A                      A                      A
 Frequencies --   1253.6017              1312.2377              1349.0912
 Red. masses --      2.5874                 2.7215                 1.5274
 Frc consts  --      2.3957                 2.7611                 1.6379
 IR Inten    --    215.3665                10.8346                10.0976

                     40                     41                     42
                      A                      A                      A
 Frequencies --   1365.9276              1377.9425              1420.9610
 Red. masses --      2.2800                 1.6515                 1.5475
 Frc consts  --      2.5064                 1.8476                 1.8410
 IR Inten    --      5.4910                 1.4977                88.3811

                     43                     44                     45
                      A                      A                      A
 Frequencies --   1475.4201              1515.4047              1522.7696
 Red. masses --      1.2597                 2.3070                 1.3626
 Frc consts  --      1.6157                 3.1215                 1.8617
 IR Inten    --      1.1247                77.5729                57.1004

                     46                     47                     48
                      A                      A                      A
 Frequencies --   1541.3740              1601.8411              1642.1932
 Red. masses --      2.6386                 8.2054                 5.4709
 Frc consts  --      3.6935                12.4047                 8.6927
 IR Inten    --    190.2025                98.2487               152.8508

                     49                     50                     51
                      A                      A                      A
 Frequencies --   1714.4141              1737.0474              1811.7473
 Red. masses --      4.3847                 5.9307                 7.0388
 Frc consts  --      7.5931                10.5433                13.6127
 IR Inten    --      3.4729                38.8202               599.8740

                     52                     53                     54
                      A                      A                      A
 Frequencies --   3071.3839              3081.7318              3158.2553
 Red. masses --      1.0595                 1.0899                 1.0842
 Frc consts  --      5.8889                 6.0986                 6.3714
 IR Inten    --     29.2675                26.3674                12.0733

                     55                     56                     57
                      A                      A                      A
 Frequencies --   3180.8489              3183.0355              3184.0402
 Red. masses --      1.0651                 1.1126                 1.0887
 Frc consts  --      6.3494                 6.6416                 6.5032
 IR Inten    --      5.5276                21.8739                16.9470

                     58                     59                     60
                      A                      A                      A
 Frequencies --   3210.7460              3263.8974              3580.6905
 Red. masses --      1.0944                 1.1165                 1.0762
 Frc consts  --      6.6471                 7.0080                 8.1294
 IR Inten    --     19.0260                 8.7376                39.3430

 - Thermochemistry -
 -------------------
 Temperature   298.150 Kelvin.  Pressure   1.00000 Atm.
 Atom     1 has atomic number  6 and mass  12.00000

 Molecular mass:   175.07456 amu.
 Principal axes and moments of inertia in atomic units:
                           1         2         3
     Eigenvalues --  1283.504203188.322994296.09542
           X            0.99987  -0.01584  -0.00173
           Y            0.01584   0.99987  -0.00197
           Z            0.00176   0.00194   1.00000
 This molecule is an asymmetric top.
 Rotational symmetry number  1.
 Warning -- assumption of classical behavior for rotation
           may cause significant error
 Rotational temperatures (Kelvin)      0.06748     0.02717     0.02016
 Rotational constants (GHZ):           1.40610     0.56605     0.42009
 Zero-point vibrational energy     447155.3 (Joules/Mol)
                                  106.87268 (Kcal/Mol)
 Warning -- explicit consideration of  17 degrees of freedom as
           vibrations may cause significant error
 Vibrational temperatures:     76.44   122.12   155.90   192.57   229.34
          (Kelvin)            244.60   292.77   309.36   353.78   445.18
                              567.65   584.01   594.70   712.49   775.89
                              824.55   865.60   910.72  1009.66  1030.45
                             1059.08  1152.59  1171.06  1212.56  1231.23
                             1379.17  1388.04  1430.81  1491.91  1512.29
                             1548.64  1567.25  1639.48  1736.85  1774.34
                             1789.27  1803.65  1888.02  1941.04  1965.27
                             1982.55  2044.45  2122.80  2180.33  2190.93
                             2217.69  2304.69  2362.75  2466.66  2499.22
                             2606.70  4419.04  4433.92  4544.02  4576.53
                             4579.68  4581.12  4619.55  4696.02  5151.81

 Zero-point correction=                           0.170312 (Hartree/Particle)
 Thermal correction to Energy=                    0.182166
 Thermal correction to Enthalpy=                  0.183110
 Thermal correction to Gibbs Free Energy=         0.132031
 Sum of electronic and zero-point Energies=           -587.689303
 Sum of electronic and thermal Energies=              -587.677449
 Sum of electronic and thermal Enthalpies=            -587.676505
 Sum of electronic and thermal Free Energies=         -587.727584

                     E (Thermal)             CV                S
                      KCal/Mol        Cal/Mol-Kelvin    Cal/Mol-Kelvin
 Total                  114.311             43.840            107.506
 Electronic               0.000              0.000              0.000
 Translational            0.889              2.981             41.387
 Rotational               0.889              2.981             31.242
 Vibrational            112.534             37.878             34.877
 Vibration     1          0.596              1.976              4.697
 Vibration     2          0.601              1.960              3.775
 Vibration     3          0.606              1.943              3.298
 Vibration     4          0.613              1.920              2.890
 Vibration     5          0.621              1.892              2.557
 Vibration     6          0.625              1.879              2.435
 Vibration     7          0.639              1.835              2.101
 Vibration     8          0.645              1.818              2.001
 Vibration     9          0.660              1.770              1.760
 Vibration    10          0.699              1.656              1.365
 Vibration    11          0.762              1.482              0.983
 Vibration    12          0.771              1.457              0.941
 Vibration    13          0.777              1.441              0.915
 Vibration    14          0.851              1.261              0.670
 Vibration    15          0.894              1.163              0.567
 Vibration    16          0.929              1.089              0.498
 Vibration    17          0.960              1.028              0.447

 Optimization completed.
    -- Stationary point found.
 Normal termination of Gaussian 16 at Wed Dec  9 23:42:43 2020.

 ----------------------------------------------------------------------
 # B3LYP/6-311++G(d,p) empiricaldispersion=gd3bj scf=xqc pop=npa geom=c
 heck
 ----------------------------------------------------------------------

 ---------------------------------------
 CID_145636711_JID_3558_Energie_neutraal
 ---------------------------------------
 Structure from the checkpoint file:  "JID_3558.chk"
 Charge =  0 Multiplicity = 1

 SCF Done:  E(RB3LYP) =  -588.023452358     A.U. after   16 cycles
 Normal termination of Gaussian 16 at Wed Dec  9 23:44:55 2020.

 ----------------------------------------------------------------------
 # B3LYP/6-311++G(d,p) empiricaldispersion=gd3bj scf=xqc pop=npa geom=c
 heck
 ----------------------------------------------------------------------

 -------------------------------------
 CID_145636711_JID_3558_Energie_kation
 -------------------------------------
 Structure from the checkpoint file:  "JID_3558.chk"
 Charge =  1 Multiplicity = 2

 SCF Done:  E(UB3LYP) =  -587.722158883     A.U. after   24 cycles
 Normal termination of Gaussian 16 at Wed Dec  9 23:49:35 2020.
 Gaussian 16:  ES64L-G16RevA.03 25-Dec-2016

 ----------------------------------------------------------------------
 # B3LYP/6-311++G(d,p) empiricaldispersion=gd3bj scf=xqc pop=npa geom=c
 heck
 ----------------------------------------------------------------------

 ------------------------------------
 CID_145636711_JID_3558_Energie_anion
 ------------------------------------
 Structure from the checkpoint file:  "JID_3558.chk"
 Charge = -1 Multiplicity = 2

                         Standard orientation:
 ---------------------------------------------------------------------
 Center     Atomic      Atomic             Coordinates (Angstroms)
 Number     Number       Type             X           Y           Z
 ---------------------------------------------------------------------
      1          6           0        3.436799   -0.894192   -0.778632
      2          6           0        2.976803    0.128561   -0.050541
      3          6           0        1.576549    0.584145    0.055204
      4          6           0        0.446485   -0.251049    0.005008
      5          6           0       -0.834078    0.357408   -0.019619
      6          7           0       -1.034913    1.670847    0.068901
      7          6           0        0.046128    2.453051    0.172638
      8          6           0        1.345101    1.968131    0.164262
      9          7           0       -1.947679   -0.473719   -0.119011
     10          6           0       -3.269747   -0.081786   -0.106868
     11          8           0       -4.187934   -0.867850   -0.243243
     12          7           0        0.468066   -1.662473   -0.066885
     13          6           0        1.048488   -2.324466    0.850412
     14          1           0        2.780683   -1.544957   -1.346938
     15          1           0        4.501863   -1.097484   -0.836345
     16          1           0        3.693688    0.765467    0.466251
     17          1           0       -0.146186    3.520696    0.249964
     18          1           0        2.185657    2.653020    0.212966
     19          1           0       -1.767132   -1.460525   -0.269569
     20          1           0       -3.392221    0.999861    0.044106
     21          1           0        1.551735   -1.861641    1.707174
     22          1           0        1.061908   -3.413031    0.786119
 ---------------------------------------------------------------------

 SCF Done:  E(UB3LYP) =  -588.046497735     A.U. after   25 cycles

 The electronic state is 2-A.
 Alpha  occ. eigenvalues --  -18.98208 -14.22311 -14.17091 -14.15794 -10.15227
 Alpha  occ. eigenvalues --  -10.10896 -10.06340 -10.06188 -10.05781 -10.03972
 Alpha  occ. eigenvalues --  -10.03490 -10.03399 -10.02065  -0.92838  -0.84398
 Alpha  occ. eigenvalues --   -0.78797  -0.77615  -0.67680  -0.61769  -0.61358
 Alpha  occ. eigenvalues --   -0.53476  -0.51915  -0.48349  -0.46328  -0.42993
 Alpha  occ. eigenvalues --   -0.39732  -0.37782  -0.36140  -0.34110  -0.33175
 Alpha  occ. eigenvalues --   -0.31863  -0.30961  -0.30730  -0.29620  -0.27766
 Alpha  occ. eigenvalues --   -0.26295  -0.25320  -0.22639  -0.20121  -0.19480
 Alpha  occ. eigenvalues --   -0.17083  -0.16015  -0.14718  -0.12353  -0.10672
 Alpha  occ. eigenvalues --   -0.08351   0.03541
 Alpha virt. eigenvalues --    0.08607   0.08866   0.09554   0.10212   0.11212
 Alpha virt. eigenvalues --    0.11683   0.12154   0.12295   0.13255   0.14067
 Alpha virt. eigenvalues --    0.14190   0.14371   0.15324   0.16532   0.17107

  Beta  occ. eigenvalues --  -18.98202 -14.22313 -14.16952 -14.15533 -10.15218
  Beta  occ. eigenvalues --  -10.10947 -10.06053 -10.06028 -10.05651 -10.03686
  Beta  occ. eigenvalues --  -10.03438 -10.03426 -10.01847  -0.92825  -0.84231
  Beta  occ. eigenvalues --   -0.78381  -0.77346  -0.67160  -0.61474  -0.61028
  Beta  occ. eigenvalues --   -0.53107  -0.51629  -0.48076  -0.45830  -0.42705
  Beta  occ. eigenvalues --   -0.39516  -0.37631  -0.35897  -0.33960  -0.32979
  Beta  occ. eigenvalues --   -0.31661  -0.30849  -0.30641  -0.29465  -0.27530
  Beta  occ. eigenvalues --   -0.25783  -0.25012  -0.22261  -0.19107  -0.18925
  Beta  occ. eigenvalues --   -0.15927  -0.15882  -0.14140  -0.12036  -0.09736
  Beta  occ. eigenvalues --   -0.07585
  Beta virt. eigenvalues --    0.08506   0.09020   0.09505   0.09715   0.10208
  Beta virt. eigenvalues --    0.11167   0.11749   0.12249   0.12949   0.13454
  Beta virt. eigenvalues --    0.14049   0.14270   0.14626   0.15543   0.16664

 Mulliken charges and spin densities:
               1          2
     1  C   -0.629616   0.230902
     2  C    0.078996  -0.031079
     3  C    0.821094   0.149792
     4  C   -0.410017   0.056132
     5  C   -0.663841   0.013340
     6  N   -0.215527   0.120410
     7  C   -0.202560   0.097585
     8  C   -0.107417   0.005303
     9  N   -0.209612  -0.005527
    10  C    0.080515   0.013244
    11  O   -0.359221   0.001686
    12  N   -0.130841   0.030717
    13  C   -0.238477   0.305784
    14  H    0.151097  -0.020286
    15  H    0.044967   0.027847
    16  H    0.124416   0.008944
    17  H    0.129926  -0.010178
    18  H    0.095583   0.016809
    19  H    0.320860   0.001594
    20  H    0.144292   0.001690
    21  H    0.061572  -0.018541
    22  H    0.113810   0.003834
 Sum of Mulliken charges =  -1.00000   1.00000

 Dipole moment (field-independent basis, Debye):
    X=              1.6328    Y=              1.4201    Z=              1.0392  Tot=              2.4005
 Quadrupole moment (field-independent basis, Debye-Ang):
   XX=           -125.6717   YY=            -94.0753   ZZ=            -84.7942
   XY=             -0.6934   XZ=              0.7275   YZ=             -0.6487

 Summary of Natural Population Analysis:

                                       Natural Population
                Natural  -----------------------------------------------
    Atom  No    Charge         Core      Valence    Rydberg      Total
 -----------------------------------------------------------------------
      C    1   -0.14289      0.99958     2.13540    0.00791     3.14289
      C    2   -0.09767      0.99956     2.08828    0.00983     3.09767
      C    3    0.01657      0.99946     1.97212    0.01184     2.98343
      C    4    0.06670      0.99939     1.91936    0.01456     2.93330
      C    5    0.17784      0.99949     1.80888    0.01379     2.82216
      N    6   -0.23097      0.99967     2.72072    0.01058     3.73097
      C    7    0.03914      0.99960     1.94669    0.01457     2.96086
      C    8   -0.13051      0.99953     2.12352    0.00746     3.13051
      N    9   -0.30832      0.99965     2.80046    0.00821     3.80832
      C   10    0.27063      0.99976     1.70701    0.02260     2.72937
      O   11   -0.32298      0.99988     3.31590    0.00721     4.32298
      N   12   -0.23572      0.99967     2.72265    0.01340     3.73572
      C   13    0.05481      0.99966     1.93258    0.01296     2.94519
      H   14    0.09324      0.00000     0.40568    0.00107     0.40676
      H   15    0.08238      0.00000     0.41639    0.00122     0.41762
      H   16    0.08613      0.00000     0.41213    0.00174     0.41387
      H   17    0.07861      0.00000     0.42014    0.00125     0.42139
      H   18    0.09365      0.00000     0.40492    0.00143     0.40635
      H   19    0.20831      0.00000     0.28969    0.00200     0.29169
      H   20    0.06657      0.00000     0.43109    0.00234     0.43343
      H   21    0.06553      0.00000     0.43276    0.00171     0.43447
      H   22    0.06896      0.00000     0.42984    0.00120     0.43104
 =======================================================================
   * Total *    0.00000     12.99491    32.83620    0.16889    46.00000

 Normal termination of Gaussian 16 at Wed Dec  9 23:54:19 2020.
