 Gaussian 16, Revision A.03,

 -----------------------------------------------------------
 # opt freq B3LYP/6-31G(d) empiricaldispersion=gd3bj scf=xqc
 -----------------------------------------------------------

 -------------------------------
 CID_143873931_JID_1515_neutraal
 -------------------------------
 Symbolic Z-matrix:
 Charge =  0 Multiplicity = 1

 SCF Done:  E(RB3LYP) =  -1178.67111232     A.U. after   15 cycles
 SCF Done:  E(RB3LYP) =  -1178.67582849     A.U. after   12 cycles
 SCF Done:  E(RB3LYP) =  -1178.67646282     A.U. after   12 cycles
 SCF Done:  E(RB3LYP) =  -1178.67656432     A.U. after   12 cycles
 SCF Done:  E(RB3LYP) =  -1178.67661416     A.U. after   11 cycles
 SCF Done:  E(RB3LYP) =  -1178.67663245     A.U. after    9 cycles
 SCF Done:  E(RB3LYP) =  -1178.67663423     A.U. after    9 cycles
 SCF Done:  E(RB3LYP) =  -1178.67663463     A.U. after    8 cycles
 SCF Done:  E(RB3LYP) =  -1178.67663475     A.U. after    7 cycles
 Optimization completed.
    -- Stationary point found.
 Normal termination of Gaussian 16 at Tue Dec  8 20:15:40 2020.

 --------------------------------------------------------------------
 #N Geom=AllCheck Guess=TCheck SCRF=Check GenChk RB3LYP/6-31G(d) Freq
 --------------------------------------------------------------------

 Structure from the checkpoint file:  "JID_1515.chk"
 -------------------------------
 CID_143873931_JID_1515_neutraal
 -------------------------------
 Charge =  0 Multiplicity = 1

 SCF Done:  E(RB3LYP) =  -1178.67663475     A.U. after    1 cycles

  Exact polarizability: 134.308  -0.142 112.094   5.136   5.734  89.357
 Approx polarizability: 189.997   1.752 195.584  11.167  20.271 153.284

                      1                      2                      3
                      A                      A                      A
 Frequencies --     70.3422               116.4728               178.6550
 Red. masses --      6.5399                 5.7684                 3.9693
 Frc consts  --      0.0191                 0.0461                 0.0746
 IR Inten    --      0.1430                 0.6557                 2.8985

                      4                      5                      6
                      A                      A                      A
 Frequencies --    203.3322               237.1427               265.1962
 Red. masses --      2.7337                 1.4496                 2.0702
 Frc consts  --      0.0666                 0.0480                 0.0858
 IR Inten    --      2.9540                 0.7632                 6.2616

                      7                      8                      9
                      A                      A                      A
 Frequencies --    271.7858               280.7186               339.3977
 Red. masses --      1.5668                 1.9532                 2.3029
 Frc consts  --      0.0682                 0.0907                 0.1563
 IR Inten    --      1.1510                 5.5641                 3.9716

                     10                     11                     12
                      A                      A                      A
 Frequencies --    393.6391               408.0249               460.4274
 Red. masses --      3.8052                 5.6965                 4.4940
 Frc consts  --      0.3474                 0.5588                 0.5613
 IR Inten    --      0.4201                 3.6139                 4.0633

                     13                     14                     15
                      A                      A                      A
 Frequencies --    501.4691               532.3043               572.8594
 Red. masses --      4.6289                 4.7560                 4.1635
 Frc consts  --      0.6858                 0.7940                 0.8050
 IR Inten    --      0.2227                 0.4440                67.3977

                     16                     17                     18
                      A                      A                      A
 Frequencies --    643.7885               652.8897               680.6309
 Red. masses --      4.4054                 6.3945                 4.3189
 Frc consts  --      1.0758                 1.6060                 1.1788
 IR Inten    --     13.1763                 3.4854                10.5453

                     19                     20                     21
                      A                      A                      A
 Frequencies --    767.3709               787.4361               802.9031
 Red. masses --      4.1593                 1.2233                 2.5925
 Frc consts  --      1.4431                 0.4469                 0.9847
 IR Inten    --      7.7201                22.7087                17.5320

                     22                     23                     24
                      A                      A                      A
 Frequencies --    841.5889               923.0776               975.4268
 Red. masses --      3.4779                 2.4329                 2.0939
 Frc consts  --      1.4513                 1.2214                 1.1738
 IR Inten    --     18.4707                25.5964                 5.9137

                     25                     26                     27
                      A                      A                      A
 Frequencies --   1011.6815              1022.3962              1053.6316
 Red. masses --      2.0465                 2.0521                 2.6008
 Frc consts  --      1.2341                 1.2638                 1.7011
 IR Inten    --     18.5697                16.6419                12.9545

                     28                     29                     30
                      A                      A                      A
 Frequencies --   1093.4184              1159.7672              1165.4836
 Red. masses --      2.0394                 1.4040                 2.6065
 Frc consts  --      1.4366                 1.1126                 2.0860
 IR Inten    --     20.4753                 8.4030                22.2564

                     31                     32                     33
                      A                      A                      A
 Frequencies --   1195.5109              1224.2394              1264.3190
 Red. masses --      2.5201                 1.2495                 1.4987
 Frc consts  --      2.1222                 1.1034                 1.4115
 IR Inten    --     22.1625                 6.9139                 2.6551

                     34                     35                     36
                      A                      A                      A
 Frequencies --   1275.2511              1282.3961              1293.7693
 Red. masses --      1.4192                 1.5071                 1.7590
 Frc consts  --      1.3599                 1.4603                 1.7347
 IR Inten    --      6.1660                51.9494                 8.8199

                     37                     38                     39
                      A                      A                      A
 Frequencies --   1327.6980              1381.9812              1418.3765
 Red. masses --      1.6586                 1.4937                 2.3854
 Frc consts  --      1.7227                 1.6808                 2.8274
 IR Inten    --      9.4238                 8.6415                 0.7454

                     40                     41                     42
                      A                      A                      A
 Frequencies --   1434.4037              1484.8948              1497.3077
 Red. masses --      1.7919                 1.2602                 3.8120
 Frc consts  --      2.1722                 1.6371                 5.0353
 IR Inten    --     31.6593                 1.8320                55.5783

                     43                     44                     45
                      A                      A                      A
 Frequencies --   1501.1656              1512.9707              1526.9117
 Red. masses --      1.2644                 1.0504                 1.0980
 Frc consts  --      1.6788                 1.4166                 1.5082
 IR Inten    --      1.0367                11.4784                 2.0989

                     46                     47                     48
                      A                      A                      A
 Frequencies --   1540.5815              1607.1802              2675.3999
 Red. masses --      1.0586                 6.7394                 1.0382
 Frc consts  --      1.4803                10.2566                 4.3785
 IR Inten    --      7.5200                 9.5960                 9.2932

                     49                     50                     51
                      A                      A                      A
 Frequencies --   2941.2563              2995.5748              3046.3476
 Red. masses --      1.0734                 1.0520                 1.0695
 Frc consts  --      5.4709                 5.5618                 5.8475
 IR Inten    --     31.3259                47.2523                19.7454

                     52                     53                     54
                      A                      A                      A
 Frequencies --   3064.5874              3090.1484              3116.8880
 Red. masses --      1.0861                 1.0813                 1.0881
 Frc consts  --      6.0100                 6.0834                 6.2280
 IR Inten    --     22.0712                35.5937                14.4233

                     55                     56                     57
                      A                      A                      A
 Frequencies --   3123.7546              3130.0645              3248.7381
 Red. masses --      1.0937                 1.1034                 1.0942
 Frc consts  --      6.2879                 6.3695                 6.8039
 IR Inten    --      4.8483                26.6741                 0.8364

 - Thermochemistry -
 -------------------
 Temperature   298.150 Kelvin.  Pressure   1.00000 Atm.
 Atom     1 has atomic number  6 and mass  12.00000

 Molecular mass:   186.02854 amu.
 Principal axes and moments of inertia in atomic units:
                           1         2         3
     Eigenvalues --  1205.027662925.759423383.35743
           X            0.99937  -0.03408   0.01005
           Y            0.03390   0.99927   0.01787
           Z           -0.01065  -0.01752   0.99979
 This molecule is an asymmetric top.
 Rotational symmetry number  1.
 Warning -- assumption of classical behavior for rotation
           may cause significant error
 Rotational temperatures (Kelvin)      0.07188     0.02960     0.02560
 Rotational constants (GHZ):           1.49768     0.61685     0.53342
 Zero-point vibrational energy     434334.0 (Joules/Mol)
                                  103.80832 (Kcal/Mol)
 Warning -- explicit consideration of  15 degrees of freedom as
           vibrations may cause significant error
 Vibrational temperatures:    101.21   167.58   257.04   292.55   341.20
          (Kelvin)            381.56   391.04   403.89   488.32   566.36
                              587.06   662.45   721.50   765.87   824.22
                              926.27   939.36   979.28  1104.08  1132.94
                             1155.20  1210.86  1328.10  1403.42  1455.58
                             1471.00  1515.94  1573.19  1668.65  1676.87
                             1720.07  1761.41  1819.07  1834.80  1845.08
                             1861.45  1910.26  1988.36  2040.73  2063.79
                             2136.43  2154.29  2159.84  2176.83  2196.89
                             2216.55  2312.37  3849.30  4231.81  4309.96
                             4383.01  4409.26  4446.03  4484.51  4494.39
                             4503.46  4674.21

 Zero-point correction=                           0.165429 (Hartree/Particle)
 Thermal correction to Energy=                    0.175729
 Thermal correction to Enthalpy=                  0.176674
 Thermal correction to Gibbs Free Energy=         0.129505
 Sum of electronic and zero-point Energies=          -1178.511206
 Sum of electronic and thermal Energies=             -1178.500905
 Sum of electronic and thermal Enthalpies=           -1178.499961
 Sum of electronic and thermal Free Energies=        -1178.547130

                     E (Thermal)             CV                S
                      KCal/Mol        Cal/Mol-Kelvin    Cal/Mol-Kelvin
 Total                  110.272             39.870             99.275
 Electronic               0.000              0.000              0.000
 Translational            0.889              2.981             41.568
 Rotational               0.889              2.981             30.857
 Vibrational            108.494             33.909             26.850
 Vibration     1          0.598              1.968              4.144
 Vibration     2          0.608              1.936              3.158
 Vibration     3          0.629              1.869              2.342
 Vibration     4          0.639              1.835              2.103
 Vibration     5          0.656              1.784              1.824
 Vibration     6          0.671              1.737              1.627
 Vibration     7          0.675              1.725              1.585
 Vibration     8          0.680              1.709              1.529
 Vibration     9          0.719              1.597              1.215
 Vibration    10          0.761              1.484              0.986
 Vibration    11          0.773              1.453              0.934
 Vibration    12          0.818              1.338              0.765
 Vibration    13          0.857              1.247              0.654
 Vibration    14          0.887              1.179              0.582
 Vibration    15          0.929              1.090              0.499

 Optimization completed.
    -- Stationary point found.
 Normal termination of Gaussian 16 at Tue Dec  8 20:20:49 2020.

 ----------------------------------------------------------------------
 # B3LYP/6-311++G(d,p) empiricaldispersion=gd3bj scf=xqc pop=npa geom=c
 heck
 ----------------------------------------------------------------------

 ---------------------------------------
 CID_143873931_JID_1515_Energie_neutraal
 ---------------------------------------
 Structure from the checkpoint file:  "JID_1515.chk"
 Charge =  0 Multiplicity = 1

 SCF Done:  E(RB3LYP) =  -1178.83464343     A.U. after   15 cycles
 Normal termination of Gaussian 16 at Tue Dec  8 20:22:54 2020.

 ----------------------------------------------------------------------
 # B3LYP/6-311++G(d,p) empiricaldispersion=gd3bj scf=xqc pop=npa geom=c
 heck
 ----------------------------------------------------------------------

 -------------------------------------
 CID_143873931_JID_1515_Energie_kation
 -------------------------------------
 Structure from the checkpoint file:  "JID_1515.chk"
 Charge =  1 Multiplicity = 2

 SCF Done:  E(UB3LYP) =  -1178.53169259     A.U. after   27 cycles
 Normal termination of Gaussian 16 at Tue Dec  8 20:30:44 2020.
 Gaussian 16:  ES64L-G16RevA.03 25-Dec-2016

 ----------------------------------------------------------------------
 # B3LYP/6-311++G(d,p) empiricaldispersion=gd3bj scf=xqc pop=npa geom=c
 heck
 ----------------------------------------------------------------------

 ------------------------------------
 CID_143873931_JID_1515_Energie_anion
 ------------------------------------
 Structure from the checkpoint file:  "JID_1515.chk"
 Charge = -1 Multiplicity = 2

                         Standard orientation:
 ---------------------------------------------------------------------
 Center     Atomic      Atomic             Coordinates (Angstroms)
 Number     Number       Type             X           Y           Z
 ---------------------------------------------------------------------
      1          6           0       -2.671864    1.641843   -0.467338
      2          7           0       -1.442947    0.888022   -0.664755
      3          6           0       -0.351946    1.430145    0.147323
      4          6           0        0.867262    0.573401   -0.000474
      5          6           0        0.870147   -0.665724   -0.576743
      6          6           0       -0.382228   -1.263226   -1.142568
      7          6           0       -1.608675   -0.540452   -0.567462
      8         16           0       -2.031217   -1.194695    1.166326
      9          7           0        2.087100   -1.318453   -0.601055
     10          6           0        3.006104   -0.588993   -0.044937
     11         16           0        2.464878    0.967611    0.562214
     12          1           0       -3.437417    1.279044   -1.160232
     13          1           0       -2.485387    2.698138   -0.686826
     14          1           0       -3.060824    1.558163    0.561294
     15          1           0       -0.157181    2.454811   -0.191545
     16          1           0       -0.641636    1.493961    1.213674
     17          1           0       -0.430018   -2.333887   -0.927418
     18          1           0       -0.391747   -1.143265   -2.234106
     19          1           0       -2.498911   -0.813632   -1.137846
     20          1           0       -0.760385   -1.183134    1.622670
     21          1           0        4.043059   -0.885815    0.057562
 ---------------------------------------------------------------------

 SCF Done:  E(UB3LYP) =  -1178.82170962     A.U. after   33 cycles
 SCF Done:  E(UB3LYP) =  -1178.82170962     a.u. after    1 cycles

 The electronic state is 2-A.
 Alpha  occ. eigenvalues --  -88.76106 -88.72651 -14.21216 -14.19151 -10.12891
 Alpha  occ. eigenvalues --  -10.10311 -10.09839 -10.08634 -10.08236 -10.07718
 Alpha  occ. eigenvalues --  -10.07241  -7.84741  -7.81366  -5.81011  -5.80673
 Alpha  occ. eigenvalues --   -5.80359  -5.77699  -5.77393  -5.76780  -0.84959
 Alpha  occ. eigenvalues --   -0.83204  -0.69250  -0.69002  -0.64438  -0.60364
 Alpha  occ. eigenvalues --   -0.57989  -0.53957  -0.48800  -0.47308  -0.40118
 Alpha  occ. eigenvalues --   -0.38715  -0.37507  -0.35984  -0.34307  -0.32704
 Alpha  occ. eigenvalues --   -0.31380  -0.30369  -0.29315  -0.27760  -0.27179
 Alpha  occ. eigenvalues --   -0.26238  -0.24792  -0.22995  -0.22796  -0.16715
 Alpha  occ. eigenvalues --   -0.16043  -0.13763  -0.12545  -0.11810   0.05127
 Alpha virt. eigenvalues --    0.07018   0.08269   0.08353   0.09122   0.09621
 Alpha virt. eigenvalues --    0.10874   0.11449   0.11888   0.12201   0.12506
 Alpha virt. eigenvalues --    0.12954   0.13355   0.14605   0.15104   0.15907

  Beta  occ. eigenvalues --  -88.76082 -88.72646 -14.21214 -14.19059 -10.12876
  Beta  occ. eigenvalues --  -10.10044 -10.09821 -10.08640 -10.08120 -10.07671
  Beta  occ. eigenvalues --  -10.07234  -7.84719  -7.81359  -5.81001  -5.80666
  Beta  occ. eigenvalues --   -5.80279  -5.77693  -5.77389  -5.76774  -0.84799
  Beta  occ. eigenvalues --   -0.83089  -0.69129  -0.68885  -0.64284  -0.60307
  Beta  occ. eigenvalues --   -0.57856  -0.53828  -0.48686  -0.47018  -0.39985
  Beta  occ. eigenvalues --   -0.38634  -0.37396  -0.35874  -0.34221  -0.32577
  Beta  occ. eigenvalues --   -0.31288  -0.30267  -0.29179  -0.27485  -0.26824
  Beta  occ. eigenvalues --   -0.26141  -0.24690  -0.22914  -0.22726  -0.16178
  Beta  occ. eigenvalues --   -0.15887  -0.13705  -0.12055  -0.11526
  Beta virt. eigenvalues --    0.07780   0.08299   0.08987   0.09229   0.09599
  Beta virt. eigenvalues --    0.10099   0.11085   0.11673   0.12084   0.12500
  Beta virt. eigenvalues --    0.12943   0.13146   0.13542   0.14680   0.15468

 Mulliken charges and spin densities:
               1          2
     1  C    1.066735  -1.362199
     2  N   -0.118946   0.219461
     3  C    0.345398  -0.616046
     4  C    0.575002   0.500206
     5  C   -0.900167  -0.397805
     6  C    0.098789  -0.782345
     7  C    0.204436   0.067226
     8  S   -0.025614  -0.415930
     9  N   -0.010918   0.060723
    10  C    0.006081   0.363544
    11  S   -0.638400  -0.012448
    12  H   -0.673134   0.804536
    13  H   -0.602343   0.743708
    14  H   -0.051791   0.185724
    15  H   -0.481716   0.680624
    16  H    0.180353   0.011521
    17  H    0.118112   0.067374
    18  H    0.024697   0.145028
    19  H   -0.313334   0.632872
    20  H   -0.017304   0.102171
    21  H    0.214064   0.002053
 Sum of Mulliken charges =  -1.00000   1.00000

 Dipole moment (field-independent basis, Debye):
    X=              4.8918    Y=             -3.1100    Z=              2.6637  Tot=              6.3794
 Quadrupole moment (field-independent basis, Debye-Ang):
   XX=           -132.2142   YY=           -125.0409   ZZ=           -104.6759
   XY=              7.9924   XZ=             -3.5054   YZ=              4.1574

 Summary of Natural Population Analysis:

                                       Natural Population
                Natural  -----------------------------------------------
    Atom  No    Charge         Core      Valence    Rydberg      Total
 -----------------------------------------------------------------------
      C    1   -0.17792      0.99964     2.16933    0.00895     3.17792
      N    2   -0.27253      0.99969     2.75725    0.01560     3.77253
      C    3   -0.09834      0.99954     2.08478    0.01402     3.09834
      C    4   -0.10036      0.99938     2.08869    0.01230     3.10036
      C    5    0.05153      0.99938     1.93255    0.01655     2.94847
      C    6   -0.20453      0.99955     2.19313    0.01185     3.20453
      C    7   -0.04033      0.99956     2.02332    0.01745     3.04033
      S    8   -0.06695      4.99967     3.05390    0.01339     8.06695
      N    9   -0.23349      0.99966     2.72302    0.01080     3.73349
      C   10   -0.00784      0.99966     1.99215    0.01603     3.00784
      S   11    0.18196      4.99943     2.79865    0.01996     7.81804
      H   12    0.09850      0.00000     0.39922    0.00228     0.40150
      H   13    0.10045      0.00000     0.39729    0.00227     0.39955
      H   14    0.08877      0.00000     0.40970    0.00153     0.41123
      H   15    0.11054      0.00000     0.38641    0.00305     0.38946
      H   16    0.09254      0.00000     0.40602    0.00144     0.40746
      H   17    0.11044      0.00000     0.38810    0.00146     0.38956
      H   18    0.10886      0.00000     0.38943    0.00171     0.39114
      H   19    0.10632      0.00000     0.39201    0.00167     0.39368
      H   20    0.06220      0.00000     0.43500    0.00280     0.43780
      H   21    0.09020      0.00000     0.40879    0.00100     0.40980
 =======================================================================
   * Total *    0.00000     18.99515    29.82875    0.17610    49.00000

 Normal termination of Gaussian 16 at Tue Dec  8 20:38:59 2020.
