 Gaussian 16, Revision A.03,

 -----------------------------------------------------------
 # opt freq B3LYP/6-31G(d) empiricaldispersion=gd3bj scf=xqc
 -----------------------------------------------------------

 ------------------------------
 CID_65466565_JID_1883_neutraal
 ------------------------------
 Symbolic Z-matrix:
 Charge =  0 Multiplicity = 1

 SCF Done:  E(RB3LYP) =  -499.224468499     A.U. after   14 cycles
 SCF Done:  E(RB3LYP) =  -499.228425953     A.U. after   12 cycles
 SCF Done:  E(RB3LYP) =  -499.229382567     A.U. after   12 cycles
 SCF Done:  E(RB3LYP) =  -499.229658528     A.U. after   12 cycles
 SCF Done:  E(RB3LYP) =  -499.229734791     A.U. after   11 cycles
 SCF Done:  E(RB3LYP) =  -499.229896914     A.U. after   10 cycles
 SCF Done:  E(RB3LYP) =  -499.229923080     A.U. after    9 cycles
 SCF Done:  E(RB3LYP) =  -499.229936441     A.U. after   10 cycles
 SCF Done:  E(RB3LYP) =  -499.229940601     A.U. after    9 cycles
 SCF Done:  E(RB3LYP) =  -499.229941353     A.U. after    7 cycles
 SCF Done:  E(RB3LYP) =  -499.229941521     A.U. after    7 cycles
 Optimization completed.
    -- Stationary point found.
 Normal termination of Gaussian 16 at Tue Dec  8 21:29:58 2020.

 --------------------------------------------------------------------
 #N Geom=AllCheck Guess=TCheck SCRF=Check GenChk RB3LYP/6-31G(d) Freq
 --------------------------------------------------------------------

 Structure from the checkpoint file:  "JID_1883.chk"
 ------------------------------
 CID_65466565_JID_1883_neutraal
 ------------------------------
 Charge =  0 Multiplicity = 1

 SCF Done:  E(RB3LYP) =  -499.229941521     A.U. after    1 cycles

  Exact polarizability: 111.510   4.681  94.762  -0.129   1.880  85.484
 Approx polarizability: 136.505   8.393 148.815  -1.044  10.850 126.416

                      1                      2                      3
                      A                      A                      A
 Frequencies --     53.4123                57.2243                73.9988
 Red. masses --      3.1726                 4.1565                 4.4353
 Frc consts  --      0.0053                 0.0080                 0.0143
 IR Inten    --      0.1230                 0.8063                 2.2044

                      4                      5                      6
                      A                      A                      A
 Frequencies --    108.6086               154.7484               194.4370
 Red. masses --      2.2421                 1.7554                 2.2212
 Frc consts  --      0.0156                 0.0248                 0.0495
 IR Inten    --      0.1588                 0.5892                 2.8377

                      7                      8                      9
                      A                      A                      A
 Frequencies --    219.0121               244.6263               266.1156
 Red. masses --      1.3275                 2.1150                 1.6083
 Frc consts  --      0.0375                 0.0746                 0.0671
 IR Inten    --      3.4691                 2.6404                 3.9684

                     10                     11                     12
                      A                      A                      A
 Frequencies --    285.7068               302.9850               323.7918
 Red. masses --      1.3215                 2.6393                 3.4940
 Frc consts  --      0.0636                 0.1427                 0.2158
 IR Inten    --     20.4833                 1.5114                 6.7057

                     13                     14                     15
                      A                      A                      A
 Frequencies --    341.4302               383.9509               432.1943
 Red. masses --      2.3107                 2.5566                 2.0316
 Frc consts  --      0.1587                 0.2221                 0.2236
 IR Inten    --      9.8815                11.1678                 1.7341

                     16                     17                     18
                      A                      A                      A
 Frequencies --    487.6501               532.0968               580.6196
 Red. masses --      2.5199                 3.6014                 3.0690
 Frc consts  --      0.3531                 0.6008                 0.6096
 IR Inten    --      8.5348                 8.9959                 4.6916

                     19                     20                     21
                      A                      A                      A
 Frequencies --    699.5293               746.1587               783.7248
 Red. masses --      5.0645                 3.2726                 1.5734
 Frc consts  --      1.4601                 1.0735                 0.5694
 IR Inten    --      4.3948                 2.8716                 1.4566

                     22                     23                     24
                      A                      A                      A
 Frequencies --    804.6413               844.4500               865.4061
 Red. masses --      1.1725                 1.6686                 2.0809
 Frc consts  --      0.4473                 0.7011                 0.9182
 IR Inten    --      1.7193               125.6467                77.6899

                     25                     26                     27
                      A                      A                      A
 Frequencies --    885.1235               910.1516               929.4422
 Red. masses --      2.2259                 1.4616                 2.4075
 Frc consts  --      1.0274                 0.7133                 1.2254
 IR Inten    --     20.7163                 4.7155                 8.5444

                     28                     29                     30
                      A                      A                      A
 Frequencies --    957.8781               980.1158              1025.1695
 Red. masses --      1.4666                 1.6982                 1.8964
 Frc consts  --      0.7928                 0.9611                 1.1743
 IR Inten    --      2.7386                 2.5820                17.3690

                     31                     32                     33
                      A                      A                      A
 Frequencies --   1061.4408              1067.1546              1086.5580
 Red. masses --      2.2073                 1.5067                 1.3916
 Frc consts  --      1.4652                 1.0109                 0.9680
 IR Inten    --      1.2308                 9.6081                 0.9515

                     34                     35                     36
                      A                      A                      A
 Frequencies --   1108.9265              1117.0548              1151.9020
 Red. masses --      1.6243                 1.7331                 1.8076
 Frc consts  --      1.1769                 1.2741                 1.4131
 IR Inten    --     61.3139                 5.5800                89.9138

                     37                     38                     39
                      A                      A                      A
 Frequencies --   1165.6055              1206.1080              1255.4964
 Red. masses --      1.4477                 1.2795                 2.1204
 Frc consts  --      1.1589                 1.0966                 1.9693
 IR Inten    --     18.3503                 0.3391                 4.3556

                     40                     41                     42
                      A                      A                      A
 Frequencies --   1276.3864              1294.9175              1311.8991
 Red. masses --      2.1339                 1.6191                 1.2518
 Frc consts  --      2.0483                 1.5996                 1.2694
 IR Inten    --     16.7505                 6.3642                 3.8664

                     43                     44                     45
                      A                      A                      A
 Frequencies --   1333.4144              1349.8602              1394.0824
 Red. masses --      2.4606                 2.5864                 1.4235
 Frc consts  --      2.5777                 2.7767                 1.6300
 IR Inten    --     66.4821                 1.6849                22.2811

                     46                     47                     48
                      A                      A                      A
 Frequencies --   1410.7941              1446.4228              1449.0319
 Red. masses --      1.3497                 1.2662                 2.1497
 Frc consts  --      1.5827                 1.5608                 2.6594
 IR Inten    --      4.5391                 6.8162               105.5229

                     49                     50                     51
                      A                      A                      A
 Frequencies --   1479.9994              1490.4188              1508.5932
 Red. masses --      1.0958                 1.2749                 1.0925
 Frc consts  --      1.4142                 1.6686                 1.4650
 IR Inten    --      0.7597                22.7741                 6.7861

                     52                     53                     54
                      A                      A                      A
 Frequencies --   1517.5920              1522.3274              1528.8139
 Red. masses --      1.0687                 1.3762                 1.0608
 Frc consts  --      1.4502                 1.8791                 1.4608
 IR Inten    --      5.8042                 4.9415                13.7257

                     55                     56                     57
                      A                      A                      A
 Frequencies --   1531.9675              1537.8258              1554.3973
 Red. masses --      1.0515                 1.0631                 1.1179
 Frc consts  --      1.4540                 1.4813                 1.5914
 IR Inten    --      4.9141                11.4085                21.4143

                     58                     59                     60
                      A                      A                      A
 Frequencies --   1697.3618              1743.7870              3013.3850
 Red. masses --      1.1024                10.7744                 1.0530
 Frc consts  --      1.8713                19.3032                 5.6336
 IR Inten    --     14.5695               227.9032                38.6513

                     61                     62                     63
                      A                      A                      A
 Frequencies --   3034.0631              3047.8288              3053.3637
 Red. masses --      1.0636                 1.0694                 1.0369
 Frc consts  --      5.7688                 5.8530                 5.6958
 IR Inten    --     23.9652                80.1146                11.9540

                     64                     65                     66
                      A                      A                      A
 Frequencies --   3069.6950              3081.5682              3115.3844
 Red. masses --      1.0996                 1.0899                 1.1013
 Frc consts  --      6.1048                 6.0980                 6.2979
 IR Inten    --     26.6774                33.9393                52.2958

                     67                     68                     69
                      A                      A                      A
 Frequencies --   3131.0784              3146.3788              3155.5236
 Red. masses --      1.1030                 1.0533                 1.0932
 Frc consts  --      6.3709                 6.1438                 6.4137
 IR Inten    --     24.0754                10.5957                 7.1632

                     70                     71                     72
                      A                      A                      A
 Frequencies --   3169.9701              3175.2175              3230.9957
 Red. masses --      1.0546                 1.0955                 1.1194
 Frc consts  --      6.2437                 6.5073                 6.8851
 IR Inten    --      7.7273                 7.9037                 5.0645

                     73                     74                     75
                      A                      A                      A
 Frequencies --   3259.8087              3474.6449              3559.6101
 Red. masses --      1.1182                 1.0486                 1.0931
 Frc consts  --      7.0009                 7.4590                 8.1608
 IR Inten    --      4.4932                 2.4477                 0.8050

 - Thermochemistry -
 -------------------
 Temperature   298.150 Kelvin.  Pressure   1.00000 Atm.
 Atom     1 has atomic number  6 and mass  12.00000

 Molecular mass:   156.12626 amu.
 Principal axes and moments of inertia in atomic units:
                           1         2         3
     Eigenvalues --   947.719802525.022912611.25173
           X            0.99995  -0.00366   0.00882
           Y            0.00495   0.98843  -0.15161
           Z           -0.00816   0.15165   0.98840
 This molecule is an asymmetric top.
 Rotational symmetry number  1.
 Warning -- assumption of classical behavior for rotation
           may cause significant error
 Rotational temperatures (Kelvin)      0.09139     0.03430     0.03317
 Rotational constants (GHZ):           1.90430     0.71474     0.69114
 Zero-point vibrational energy     632783.0 (Joules/Mol)
                                  151.23876 (Kcal/Mol)
 Warning -- explicit consideration of  18 degrees of freedom as
           vibrations may cause significant error
 Vibrational temperatures:     76.85    82.33   106.47   156.26   222.65
          (Kelvin)            279.75   315.11   351.96   382.88   411.07
                              435.93   465.86   491.24   552.42   621.83
                              701.62   765.57   835.38  1006.47  1073.56
                             1127.61  1157.70  1214.98  1245.13  1273.50
                             1309.51  1337.26  1378.17  1410.17  1474.99
                             1527.18  1535.40  1563.31  1595.50  1607.19
                             1657.33  1677.05  1735.32  1806.38  1836.44
                             1863.10  1887.53  1918.49  1942.15  2005.77
                             2029.82  2081.08  2084.83  2129.39  2144.38
                             2170.53  2183.48  2190.29  2199.62  2204.16
                             2212.59  2236.43  2442.13  2508.92  4335.59
                             4365.34  4385.15  4393.11  4416.61  4433.69
                             4482.34  4504.92  4526.94  4540.09  4560.88
                             4568.43  4648.68  4690.14  4999.24  5121.48

 Zero-point correction=                           0.241014 (Hartree/Particle)
 Thermal correction to Energy=                    0.253616
 Thermal correction to Enthalpy=                  0.254560
 Thermal correction to Gibbs Free Energy=         0.202369
 Sum of electronic and zero-point Energies=           -498.988927
 Sum of electronic and thermal Energies=              -498.976325
 Sum of electronic and thermal Enthalpies=            -498.975381
 Sum of electronic and thermal Free Energies=         -499.027572

                     E (Thermal)             CV                S
                      KCal/Mol        Cal/Mol-Kelvin    Cal/Mol-Kelvin
 Total                  159.146             46.671            109.845
 Electronic               0.000              0.000              0.000
 Translational            0.889              2.981             41.046
 Rotational               0.889              2.981             30.214
 Vibrational            157.369             40.710             38.585
 Vibration     1          0.596              1.976              4.687
 Vibration     2          0.596              1.975              4.551
 Vibration     3          0.599              1.966              4.044
 Vibration     4          0.606              1.942              3.294
 Vibration     5          0.620              1.897              2.613
 Vibration     6          0.635              1.848              2.185
 Vibration     7          0.647              1.812              1.967
 Vibration     8          0.660              1.772              1.769
 Vibration     9          0.672              1.735              1.621
 Vibration    10          0.683              1.700              1.499
 Vibration    11          0.694              1.668              1.400
 Vibration    12          0.708              1.628              1.291
 Vibration    13          0.721              1.593              1.205
 Vibration    14          0.753              1.504              1.024
 Vibration    15          0.793              1.400              0.852
 Vibration    16          0.844              1.277              0.690
 Vibration    17          0.887              1.179              0.583
 Vibration    18          0.937              1.073              0.484

                           ! Non-Optimized Parameters !
 Normal termination of Gaussian 16 at Tue Dec  8 21:39:21 2020.

 ----------------------------------------------------------------------
 # B3LYP/6-311++G(d,p) empiricaldispersion=gd3bj scf=xqc pop=npa geom=c
 heck
 ----------------------------------------------------------------------

 --------------------------------------
 CID_65466565_JID_1883_Energie_neutraal
 --------------------------------------
 Structure from the checkpoint file:  "JID_1883.chk"
 Charge =  0 Multiplicity = 1

 SCF Done:  E(RB3LYP) =  -499.380349662     A.U. after   13 cycles
 Normal termination of Gaussian 16 at Tue Dec  8 21:43:19 2020.

 ----------------------------------------------------------------------
 # B3LYP/6-311++G(d,p) empiricaldispersion=gd3bj scf=xqc pop=npa geom=c
 heck
 ----------------------------------------------------------------------

 ------------------------------------
 CID_65466565_JID_1883_Energie_kation
 ------------------------------------
 Structure from the checkpoint file:  "JID_1883.chk"
 Charge =  1 Multiplicity = 2

 SCF Done:  E(UB3LYP) =  -499.069459451     A.U. after   30 cycles
 Normal termination of Gaussian 16 at Tue Dec  8 21:52:23 2020.
 Gaussian 16:  ES64L-G16RevA.03 25-Dec-2016

 ----------------------------------------------------------------------
 # B3LYP/6-311++G(d,p) empiricaldispersion=gd3bj scf=xqc pop=npa geom=c
 heck
 ----------------------------------------------------------------------

 -----------------------------------
 CID_65466565_JID_1883_Energie_anion
 -----------------------------------
 Structure from the checkpoint file:  "JID_1883.chk"
 Charge = -1 Multiplicity = 2

                         Standard orientation:
 ---------------------------------------------------------------------
 Center     Atomic      Atomic             Coordinates (Angstroms)
 Number     Number       Type             X           Y           Z
 ---------------------------------------------------------------------
      1          6           0        2.564304   -1.071385    1.021736
      2          6           0        2.975196    0.066242    0.083805
      3          6           0        1.937825    0.337837   -1.015784
      4          7           0        0.605332    0.620899   -0.486547
      5          6           0        0.432495    1.892303    0.190931
      6          6           0       -0.344417   -0.375052   -0.521500
      7          8           0       -0.151368   -1.434864   -1.112986
      8          6           0       -1.629265   -0.128344    0.260424
      9          6           0       -2.712713    0.730190   -0.358253
     10          6           0       -2.869104   -0.767663   -0.288729
     11          7           0       -1.525256   -0.103173    1.705564
     12          1           0        1.648694   -0.817077    1.568163
     13          1           0        3.347106   -1.278269    1.759269
     14          1           0        2.362555   -1.989903    0.461196
     15          1           0        3.155159    0.981194    0.664750
     16          1           0        3.927186   -0.174067   -0.407030
     17          1           0        2.254006    1.190528   -1.630934
     18          1           0        1.835484   -0.534771   -1.661997
     19          1           0       -0.625788    2.130490    0.292854
     20          1           0        0.898753    1.904890    1.187352
     21          1           0        0.902428    2.683872   -0.404133
     22          1           0       -3.297664    1.335668    0.327941
     23          1           0       -2.515136    1.183969   -1.325759
     24          1           0       -2.755209   -1.345897   -1.199007
     25          1           0       -3.568470   -1.165128    0.439110
     26          1           0       -0.900027    0.632885    2.026323
     27          1           0       -1.144587   -0.988328    2.036888
 ---------------------------------------------------------------------

 SCF Done:  E(UB3LYP) =  -499.367232634     A.U. after   30 cycles

 The electronic state is 2-A.
 Alpha  occ. eigenvalues --  -18.98132 -14.23603 -14.20395 -10.16468 -10.11651
 Alpha  occ. eigenvalues --  -10.09090 -10.09075 -10.07944 -10.07394 -10.06169
 Alpha  occ. eigenvalues --  -10.05015  -0.93352  -0.83154  -0.81270  -0.72669
 Alpha  occ. eigenvalues --   -0.67581  -0.60510  -0.59223  -0.52523  -0.51278
 Alpha  occ. eigenvalues --   -0.47803  -0.43772  -0.42335  -0.38879  -0.38339
 Alpha  occ. eigenvalues --   -0.37862  -0.35958  -0.33960  -0.33075  -0.31531
 Alpha  occ. eigenvalues --   -0.29971  -0.29667  -0.27925  -0.27474  -0.27387
 Alpha  occ. eigenvalues --   -0.24729  -0.24447  -0.23022  -0.21666  -0.20160
 Alpha  occ. eigenvalues --   -0.17673  -0.13737  -0.13549   0.04696
 Alpha virt. eigenvalues --    0.07481   0.07648   0.08295   0.09437   0.09661
 Alpha virt. eigenvalues --    0.10125   0.10492   0.11276   0.11850   0.12058
 Alpha virt. eigenvalues --    0.12810   0.13140   0.13874   0.14612   0.15120

  Beta  occ. eigenvalues --  -18.98131 -14.23600 -14.20360 -10.16467 -10.11649
  Beta  occ. eigenvalues --  -10.09059 -10.09016 -10.07926 -10.07388 -10.06142
  Beta  occ. eigenvalues --  -10.04984  -0.93349  -0.83137  -0.81239  -0.72628
  Beta  occ. eigenvalues --   -0.67536  -0.60417  -0.59180  -0.52475  -0.51239
  Beta  occ. eigenvalues --   -0.47742  -0.43718  -0.42290  -0.38832  -0.38303
  Beta  occ. eigenvalues --   -0.37806  -0.35915  -0.33928  -0.33038  -0.31473
  Beta  occ. eigenvalues --   -0.29943  -0.29616  -0.27896  -0.27449  -0.27372
  Beta  occ. eigenvalues --   -0.24681  -0.24395  -0.22985  -0.21641  -0.20145
  Beta  occ. eigenvalues --   -0.17652  -0.13709  -0.13532
  Beta virt. eigenvalues --    0.07290   0.07992   0.08495   0.09052   0.09833
  Beta virt. eigenvalues --    0.09962   0.10542   0.11026   0.11650   0.12265
  Beta virt. eigenvalues --    0.12578   0.13087   0.13647   0.13996   0.14789

 Mulliken charges and spin densities:
               1          2
     1  C    0.796240  -1.263373
     2  C   -0.655330   0.404781
     3  C    0.445437  -0.673515
     4  N   -0.132473   0.278163
     5  C    1.911357  -2.321629
     6  C   -0.448459  -0.188652
     7  O   -0.290153   0.002142
     8  C   -0.192034   0.231215
     9  C    0.467785  -0.586252
    10  C   -0.340256  -0.001430
    11  N   -0.261343   0.017092
    12  H   -0.105888   0.253392
    13  H   -0.389290   0.537965
    14  H    0.146323  -0.003311
    15  H   -0.201550   0.358879
    16  H   -0.299338   0.440965
    17  H   -0.124995   0.284708
    18  H    0.078501   0.106225
    19  H   -0.232506   0.430012
    20  H   -0.503080   0.700313
    21  H   -0.798825   0.966930
    22  H   -0.020880   0.170213
    23  H   -0.079600   0.251227
    24  H    0.116718   0.057415
    25  H    0.127419   0.019074
    26  H   -0.047112   0.312328
    27  H    0.033331   0.215122
 Sum of Mulliken charges =  -1.00000   1.00000

 Dipole moment (field-independent basis, Debye):
    X=             -4.0443    Y=             -4.3126    Z=             -2.3657  Tot=              6.3680
 Quadrupole moment (field-independent basis, Debye-Ang):
   XX=           -118.0242   YY=           -116.1927   ZZ=           -107.5609
   XY=             -2.7024   XZ=             -4.0174   YZ=             -3.2542

 Summary of Natural Population Analysis:

                                       Natural Population
                Natural  -----------------------------------------------
    Atom  No    Charge         Core      Valence    Rydberg      Total
 -----------------------------------------------------------------------
      C    1   -0.28775      0.99967     2.28207    0.00602     3.28775
      C    2   -0.19488      0.99964     2.18756    0.00768     3.19488
      C    3   -0.08540      0.99960     2.07419    0.01161     3.08540
      N    4   -0.25298      0.99965     2.74024    0.01309     3.75298
      C    5   -0.18268      0.99962     2.17376    0.00930     3.18268
      C    6    0.33945      0.99956     1.63585    0.02514     2.66055
      O    7   -0.33001      0.99988     3.32526    0.00488     4.33001
      C    8    0.00539      0.99950     1.98109    0.01402     2.99461
      C    9   -0.19517      0.99959     2.18691    0.00867     3.19517
      C   10   -0.18948      0.99959     2.18166    0.00823     3.18948
      N   11   -0.41529      0.99975     2.90561    0.00993     3.91529
      H   12    0.09697      0.00000     0.40143    0.00160     0.40303
      H   13    0.09925      0.00000     0.39973    0.00102     0.40075
      H   14    0.09902      0.00000     0.40005    0.00093     0.40098
      H   15    0.09824      0.00000     0.39960    0.00215     0.40176
      H   16    0.09564      0.00000     0.40327    0.00109     0.40436
      H   17    0.09591      0.00000     0.40285    0.00123     0.40409
      H   18    0.11033      0.00000     0.38830    0.00137     0.38967
      H   19    0.10471      0.00000     0.39324    0.00205     0.39529
      H   20    0.09771      0.00000     0.39793    0.00436     0.40229
      H   21    0.10356      0.00000     0.39326    0.00318     0.39644
      H   22    0.10724      0.00000     0.39151    0.00125     0.39276
      H   23    0.10499      0.00000     0.39382    0.00119     0.39501
      H   24    0.11054      0.00000     0.38854    0.00093     0.38946
      H   25    0.10395      0.00000     0.39509    0.00096     0.39605
      H   26    0.18297      0.00000     0.31438    0.00264     0.31703
      H   27    0.17776      0.00000     0.32039    0.00185     0.32224
 =======================================================================
   * Total *   -0.00000     10.99605    31.85757    0.14638    43.00000

 Normal termination of Gaussian 16 at Tue Dec  8 21:59:35 2020.
