 Gaussian 16, Revision A.03,

 -----------------------------------------------------------
 # opt freq B3LYP/6-31G(d) empiricaldispersion=gd3bj scf=xqc
 -----------------------------------------------------------

 -------------------------------
 CID_150247330_JID_4038_neutraal
 -------------------------------
 Symbolic Z-matrix:
 Charge =  0 Multiplicity = 1

 SCF Done:  E(RB3LYP) =  -622.231164110     A.U. after   12 cycles
 SCF Done:  E(RB3LYP) =  -622.233271404     A.U. after   11 cycles
 SCF Done:  E(RB3LYP) =  -622.233302426     A.U. after   11 cycles
 SCF Done:  E(RB3LYP) =  -622.234565203     A.U. after   11 cycles
 SCF Done:  E(RB3LYP) =  -622.235190452     A.U. after   11 cycles
 SCF Done:  E(RB3LYP) =  -622.235870526     A.U. after   13 cycles
 SCF Done:  E(RB3LYP) =  -622.236726168     A.U. after   10 cycles
 SCF Done:  E(RB3LYP) =  -622.237140091     A.U. after   11 cycles
 SCF Done:  E(RB3LYP) =  -622.237546477     A.U. after   11 cycles
 SCF Done:  E(RB3LYP) =  -622.237891653     A.U. after   11 cycles
 SCF Done:  E(RB3LYP) =  -622.240864471     A.U. after    8 cycles
 SCF Done:  E(RB3LYP) =  -622.240866644     A.U. after    7 cycles
 SCF Done:  E(RB3LYP) =  -622.240868636     A.U. after    8 cycles
 SCF Done:  E(RB3LYP) =  -622.240869602     A.U. after    8 cycles
 SCF Done:  E(RB3LYP) =  -622.240870001     A.U. after    7 cycles
 SCF Done:  E(RB3LYP) =  -622.240870027     A.U. after    6 cycles
 Optimization completed.
    -- Stationary point found.
 Normal termination of Gaussian 16 at Thu Dec 10 09:32:00 2020.

 --------------------------------------------------------------------
 #N Geom=AllCheck Guess=TCheck SCRF=Check GenChk RB3LYP/6-31G(d) Freq
 --------------------------------------------------------------------

 Structure from the checkpoint file:  "JID_4038.chk"
 -------------------------------
 CID_150247330_JID_4038_neutraal
 -------------------------------
 Charge =  0 Multiplicity = 1

 SCF Done:  E(RB3LYP) =  -622.240870027     A.U. after    1 cycles

  Exact polarizability: 146.481  -0.675 127.081   0.447   2.869 118.966
 Approx polarizability: 183.634   1.537 173.360  -1.660  -2.055 177.786

                      1                      2                      3
                      A                      A                      A
 Frequencies --     19.1275                28.8643                70.3874
 Red. masses --      3.4283                 3.3187                 3.0347
 Frc consts  --      0.0007                 0.0016                 0.0089
 IR Inten    --      0.2189                 0.0595                 0.2439

                      4                      5                      6
                      A                      A                      A
 Frequencies --     90.6158               121.7034               141.2202
 Red. masses --      2.5773                 4.3537                 2.5019
 Frc consts  --      0.0125                 0.0380                 0.0294
 IR Inten    --      0.0382                 0.5307                 0.0923

                      7                      8                      9
                      A                      A                      A
 Frequencies --    160.5591               183.1790               211.7466
 Red. masses --      3.1543                 1.8989                 2.0368
 Frc consts  --      0.0479                 0.0375                 0.0538
 IR Inten    --      3.5141                 3.1363                 0.2750

                     10                     11                     12
                      A                      A                      A
 Frequencies --    238.5427               269.7881               284.5058
 Red. masses --      3.5103                 1.9398                 1.4727
 Frc consts  --      0.1177                 0.0832                 0.0702
 IR Inten    --      0.6216                 0.7654                 0.1577

                     13                     14                     15
                      A                      A                      A
 Frequencies --    292.8556               324.2595               342.4357
 Red. masses --      2.3045                 2.5502                 2.8294
 Frc consts  --      0.1164                 0.1580                 0.1955
 IR Inten    --      0.8257                 0.3272                 0.4969

                     16                     17                     18
                      A                      A                      A
 Frequencies --    367.7861               403.8155               423.1517
 Red. masses --      1.8089                 2.6633                 2.4766
 Frc consts  --      0.1442                 0.2559                 0.2613
 IR Inten    --      0.1654                 0.0469                 1.1996

                     19                     20                     21
                      A                      A                      A
 Frequencies --    448.8013               483.6088               513.2900
 Red. masses --      2.3873                 2.4308                 2.3355
 Frc consts  --      0.2833                 0.3350                 0.3625
 IR Inten    --      0.8101                 0.7066                 1.4036

                     22                     23                     24
                      A                      A                      A
 Frequencies --    557.5427               573.8975               614.5132
 Red. masses --      2.2310                 1.1547                 2.1951
 Frc consts  --      0.4086                 0.2241                 0.4884
 IR Inten    --      2.9636               105.3307                27.2802

                     25                     26                     27
                      A                      A                      A
 Frequencies --    742.9823               756.9143               803.0838
 Red. masses --      1.8347                 1.6083                 1.4950
 Frc consts  --      0.5967                 0.5429                 0.5681
 IR Inten    --      2.2557                 4.7951                 0.2157

                     28                     29                     30
                      A                      A                      A
 Frequencies --    829.6990               842.4273               863.8708
 Red. masses --      2.3459                 2.4131                 1.6019
 Frc consts  --      0.9515                 1.0090                 0.7043
 IR Inten    --      0.6751                 0.6540                 2.8916

                     31                     32                     33
                      A                      A                      A
 Frequencies --    873.7108               914.8615               922.5751
 Red. masses --      1.5094                 2.3915                 2.2492
 Frc consts  --      0.6789                 1.1793                 1.1279
 IR Inten    --      7.1837                 2.5908                 3.4654

                     34                     35                     36
                      A                      A                      A
 Frequencies --    945.1667               970.8814               985.2737
 Red. masses --      1.4270                 1.7789                 1.6563
 Frc consts  --      0.7511                 0.9880                 0.9473
 IR Inten    --      3.3165                 1.3560                 2.7404

                     37                     38                     39
                      A                      A                      A
 Frequencies --    996.5667              1008.1570              1019.6496
 Red. masses --      1.6325                 1.9877                 1.8778
 Frc consts  --      0.9552                 1.1903                 1.1502
 IR Inten    --      6.2771                 3.8594                 7.7181

                     40                     41                     42
                      A                      A                      A
 Frequencies --   1035.9182              1058.3701              1079.7676
 Red. masses --      1.7151                 1.9587                 2.4876
 Frc consts  --      1.0844                 1.2927                 1.7088
 IR Inten    --      6.2154                 5.1202                27.3934

                     43                     44                     45
                      A                      A                      A
 Frequencies --   1091.5677              1105.5456              1123.2428
 Red. masses --      2.2157                 2.4909                 1.7167
 Frc consts  --      1.5554                 1.7937                 1.2761
 IR Inten    --     15.6508                21.5863                16.6409

                     46                     47                     48
                      A                      A                      A
 Frequencies --   1138.6547              1155.3136              1164.0563
 Red. masses --      2.3350                 1.8922                 3.5153
 Frc consts  --      1.7837                 1.4880                 2.8064
 IR Inten    --     70.1869                10.0946               158.9033

                     49                     50                     51
                      A                      A                      A
 Frequencies --   1181.2928              1182.0293              1216.2646
 Red. masses --      1.5260                 2.0859                 2.0729
 Frc consts  --      1.2546                 1.7171                 1.8067
 IR Inten    --      6.8499                14.4016                 2.1517

                     52                     53                     54
                      A                      A                      A
 Frequencies --   1235.0438              1260.5377              1271.1725
 Red. masses --      1.6119                 1.1709                 1.2151
 Frc consts  --      1.4486                 1.0962                 1.1569
 IR Inten    --      5.9112                 3.8746                 4.6775

                     55                     56                     57
                      A                      A                      A
 Frequencies --   1290.2766              1299.3382              1312.1901
 Red. masses --      1.2965                 1.2323                 1.2453
 Frc consts  --      1.2717                 1.2258                 1.2633
 IR Inten    --      1.8784                 4.7815                 1.7303

                     58                     59                     60
                      A                      A                      A
 Frequencies --   1321.9224              1335.5421              1353.2535
 Red. masses --      1.2699                 1.1193                 1.4822
 Frc consts  --      1.3075                 1.1762                 1.5992
 IR Inten    --      0.9479                 1.6186                 8.8992

                     61                     62                     63
                      A                      A                      A
 Frequencies --   1373.3821              1386.1395              1390.5422
 Red. masses --      1.3734                 1.3829                 1.3231
 Frc consts  --      1.5263                 1.5655                 1.5073
 IR Inten    --      1.9543                 1.6317                14.7743

                     64                     65                     66
                      A                      A                      A
 Frequencies --   1397.2841              1400.5182              1406.8664
 Red. masses --      1.3315                 1.4728                 1.4768
 Frc consts  --      1.5317                 1.7021                 1.7222
 IR Inten    --      0.5545                 2.2012                 3.7845

                     67                     68                     69
                      A                      A                      A
 Frequencies --   1410.0963              1413.4297              1422.3272
 Red. masses --      1.4884                 1.4597                 1.3456
 Frc consts  --      1.7437                 1.7182                 1.6039
 IR Inten    --      0.9505                 7.8819                22.2624

                     70                     71                     72
                      A                      A                      A
 Frequencies --   1442.9534              1467.3892              1489.6437
 Red. masses --      1.2850                 1.4428                 1.1978
 Frc consts  --      1.5764                 1.8304                 1.5661
 IR Inten    --      4.5075                 0.9083                74.5076

                     73                     74                     75
                      A                      A                      A
 Frequencies --   1507.4528              1508.9233              1513.6491
 Red. masses --      1.0817                 1.0846                 1.0945
 Frc consts  --      1.4483                 1.4549                 1.4775
 IR Inten    --      0.0331                 4.0034                 1.3471

                     76                     77                     78
                      A                      A                      A
 Frequencies --   1519.0197              1520.7237              1523.8197
 Red. masses --      1.0881                 1.0705                 1.0810
 Frc consts  --      1.4792                 1.4587                 1.4789
 IR Inten    --      1.8944                 2.3823                 8.6911

                     79                     80                     81
                      A                      A                      A
 Frequencies --   1530.9821              1533.7568              1535.2182
 Red. masses --      1.0589                 1.0771                 1.0858
 Frc consts  --      1.4624                 1.4929                 1.5078
 IR Inten    --      4.4951                 8.1837                 3.5209

                     82                     83                     84
                      A                      A                      A
 Frequencies --   1540.5539              1549.1077              1566.0397
 Red. masses --      1.0820                 1.0819                 1.0869
 Frc consts  --      1.5130                 1.5297                 1.5705
 IR Inten    --      4.3276                 9.7174                 5.7307

                     85                     86                     87
                      A                      A                      A
 Frequencies --   2952.6477              2984.7404              2996.6207
 Red. masses --      1.0724                 1.0630                 1.0588
 Frc consts  --      5.5086                 5.5797                 5.6019
 IR Inten    --     62.7837                31.0084                78.0902

                     88                     89                     90
                      A                      A                      A
 Frequencies --   3021.4933              3022.8031              3024.8588
 Red. masses --      1.0721                 1.0976                 1.0633
 Frc consts  --      5.7669                 5.9090                 5.7322
 IR Inten    --      3.9687                37.0950                32.4425

                     91                     92                     93
                      A                      A                      A
 Frequencies --   3027.6910              3031.5544              3037.3064
 Red. masses --      1.0690                 1.0705                 1.0684
 Frc consts  --      5.7736                 5.7963                 5.8070
 IR Inten    --     21.8309                16.3765                31.7037

                     94                     95                     96
                      A                      A                      A
 Frequencies --   3040.2412              3044.0590              3046.8102
 Red. masses --      1.0655                 1.0394                 1.0856
 Frc consts  --      5.8025                 5.6745                 5.9374
 IR Inten    --     48.5295                19.3840                51.2276

                     97                     98                     99
                      A                      A                      A
 Frequencies --   3051.8422              3061.0303              3072.3377
 Red. masses --      1.0644                 1.0977                 1.0926
 Frc consts  --      5.8408                 6.0601                 6.0766
 IR Inten    --     30.8708                43.8365                55.2253

                    100                    101                    102
                      A                      A                      A
 Frequencies --   3073.5744              3074.5526              3077.4412
 Red. masses --      1.0984                 1.0932                 1.1014
 Frc consts  --      6.1134                 6.0885                 6.1456
 IR Inten    --     37.8884                27.5174                29.4207

                    103                    104                    105
                      A                      A                      A
 Frequencies --   3082.3436              3090.9849              3112.2715
 Red. masses --      1.1023                 1.0991                 1.1008
 Frc consts  --      6.1706                 6.1869                 6.2819
 IR Inten    --    141.6909                18.0520                60.4513

                    106                    107                    108
                      A                      A                      A
 Frequencies --   3118.6592              3126.2451              3673.4578
 Red. masses --      1.1023                 1.0912                 1.0650
 Frc consts  --      6.3168                 6.2832                 8.4676
 IR Inten    --     59.8256                19.5618               164.4014

 - Thermochemistry -
 -------------------
 Temperature   298.150 Kelvin.  Pressure   1.00000 Atm.
 Atom     1 has atomic number  6 and mass  12.00000

 Molecular mass:   200.17763 amu.
 Principal axes and moments of inertia in atomic units:
                           1         2         3
     Eigenvalues --  1916.669684242.924124970.40012
           X            0.99997   0.00764   0.00286
           Y           -0.00773   0.99945   0.03231
           Z           -0.00261  -0.03233   0.99947
 This molecule is an asymmetric top.
 Rotational symmetry number  1.
 Warning -- assumption of classical behavior for rotation
           may cause significant error
 Rotational temperatures (Kelvin)      0.04519     0.02041     0.01743
 Rotational constants (GHZ):           0.94160     0.42535     0.36310
 Zero-point vibrational energy     927397.2 (Joules/Mol)
                                  221.65325 (Kcal/Mol)
 Warning -- explicit consideration of  24 degrees of freedom as
           vibrations may cause significant error
 Vibrational temperatures:     27.52    41.53   101.27   130.38   175.10
          (Kelvin)            203.18   231.01   263.55   304.66   343.21
                              388.16   409.34   421.35   466.54   492.69
                              529.16   581.00   608.82   645.72   695.81
                              738.51   802.18   825.71   884.15  1068.99
                             1089.03  1155.46  1193.75  1212.06  1242.92
                             1257.08  1316.28  1327.38  1359.88  1396.88
                             1417.59  1433.84  1450.51  1467.05  1490.46
                             1522.76  1553.54  1570.52  1590.63  1616.10
                             1638.27  1662.24  1674.82  1699.62  1700.68
                             1749.93  1776.95  1813.63  1828.93  1856.42
                             1869.46  1887.95  1901.95  1921.55  1947.03
                             1975.99  1994.35  2000.68  2010.38  2015.03
                             2024.17  2028.81  2033.61  2046.41  2076.09
                             2111.25  2143.27  2168.89  2171.00  2177.80
                             2185.53  2187.98  2192.44  2202.74  2206.73
                             2208.84  2216.51  2228.82  2253.18  4248.20
                             4294.38  4311.47  4347.25  4349.14  4352.10
                             4356.17  4361.73  4370.01  4374.23  4379.72
                             4383.68  4390.92  4404.14  4420.41  4422.19
                             4423.60  4427.75  4434.80  4447.24  4477.86
                             4487.06  4497.97  5285.29

 Zero-point correction=                           0.353227 (Hartree/Particle)
 Thermal correction to Energy=                    0.368620
 Thermal correction to Enthalpy=                  0.369564
 Thermal correction to Gibbs Free Energy=         0.309763
 Sum of electronic and zero-point Energies=           -621.887643
 Sum of electronic and thermal Energies=              -621.872250
 Sum of electronic and thermal Enthalpies=            -621.871306
 Sum of electronic and thermal Free Energies=         -621.931107

                     E (Thermal)             CV                S
                      KCal/Mol        Cal/Mol-Kelvin    Cal/Mol-Kelvin
 Total                  231.312             59.084            125.861
 Electronic               0.000              0.000              0.000
 Translational            0.889              2.981             41.787
 Rotational               0.889              2.981             32.069
 Vibrational            229.535             53.123             52.005
 Vibration     1          0.593              1.986              6.723
 Vibration     2          0.593              1.984              5.906
 Vibration     3          0.598              1.968              4.142
 Vibration     4          0.602              1.956              3.647
 Vibration     5          0.609              1.931              3.073
 Vibration     6          0.615              1.912              2.787
 Vibration     7          0.622              1.891              2.543
 Vibration     8          0.631              1.863              2.296
 Vibration     9          0.643              1.823              2.029
 Vibration    10          0.657              1.782              1.814
 Vibration    11          0.674              1.729              1.598
 Vibration    12          0.683              1.702              1.506
 Vibration    13          0.688              1.687              1.457
 Vibration    14          0.709              1.627              1.289
 Vibration    15          0.722              1.591              1.201
 Vibration    16          0.740              1.538              1.089
 Vibration    17          0.769              1.462              0.949
 Vibration    18          0.785              1.420              0.881
 Vibration    19          0.808              1.364              0.799
 Vibration    20          0.840              1.286              0.700
 Vibration    21          0.868              1.221              0.626
 Vibration    22          0.913              1.123              0.529
 Vibration    23          0.930              1.088              0.497
 Vibration    24          0.974              1.001              0.425

 Optimization completed.
    -- Stationary point found.
 Normal termination of Gaussian 16 at Thu Dec 10 09:44:44 2020.

 ----------------------------------------------------------------------
 # B3LYP/6-311++G(d,p) empiricaldispersion=gd3bj scf=xqc pop=npa geom=c
 heck
 ----------------------------------------------------------------------

 ---------------------------------------
 CID_150247330_JID_4038_Energie_neutraal
 ---------------------------------------
 Structure from the checkpoint file:  "JID_4038.chk"
 Charge =  0 Multiplicity = 1

 SCF Done:  E(RB3LYP) =  -622.425006434     A.U. after   14 cycles
 Normal termination of Gaussian 16 at Thu Dec 10 09:50:42 2020.

 ----------------------------------------------------------------------
 # B3LYP/6-311++G(d,p) empiricaldispersion=gd3bj scf=xqc pop=npa geom=c
 heck
 ----------------------------------------------------------------------

 -------------------------------------
 CID_150247330_JID_4038_Energie_kation
 -------------------------------------
 Structure from the checkpoint file:  "JID_4038.chk"
 Charge =  1 Multiplicity = 2

 SCF Done:  E(UB3LYP) =  -622.092057419     A.U. after   25 cycles
 Normal termination of Gaussian 16 at Thu Dec 10 10:04:40 2020.
 Gaussian 16:  ES64L-G16RevA.03 25-Dec-2016

 ----------------------------------------------------------------------
 # B3LYP/6-311++G(d,p) empiricaldispersion=gd3bj scf=xqc pop=npa geom=c
 heck
 ----------------------------------------------------------------------

 ------------------------------------
 CID_150247330_JID_4038_Energie_anion
 ------------------------------------
 Structure from the checkpoint file:  "JID_4038.chk"
 Charge = -1 Multiplicity = 2

                         Standard orientation:
 ---------------------------------------------------------------------
 Center     Atomic      Atomic             Coordinates (Angstroms)
 Number     Number       Type             X           Y           Z
 ---------------------------------------------------------------------
      1          6           0       -3.101207   -1.970502   -0.484948
      2          6           0       -3.449453   -0.494572   -0.695959
      3          6           0       -3.447145    0.341027    0.593561
      4          6           0       -2.136609    0.273771    1.366684
      5          8           0       -1.074265    0.612611    0.488695
      6          6           0        0.220792    0.461208    1.059254
      7          6           0        1.289880    0.703005   -0.017771
      8          6           0        2.686744    0.549818    0.626054
      9          6           0        3.032451   -0.894693    1.018695
     10          6           0        2.870688   -1.850846   -0.170317
     11          6           0        1.470324   -1.743168   -0.787930
     12          6           0        1.143606   -0.298391   -1.184418
     13          6           0        1.153283    2.147397   -0.548300
     14          8           0       -0.015805    2.382491   -1.311455
     15          1           0       -2.065143   -2.090421   -0.149224
     16          1           0       -3.209717   -2.534750   -1.417481
     17          1           0       -3.755122   -2.434962    0.264104
     18          1           0       -2.739515   -0.054841   -1.405316
     19          1           0       -4.441873   -0.413088   -1.157154
     20          1           0       -3.663105    1.388605    0.348127
     21          1           0       -4.247975    0.001867    1.264964
     22          1           0       -2.153992    0.961817    2.227135
     23          1           0       -1.967686   -0.740098    1.761334
     24          1           0        0.352503    1.183321    1.882577
     25          1           0        0.303424   -0.545605    1.491229
     26          1           0        3.431774    0.899615   -0.102214
     27          1           0        2.773008    1.212571    1.498036
     28          1           0        2.389470   -1.227545    1.844748
     29          1           0        4.060486   -0.932233    1.399653
     30          1           0        3.077787   -2.882382    0.140498
     31          1           0        3.617662   -1.596691   -0.936643
     32          1           0        0.723931   -2.116032   -0.072198
     33          1           0        1.394975   -2.391251   -1.669690
     34          1           0        0.136192   -0.227406   -1.601180
     35          1           0        1.831728    0.015160   -1.982155
     36          1           0        1.221180    2.845407    0.306701
     37          1           0        1.999883    2.365619   -1.209986
     38          1           0       -0.749447    2.008184   -0.791401
 ---------------------------------------------------------------------

 SCF Done:  E(UB3LYP) =  -622.411292060     A.U. after   28 cycles

 The electronic state is 2-A.
 Alpha  occ. eigenvalues --  -19.03856 -19.01076 -10.12025 -10.11985 -10.11390
 Alpha  occ. eigenvalues --  -10.08541 -10.07326 -10.07234 -10.07015 -10.06760
 Alpha  occ. eigenvalues --  -10.06612 -10.06524 -10.06251 -10.06046  -0.95261
 Alpha  occ. eigenvalues --   -0.91493  -0.74723  -0.70423  -0.67457  -0.64639
 Alpha  occ. eigenvalues --   -0.63006  -0.57909  -0.56969  -0.54091  -0.51621
 Alpha  occ. eigenvalues --   -0.48975  -0.47458  -0.44554  -0.41700  -0.40461
 Alpha  occ. eigenvalues --   -0.38817  -0.37283  -0.36541  -0.35541  -0.34993
 Alpha  occ. eigenvalues --   -0.34098  -0.33135  -0.32064  -0.30877  -0.30193
 Alpha  occ. eigenvalues --   -0.29520  -0.29003  -0.28289  -0.26864  -0.26715
 Alpha  occ. eigenvalues --   -0.25448  -0.24671  -0.23981  -0.23755  -0.23404
 Alpha  occ. eigenvalues --   -0.22694  -0.21164  -0.20827  -0.19860  -0.17375
 Alpha  occ. eigenvalues --   -0.16747   0.04305
 Alpha virt. eigenvalues --    0.06116   0.06913   0.07487   0.08209   0.08355
 Alpha virt. eigenvalues --    0.08591   0.09797   0.09911   0.10354   0.10781
 Alpha virt. eigenvalues --    0.11231   0.11372   0.12029   0.12782   0.13097

  Beta  occ. eigenvalues --  -19.03849 -19.01075 -10.11995 -10.11961 -10.11383
  Beta  occ. eigenvalues --  -10.08542 -10.07308 -10.07222 -10.07008 -10.06738
  Beta  occ. eigenvalues --  -10.06596 -10.06508 -10.06244 -10.06015  -0.95251
  Beta  occ. eigenvalues --   -0.91489  -0.74702  -0.70390  -0.67429  -0.64609
  Beta  occ. eigenvalues --   -0.62967  -0.57862  -0.56945  -0.54021  -0.51576
  Beta  occ. eigenvalues --   -0.48931  -0.47401  -0.44515  -0.41670  -0.40407
  Beta  occ. eigenvalues --   -0.38779  -0.37256  -0.36507  -0.35524  -0.34965
  Beta  occ. eigenvalues --   -0.34073  -0.33108  -0.32038  -0.30847  -0.30162
  Beta  occ. eigenvalues --   -0.29494  -0.28969  -0.28256  -0.26839  -0.26667
  Beta  occ. eigenvalues --   -0.25424  -0.24640  -0.23951  -0.23728  -0.23372
  Beta  occ. eigenvalues --   -0.22651  -0.21136  -0.20799  -0.19835  -0.17355
  Beta  occ. eigenvalues --   -0.16737
  Beta virt. eigenvalues --    0.06419   0.06915   0.07576   0.07971   0.08707
  Beta virt. eigenvalues --    0.08780   0.09007   0.10092   0.10272   0.10737
  Beta virt. eigenvalues --    0.11112   0.11465   0.11706   0.12303   0.13022

 Mulliken charges and spin densities:
               1          2
     1  C    0.933261  -1.514282
     2  C   -1.076627   1.028565
     3  C    0.892075  -1.434104
     4  C    0.527110  -0.541652
     5  O   -0.085182   0.053412
     6  C    0.352395  -1.241464
     7  C   -1.255175   1.599710
     8  C   -0.213645  -0.054193
     9  C    0.265766  -0.676185
    10  C    0.391801  -0.970016
    11  C   -0.498163   0.284724
    12  C    0.293346  -0.469167
    13  C    0.020810  -0.169424
    14  O   -0.182948   0.001630
    15  H   -0.059763   0.199133
    16  H   -0.050885   0.183831
    17  H   -0.301128   0.440419
    18  H    0.039856   0.100088
    19  H   -0.091345   0.243893
    20  H    0.041937   0.101070
    21  H   -0.227937   0.387820
    22  H   -0.496332   0.663336
    23  H   -0.285770   0.418666
    24  H    0.049667   0.122864
    25  H    0.413208  -0.230410
    26  H   -0.058672   0.210595
    27  H   -0.126560   0.275301
    28  H   -0.251544   0.388601
    29  H   -0.450171   0.636910
    30  H   -0.341177   0.517276
    31  H    0.129111  -0.021471
    32  H    0.081190   0.034815
    33  H   -0.077031   0.252361
    34  H    0.334320  -0.199634
    35  H    0.010596   0.164236
    36  H   -0.019427   0.157706
    37  H    0.072758   0.085828
    38  H    0.300275  -0.030787
 Sum of Mulliken charges =  -1.00000   1.00000

 Dipole moment (field-independent basis, Debye):
    X=              0.7439    Y=              2.1973    Z=             -3.2551  Tot=              3.9972
 Quadrupole moment (field-independent basis, Debye-Ang):
   XX=           -164.3501   YY=           -140.1065   ZZ=           -133.6472
   XY=              0.8602   XZ=             -0.9083   YZ=              3.2694

 Summary of Natural Population Analysis:

                                       Natural Population
                Natural  -----------------------------------------------
    Atom  No    Charge         Core      Valence    Rydberg      Total
 -----------------------------------------------------------------------
      C    1   -0.28803      0.99966     2.28313    0.00523     3.28803
      C    2   -0.19194      0.99964     2.18370    0.00861     3.19194
      C    3   -0.19683      0.99962     2.18798    0.00923     3.19683
      C    4   -0.00581      0.99958     1.99389    0.01234     3.00581
      O    5   -0.31854      0.99987     3.30833    0.01035     4.31854
      C    6   -0.00796      0.99951     1.99508    0.01338     3.00796
      C    7   -0.06108      0.99954     2.04836    0.01318     3.06108
      C    8   -0.18888      0.99959     2.17846    0.01083     3.18888
      C    9   -0.18956      0.99963     2.18102    0.00892     3.18956
      C   10   -0.18822      0.99963     2.18036    0.00824     3.18822
      C   11   -0.19146      0.99963     2.18316    0.00868     3.19146
      C   12   -0.19123      0.99959     2.18106    0.01058     3.19123
      C   13   -0.00121      0.99953     1.98886    0.01282     3.00121
      O   14   -0.37996      0.99990     3.37311    0.00696     4.37996
      H   15    0.09889      0.00000     0.39958    0.00153     0.40111
      H   16    0.09828      0.00000     0.40084    0.00088     0.40172
      H   17    0.09609      0.00000     0.40271    0.00120     0.40391
      H   18    0.09810      0.00000     0.40028    0.00162     0.40190
      H   19    0.09347      0.00000     0.40558    0.00095     0.40653
      H   20    0.09664      0.00000     0.40217    0.00119     0.40336
      H   21    0.09985      0.00000     0.39887    0.00128     0.40015
      H   22    0.08435      0.00000     0.41387    0.00178     0.41565
      H   23    0.08260      0.00000     0.41558    0.00182     0.41740
      H   24    0.08457      0.00000     0.41368    0.00176     0.41543
      H   25    0.08795      0.00000     0.41007    0.00198     0.41205
      H   26    0.09676      0.00000     0.40192    0.00133     0.40324
      H   27    0.10170      0.00000     0.39706    0.00124     0.39830
      H   28    0.09510      0.00000     0.40320    0.00170     0.40490
      H   29    0.10012      0.00000     0.39855    0.00133     0.39988
      H   30    0.09982      0.00000     0.39905    0.00113     0.40018
      H   31    0.09012      0.00000     0.40870    0.00119     0.40988
      H   32    0.09475      0.00000     0.40346    0.00179     0.40525
      H   33    0.09819      0.00000     0.40097    0.00084     0.40181
      H   34    0.10996      0.00000     0.38854    0.00150     0.39004
      H   35    0.09518      0.00000     0.40373    0.00109     0.40482
      H   36    0.07511      0.00000     0.42363    0.00126     0.42489
      H   37    0.08361      0.00000     0.41517    0.00122     0.41639
      H   38    0.23954      0.00000     0.25699    0.00347     0.26046
 =======================================================================
   * Total *    0.00000     13.99490    41.83068    0.17442    56.00000

 Normal termination of Gaussian 16 at Thu Dec 10 10:20:09 2020.
