 Gaussian 16, Revision A.03,

 -----------------------------------------------------------
 # opt freq B3LYP/6-31G(d) empiricaldispersion=gd3bj scf=xqc
 -----------------------------------------------------------

 -----------------------------
 CID_45089908_JID_570_neutraal
 -----------------------------
 Symbolic Z-matrix:
 Charge =  0 Multiplicity = 1

 SCF Done:  E(RB3LYP) =  -462.448980148     A.U. after   14 cycles
 SCF Done:  E(RB3LYP) =  -462.477238168     A.U. after   12 cycles
 SCF Done:  E(RB3LYP) =  -462.489588348     A.U. after   13 cycles
 SCF Done:  E(RB3LYP) =  -462.492053639     A.U. after   12 cycles
 SCF Done:  E(RB3LYP) =  -462.494120507     A.U. after   13 cycles
 SCF Done:  E(RB3LYP) =  -462.494943136     A.U. after   12 cycles
 SCF Done:  E(RB3LYP) =  -462.495925711     A.U. after   12 cycles
 SCF Done:  E(RB3LYP) =  -462.496428079     A.U. after   12 cycles
 SCF Done:  E(RB3LYP) =  -462.496483455     A.U. after   11 cycles
 SCF Done:  E(RB3LYP) =  -462.496523605     A.U. after   10 cycles
 SCF Done:  E(RB3LYP) =  -462.496551852     A.U. after   10 cycles
 SCF Done:  E(RB3LYP) =  -462.496560922     A.U. after    9 cycles
 SCF Done:  E(RB3LYP) =  -462.496562999     A.U. after    8 cycles
 SCF Done:  E(RB3LYP) =  -462.496563482     A.U. after    7 cycles
 Optimization completed.
    -- Stationary point found.

 1\1\GINC-NODE375\FOpt\RB3LYP\6-31G(d)\C8H12O2\VSC10255\08-Dec-2020\0\\
 # opt freq B3LYP/6-31G(d) empiricaldispersion=gd3bj scf=xqc\\CID_45089
 908_JID_570_neutraal\\0,1\C,1.0375738169,-0.3768750016,-0.2286095863\C
 ,0.5800071004,-1.3576760947,0.8467268527\C,1.3302554215,-1.2252531274,
 2.1683996473\O,-0.865238102,-1.3018155116,1.0435627125\C,-1.4343145347
 ,-0.1642872851,1.5017032877\O,-0.8362734938,0.8515816953,1.8072430084\
 C,-2.8939585734,-0.3032055499,1.57411051\C,-3.8087496891,-1.3044508912
 ,0.9282568857\C,-3.8452735856,0.1119110447,0.4578434051\C,-3.873052395

 Normal termination of Gaussian 16 at Tue Dec  8 14:18:01 2020.

 --------------------------------------------------------------------
 #N Geom=AllCheck Guess=TCheck SCRF=Check GenChk RB3LYP/6-31G(d) Freq
 --------------------------------------------------------------------

 Structure from the checkpoint file:  "JID_570.chk"
 -----------------------------
 CID_45089908_JID_570_neutraal
 -----------------------------
 Charge =  0 Multiplicity = 1

 SCF Done:  E(RB3LYP) =  -462.496563482     A.U. after    1 cycles

  Exact polarizability: 107.256  -0.127  80.340   0.381   1.725  71.211
 Approx polarizability: 134.008   4.694 129.245  -3.391   4.766 104.275

                      1                      2                      3
                      A                      A                      A
 Frequencies --     54.0972                58.6442               126.1561
 Red. masses --      3.1309                 3.6725                 3.3113
 Frc consts  --      0.0054                 0.0074                 0.0311
 IR Inten    --      0.5293                 1.4683                 0.3487

                      4                      5                      6
                      A                      A                      A
 Frequencies --    145.7240               199.6932               234.8787
 Red. masses --      3.5493                 3.5442                 1.1384
 Frc consts  --      0.0444                 0.0833                 0.0370
 IR Inten    --      0.7867                 1.4755                 0.1293

                      7                      8                      9
                      A                      A                      A
 Frequencies --    248.6366               249.2107               332.3300
 Red. masses --      1.9044                 1.4681                 3.0648
 Frc consts  --      0.0694                 0.0537                 0.1994
 IR Inten    --      5.1615                 2.1838                 8.4005

                     10                     11                     12
                      A                      A                      A
 Frequencies --    398.2377               427.3390               450.3075
 Red. masses --      2.4692                 3.5256                 2.4039
 Frc consts  --      0.2307                 0.3793                 0.2872
 IR Inten    --      1.0165                 6.3261                 1.1787

                     13                     14                     15
                      A                      A                      A
 Frequencies --    496.7055               560.2025               734.7899
 Red. masses --      3.6522                 3.1812                 3.5962
 Frc consts  --      0.5309                 0.5882                 1.1440
 IR Inten    --      6.6870                 7.3144                 1.2845

                     16                     17                     18
                      A                      A                      A
 Frequencies --    769.1631               800.2325               804.7102
 Red. masses --      3.6549                 4.1425                 5.9050
 Frc consts  --      1.2740                 1.5629                 2.2529
 IR Inten    --     44.7163                10.2515                 4.7911

                     19                     20                     21
                      A                      A                      A
 Frequencies --    883.7280               901.9112               944.7306
 Red. masses --      2.1262                 2.5381                 1.6765
 Frc consts  --      0.9783                 1.2164                 0.8816
 IR Inten    --      4.4427                35.6902                 5.5065

                     22                     23                     24
                      A                      A                      A
 Frequencies --    947.7800               955.5074               957.4529
 Red. masses --      1.2100                 1.3095                 1.4054
 Frc consts  --      0.6404                 0.7044                 0.7591
 IR Inten    --      2.2876                 1.2866                 0.1270

                     25                     26                     27
                      A                      A                      A
 Frequencies --    965.9475              1050.7059              1102.6756
 Red. masses --      1.5409                 1.5562                 1.2109
 Frc consts  --      0.8471                 1.0122                 0.8675
 IR Inten    --      0.9035                 2.4076                 0.1327

                     28                     29                     30
                      A                      A                      A
 Frequencies --   1116.2034              1145.9262              1172.1301
 Red. masses --      1.8006                 1.3201                 2.1432
 Frc consts  --      1.3218                 1.0213                 1.7349
 IR Inten    --     25.0644                24.5692                 9.5697

                     31                     32                     33
                      A                      A                      A
 Frequencies --   1174.0192              1181.4010              1193.9218
 Red. masses --      1.7506                 1.6921                 2.7900
 Frc consts  --      1.4216                 1.3915                 2.3432
 IR Inten    --      1.7266                 2.7174               362.8263

                     34                     35                     36
                      A                      A                      A
 Frequencies --   1219.7286              1237.9341              1329.3794
 Red. masses --      1.9410                 2.9444                 3.0180
 Frc consts  --      1.7014                 2.6586                 3.1425
 IR Inten    --      6.7196               251.8539                 0.8149

                     37                     38                     39
                      A                      A                      A
 Frequencies --   1391.0812              1413.6276              1426.9908
 Red. masses --      1.3015                 1.3389                 1.3502
 Frc consts  --      1.4839                 1.5765                 1.6199
 IR Inten    --      2.7779                10.8218                19.9996

                     40                     41                     42
                      A                      A                      A
 Frequencies --   1440.7231              1455.9845              1509.7866
 Red. masses --      1.2464                 2.6369                 1.0469
 Frc consts  --      1.5243                 3.2934                 1.4061
 IR Inten    --     31.0824               179.8480                 0.0395

                     43                     44                     45
                      A                      A                      A
 Frequencies --   1514.7683              1521.3078              1530.6683
 Red. masses --      1.1570                 1.0519                 1.0491
 Frc consts  --      1.5642                 1.4344                 1.4483
 IR Inten    --      1.6493                21.7438                 0.0397

                     46                     47                     48
                      A                      A                      A
 Frequencies --   1550.2915              1556.6917              1789.3493
 Red. masses --      1.0570                 1.4165                11.3809
 Frc consts  --      1.4968                 2.0224                21.4693
 IR Inten    --      7.2182                19.9115               245.7460

                     49                     50                     51
                      A                      A                      A
 Frequencies --   3059.8351              3063.5415              3080.9247
 Red. masses --      1.0382                 1.0414                 1.0833
 Frc consts  --      5.7270                 5.7588                 6.0584
 IR Inten    --     22.7866                12.8631                33.9685

                     52                     53                     54
                      A                      A                      A
 Frequencies --   3095.1360              3098.4914              3122.4256
 Red. masses --      1.0631                 1.0627                 1.1019
 Frc consts  --      6.0007                 6.0111                 6.3296
 IR Inten    --     51.1027                34.6409                18.2357

                     55                     56                     57
                      A                      A                      A
 Frequencies --   3125.9819              3168.3724              3172.8074
 Red. masses --      1.1018                 1.1005                 1.0999
 Frc consts  --      6.3435                 6.5089                 6.5236
 IR Inten    --     38.3075                 2.1601                18.3685

                     58                     59                     60
                      A                      A                      A
 Frequencies --   3207.9013              3210.4857              3258.2637
 Red. masses --      1.1069                 1.1064                 1.0953
 Frc consts  --      6.7112                 6.7190                 6.8510
 IR Inten    --     11.3081                 2.4820                 2.0781

 - Thermochemistry -
 -------------------
 Temperature   298.150 Kelvin.  Pressure   1.00000 Atm.
 Atom     1 has atomic number  6 and mass  12.00000

 Molecular mass:   140.08373 amu.
 Principal axes and moments of inertia in atomic units:
                           1         2         3
     Eigenvalues --   611.741822258.817332368.68728
           X            0.99999  -0.00040   0.00395
           Y            0.00054   0.99934  -0.03639
           Z           -0.00393   0.03639   0.99933
 This molecule is an asymmetric top.
 Rotational symmetry number  1.
 Warning -- assumption of classical behavior for rotation
           may cause significant error
 Rotational temperatures (Kelvin)      0.14159     0.03834     0.03657
 Rotational constants (GHZ):           2.95017     0.79898     0.76192
 Zero-point vibrational energy     492488.1 (Joules/Mol)
                                  117.70748 (Kcal/Mol)
 Warning -- explicit consideration of  14 degrees of freedom as
           vibrations may cause significant error
 Vibrational temperatures:     77.83    84.38   181.51   209.66   287.31
          (Kelvin)            337.94   357.73   358.56   478.15   572.98
                              614.85   647.89   714.65   806.01  1057.20
                             1106.65  1151.36  1157.80  1271.49  1297.65
                             1359.26  1363.64  1374.76  1377.56  1389.78
                             1511.73  1586.50  1605.97  1648.73  1686.43
                             1689.15  1699.77  1717.79  1754.92  1781.11
                             1912.68  2001.46  2033.89  2053.12  2072.88
                             2094.84  2172.25  2179.41  2188.82  2202.29
                             2230.52  2239.73  2574.47  4402.42  4407.75
                             4432.76  4453.21  4458.04  4492.47  4497.59
                             4558.58  4564.96  4615.45  4619.17  4687.91

 Zero-point correction=                           0.187579 (Hartree/Particle)
 Thermal correction to Energy=                    0.198032
 Thermal correction to Enthalpy=                  0.198976
 Thermal correction to Gibbs Free Energy=         0.151393
 Sum of electronic and zero-point Energies=           -462.308985
 Sum of electronic and thermal Energies=              -462.298532
 Sum of electronic and thermal Enthalpies=            -462.297588
 Sum of electronic and thermal Free Energies=         -462.345171

                     E (Thermal)             CV                S
                      KCal/Mol        Cal/Mol-Kelvin    Cal/Mol-Kelvin
 Total                  124.267             38.475            100.147
 Electronic               0.000              0.000              0.000
 Translational            0.889              2.981             40.723
 Rotational               0.889              2.981             29.572
 Vibrational            122.489             32.513             29.852
 Vibration     1          0.596              1.976              4.662
 Vibration     2          0.596              1.974              4.502
 Vibration     3          0.611              1.927              3.004
 Vibration     4          0.617              1.907              2.727
 Vibration     5          0.638              1.840              2.136
 Vibration     6          0.655              1.787              1.841
 Vibration     7          0.662              1.765              1.740
 Vibration     8          0.662              1.764              1.736
 Vibration     9          0.714              1.611              1.249
 Vibration    10          0.765              1.474              0.969
 Vibration    11          0.789              1.411              0.867
 Vibration    12          0.809              1.360              0.795
 Vibration    13          0.852              1.257              0.666
 Vibration    14          0.916              1.117              0.523

 Optimization completed.
    -- Stationary point found.

 1\1\GINC-NODE375\Freq\RB3LYP\6-31G(d)\C8H12O2\VSC10255\08-Dec-2020\0\\
 #N Geom=AllCheck Guess=TCheck SCRF=Check GenChk RB3LYP/6-31G(d) Freq\\
 CID_45089908_JID_570_neutraal\\0,1\C,1.0375738169,-0.3768750016,-0.228
 6095863\C,0.5800071004,-1.3576760947,0.8467268527\C,1.3302554215,-1.22
 52531274,2.1683996473\O,-0.865238102,-1.3018155116,1.0435627125\C,-1.4
 343145347,-0.1642872851,1.5017032877\O,-0.8362734938,0.8515816953,1.80
 72430084\C,-2.8939585734,-0.3032055499,1.57411051\C,-3.8087496891,-1.3
 044508912,0.9282568857\C,-3.8452735856,0.1119110447,0.4578434051\C,-3.

 Normal termination of Gaussian 16 at Tue Dec  8 14:21:44 2020.

 ----------------------------------------------------------------------
 # B3LYP/6-311++G(d,p) empiricaldispersion=gd3bj scf=xqc pop=npa geom=c
 heck
 ----------------------------------------------------------------------

 -------------------------------------
 CID_45089908_JID_570_Energie_neutraal
 -------------------------------------
 Structure from the checkpoint file:  "JID_570.chk"
 Charge =  0 Multiplicity = 1

 SCF Done:  E(RB3LYP) =  -462.627378332     A.U. after   14 cycles
 Normal termination of Gaussian 16 at Tue Dec  8 14:23:56 2020.

 ----------------------------------------------------------------------
 # B3LYP/6-311++G(d,p) empiricaldispersion=gd3bj scf=xqc pop=npa geom=c
 heck
 ----------------------------------------------------------------------

 -----------------------------------
 CID_45089908_JID_570_Energie_kation
 -----------------------------------
 Structure from the checkpoint file:  "JID_570.chk"
 Charge =  1 Multiplicity = 2

 SCF Done:  E(UB3LYP) =  -462.291644437     A.U. after   25 cycles
 Normal termination of Gaussian 16 at Tue Dec  8 14:28:37 2020.
 Gaussian 16:  ES64L-G16RevA.03 25-Dec-2016

 ----------------------------------
 CID_45089908_JID_570_Energie_anion
 ----------------------------------
 Structure from the checkpoint file:  "JID_570.chk"
 Charge = -1 Multiplicity = 2

                         Standard orientation:
 ---------------------------------------------------------------------
 Center     Atomic      Atomic             Coordinates (Angstroms)
 Number     Number       Type             X           Y           Z
 ---------------------------------------------------------------------
      1          6           0       -2.377130    0.305005   -1.371126
      2          6           0       -2.067492    0.595554    0.094272
      3          6           0       -2.732469   -0.367600    1.072723
      4          8           0       -0.630143    0.690673    0.330029
      5          6           0        0.153227   -0.393209    0.131936
      6          8           0       -0.237881   -1.494789   -0.209463
      7          6           0        1.564657   -0.067991    0.371102
      8          6           0        2.257293    1.263021    0.442686
      9          6           0        2.534574    0.369199   -0.720457
     10          6           0        2.738222   -0.924144   -0.005425
     11          1           0       -2.089473   -0.713229   -1.638082
     12          1           0       -1.843911    1.007727   -2.020161
     13          1           0       -3.451731    0.427612   -1.546991
     14          1           0       -2.389227    1.615219    0.328090
     15          1           0       -2.452470   -1.400090    0.857981
     16          1           0       -2.441570   -0.126845    2.100363
     17          1           0       -3.821227   -0.270684    0.994060
     18          1           0        1.643228    2.141930    0.262573
     19          1           0        3.031710    1.398616    1.201266
     20          1           0        2.265472    0.521626   -1.756605
     21          1           0        3.560788   -1.010844    0.707853
     22          1           0        2.507313   -1.837123   -0.549143
 ---------------------------------------------------------------------

 SCF Done:  E(UB3LYP) =  -462.609376592     A.U. after   33 cycles
 SCF Done:  E(UB3LYP) =  -462.609376592     a.u. after    1 cycles

 The electronic state is 2-A.
 Alpha  occ. eigenvalues --  -19.05674 -19.00160 -10.20127 -10.12813 -10.10663
 Alpha  occ. eigenvalues --  -10.10488 -10.09640 -10.09414 -10.05588 -10.05308
 Alpha  occ. eigenvalues --   -0.99567  -0.91290  -0.84041  -0.69016  -0.60323
 Alpha  occ. eigenvalues --   -0.58902  -0.58062  -0.50390  -0.49108  -0.44268
 Alpha  occ. eigenvalues --   -0.40691  -0.38094  -0.36599  -0.35811  -0.34358
 Alpha  occ. eigenvalues --   -0.33501  -0.31232  -0.30518  -0.28280  -0.27989
 Alpha  occ. eigenvalues --   -0.26944  -0.25804  -0.25302  -0.23377  -0.23071
 Alpha  occ. eigenvalues --   -0.19873  -0.16929  -0.15704   0.04805
 Alpha virt. eigenvalues --    0.06633   0.07822   0.08452   0.08588   0.09490
 Alpha virt. eigenvalues --    0.09732   0.10654   0.10962   0.11870   0.12850
 Alpha virt. eigenvalues --    0.13167   0.13541   0.14189   0.15652   0.15994

  Beta  occ. eigenvalues --  -19.05672 -19.00155 -10.20125 -10.12794 -10.10649
  Beta  occ. eigenvalues --  -10.10488 -10.09621 -10.09385 -10.05560 -10.05271
  Beta  occ. eigenvalues --   -0.99560  -0.91281  -0.84027  -0.68976  -0.60283
  Beta  occ. eigenvalues --   -0.58838  -0.58036  -0.50353  -0.49044  -0.44209
  Beta  occ. eigenvalues --   -0.40651  -0.38053  -0.36563  -0.35777  -0.34315
  Beta  occ. eigenvalues --   -0.33467  -0.31201  -0.30493  -0.28250  -0.27952
  Beta  occ. eigenvalues --   -0.26910  -0.25775  -0.25263  -0.23343  -0.23042
  Beta  occ. eigenvalues --   -0.19859  -0.16912  -0.15686
  Beta virt. eigenvalues --    0.07196   0.07883   0.08535   0.08784   0.09064
  Beta virt. eigenvalues --    0.10191   0.10429   0.11088   0.11430   0.12437
  Beta virt. eigenvalues --    0.13375   0.13455   0.13903   0.14307   0.15742

 Mulliken charges and spin densities:
               1          2
     1  C    0.972063  -1.410931
     2  C   -1.170377   1.217528
     3  C    1.242720  -1.685822
     4  O    0.008055   0.010075
     5  C   -1.251383   0.432809
     6  O   -0.247346   0.002895
     7  C    0.061221   1.030848
     8  C    1.882957  -2.598358
     9  C   -0.463842   0.706176
    10  C    1.201228  -1.887578
    11  H    0.020597   0.149421
    12  H   -0.094147   0.231853
    13  H   -0.557633   0.716357
    14  H   -0.923287   1.115816
    15  H    0.039757   0.130730
    16  H   -0.056912   0.188596
    17  H   -0.337364   0.499622
    18  H    0.109992   0.067002
    19  H   -0.622222   0.770317
    20  H   -0.659257   0.845437
    21  H   -0.435774   0.581221
    22  H    0.280953  -0.114013
 Sum of Mulliken charges =  -1.00000   1.00000

 Dipole moment (field-independent basis, Debye):
    X=              2.4017    Y=             -3.2927    Z=              0.2333  Tot=              4.0822
 Quadrupole moment (field-independent basis, Debye-Ang):
   XX=           -135.0926   YY=            -96.8966   ZZ=            -93.6671
   XY=              3.5769   XZ=             -4.7312   YZ=              0.5998

 Summary of Natural Population Analysis:

                                       Natural Population
                Natural  -----------------------------------------------
    Atom  No    Charge         Core      Valence    Rydberg      Total
 -----------------------------------------------------------------------
      C    1   -0.30075      0.99964     2.29473    0.00638     3.30075
      C    2    0.06431      0.99955     1.92217    0.01397     2.93569
      C    3   -0.30052      0.99964     2.29453    0.00636     3.30052
      O    4   -0.28344      0.99986     3.27351    0.01007     4.28344
      C    5    0.39727      0.99957     1.57812    0.02505     2.60273
      O    6   -0.31575      0.99987     3.31087    0.00501     4.31575
      C    7   -0.07602      0.99942     2.06344    0.01316     3.07602
      C    8   -0.17629      0.99959     2.16550    0.01121     3.17629
      C    9   -0.08574      0.99953     2.07400    0.01221     3.08574
      C   10   -0.17914      0.99959     2.16842    0.01113     3.17914
      H   11    0.10757      0.00000     0.39131    0.00112     0.39243
      H   12    0.10369      0.00000     0.39465    0.00167     0.39631
      H   13    0.10479      0.00000     0.39343    0.00179     0.39521
      H   14    0.09430      0.00000     0.40233    0.00337     0.40570
      H   15    0.10829      0.00000     0.39070    0.00101     0.39171
      H   16    0.10159      0.00000     0.39736    0.00105     0.39841
      H   17    0.10427      0.00000     0.39435    0.00138     0.39573
      H   18    0.11320      0.00000     0.38501    0.00178     0.38680
      H   19    0.09817      0.00000     0.39980    0.00203     0.40183
      H   20    0.11182      0.00000     0.38683    0.00135     0.38818
      H   21    0.09803      0.00000     0.40050    0.00147     0.40197
      H   22    0.11035      0.00000     0.38866    0.00099     0.38965
 =======================================================================
   * Total *    0.00000      9.99626    27.87020    0.13354    38.00000

 Normal termination of Gaussian 16 at Tue Dec  8 14:34:07 2020.
