 Gaussian 16, Revision A.03,

 -----------------------------------------------------------
 # opt freq B3LYP/6-31G(d) empiricaldispersion=gd3bj scf=xqc
 -----------------------------------------------------------

 -------------------------------
 CID_106913362_JID_8513_neutraal
 -------------------------------
 Symbolic Z-matrix:
 Charge =  0 Multiplicity = 1

 SCF Done:  E(RB3LYP) =  -733.660166239     A.U. after   13 cycles
 SCF Done:  E(RB3LYP) =  -733.673424550     A.U. after   12 cycles
 SCF Done:  E(RB3LYP) =  -733.674448286     A.U. after   12 cycles
 SCF Done:  E(RB3LYP) =  -733.674879472     A.U. after   12 cycles
 SCF Done:  E(RB3LYP) =  -733.675489391     A.U. after   11 cycles
 SCF Done:  E(RB3LYP) =  -733.675901150     A.U. after   11 cycles
 SCF Done:  E(RB3LYP) =  -733.676062521     A.U. after   11 cycles
 SCF Done:  E(RB3LYP) =  -733.676233979     A.U. after   11 cycles
 SCF Done:  E(RB3LYP) =  -733.676226722     A.U. after   11 cycles
 SCF Done:  E(RB3LYP) =  -733.676333844     A.U. after   11 cycles
 SCF Done:  E(RB3LYP) =  -733.676374375     A.U. after   10 cycles
 SCF Done:  E(RB3LYP) =  -733.676387798     A.U. after   10 cycles
 SCF Done:  E(RB3LYP) =  -733.676388791     A.U. after    9 cycles
 SCF Done:  E(RB3LYP) =  -733.676389012     A.U. after    7 cycles
 SCF Done:  E(RB3LYP) =  -733.676389348     A.U. after    7 cycles
 Optimization completed.
    -- Stationary point found.
 Normal termination of Gaussian 16 at Fri Dec 11 20:59:41 2020.

 --------------------------------------------------------------------
 #N Geom=AllCheck Guess=TCheck SCRF=Check GenChk RB3LYP/6-31G(d) Freq
 --------------------------------------------------------------------

 Structure from the checkpoint file:  "JID_8513.chk"
 -------------------------------
 CID_106913362_JID_8513_neutraal
 -------------------------------
 Charge =  0 Multiplicity = 1

 SCF Done:  E(RB3LYP) =  -733.676389348     A.U. after    1 cycles

  Exact polarizability: 255.589 -13.406 139.054   5.963  10.908 155.529
 Approx polarizability: 302.113 -30.388 209.767  11.807  27.659 263.402

                      1                      2                      3
                      A                      A                      A
 Frequencies --     24.2927                29.0290                40.3139
 Red. masses --      3.9434                 3.1748                 3.0386
 Frc consts  --      0.0014                 0.0016                 0.0029
 IR Inten    --      0.0801                 0.0383                 0.2293

                      4                      5                      6
                      A                      A                      A
 Frequencies --     54.0961                78.0320                83.1013
 Red. masses --      3.3687                 3.1107                 2.9411
 Frc consts  --      0.0058                 0.0112                 0.0120
 IR Inten    --      0.0412                 0.2735                 0.0495

                      7                      8                      9
                      A                      A                      A
 Frequencies --    111.8500               128.7251               161.3586
 Red. masses --      3.8562                 2.8246                 2.9980
 Frc consts  --      0.0284                 0.0276                 0.0460
 IR Inten    --      2.3838                 0.2298                 1.6379

                     10                     11                     12
                      A                      A                      A
 Frequencies --    214.5999               225.5891               247.5430
 Red. masses --      2.8801                 1.0746                 1.5314
 Frc consts  --      0.0781                 0.0322                 0.0553
 IR Inten    --      7.5659                 0.3960                 1.3546

                     13                     14                     15
                      A                      A                      A
 Frequencies --    273.9031               288.3839               292.2582
 Red. masses --      2.0001                 2.5027                 3.5445
 Frc consts  --      0.0884                 0.1226                 0.1784
 IR Inten    --      0.4252                 1.5208                 0.2721

                     16                     17                     18
                      A                      A                      A
 Frequencies --    332.2870               366.1633               376.9072
 Red. masses --      2.1014                 2.6179                 2.1905
 Frc consts  --      0.1367                 0.2068                 0.1833
 IR Inten    --      1.5658                 8.7921                 0.1276

                     19                     20                     21
                      A                      A                      A
 Frequencies --    385.1692               394.7032               420.2702
 Red. masses --      2.1470                 2.5053                 3.1676
 Frc consts  --      0.1877                 0.2300                 0.3296
 IR Inten    --      3.9319                 1.1291                 0.2100

                     22                     23                     24
                      A                      A                      A
 Frequencies --    445.9031               492.5046               513.4743
 Red. masses --      2.1826                 3.5710                 3.2236
 Frc consts  --      0.2557                 0.5103                 0.5008
 IR Inten    --      3.7339                 1.7394                 1.7748

                     25                     26                     27
                      A                      A                      A
 Frequencies --    521.6941               587.1161               648.7701
 Red. masses --      3.1142                 2.4796                 2.8043
 Frc consts  --      0.4994                 0.5036                 0.6954
 IR Inten    --      5.6531                12.1768                18.1829

                     28                     29                     30
                      A                      A                      A
 Frequencies --    656.1096               702.1816               719.7157
 Red. masses --      6.6057                 1.6365                 2.3383
 Frc consts  --      1.6754                 0.4754                 0.7136
 IR Inten    --      0.3710                14.8106                53.3678

                     31                     32                     33
                      A                      A                      A
 Frequencies --    756.7919               793.3841               815.5777
 Red. masses --      4.1257                 1.2698                 2.3215
 Frc consts  --      1.3922                 0.4709                 0.9098
 IR Inten    --     22.4977                 1.1295                40.8158

                     34                     35                     36
                      A                      A                      A
 Frequencies --    825.0945               829.9722               854.3190
 Red. masses --      1.2827                 1.7708                 2.4614
 Frc consts  --      0.5145                 0.7187                 1.0584
 IR Inten    --      0.9073                12.8695                48.2181

                     37                     38                     39
                      A                      A                      A
 Frequencies --    868.9779               891.3162               916.0973
 Red. masses --      2.0801                 2.2044                 2.2242
 Frc consts  --      0.9255                 1.0318                 1.0998
 IR Inten    --      2.7580                 3.6046                 1.1301

                     40                     41                     42
                      A                      A                      A
 Frequencies --    928.4685               929.7337               936.0812
 Red. masses --      2.5486                 2.0100                 1.2617
 Frc consts  --      1.2945                 1.0237                 0.6514
 IR Inten    --      0.8076                 0.2664                 1.4063

                     43                     44                     45
                      A                      A                      A
 Frequencies --    942.0076               943.0690               949.8758
 Red. masses --      2.0896                 1.4053                 1.4177
 Frc consts  --      1.0925                 0.7364                 0.7537
 IR Inten    --      1.4490                 0.5241                 1.5880

                     46                     47                     48
                      A                      A                      A
 Frequencies --    951.2582               966.4739               977.9340
 Red. masses --      1.4636                 1.5903                 1.8956
 Frc consts  --      0.7803                 0.8752                 1.0681
 IR Inten    --      0.8655                 0.4520                 0.0784

                     49                     50                     51
                      A                      A                      A
 Frequencies --    994.9834              1030.9165              1036.6163
 Red. masses --      1.5519                 4.1178                 2.6589
 Frc consts  --      0.9052                 2.5785                 1.6834
 IR Inten    --      5.0577                 2.0164                 2.5791

                     52                     53                     54
                      A                      A                      A
 Frequencies --   1077.9202              1119.1592              1131.4620
 Red. masses --      1.1797                 3.5838                 2.2326
 Frc consts  --      0.8076                 2.6447                 1.6840
 IR Inten    --      0.3465                30.6254                14.7491

                     55                     56                     57
                      A                      A                      A
 Frequencies --   1146.7340              1152.6197              1163.3342
 Red. masses --      1.0596                 2.0613                 1.5613
 Frc consts  --      0.8210                 1.6135                 1.2449
 IR Inten    --      0.1342                20.3122                16.5030

                     58                     59                     60
                      A                      A                      A
 Frequencies --   1165.5803              1178.3028              1192.5858
 Red. masses --      2.3938                 1.4516                 2.0158
 Frc consts  --      1.9162                 1.1874                 1.6892
 IR Inten    --     31.8519                30.1821                 1.1195

                     61                     62                     63
                      A                      A                      A
 Frequencies --   1204.4302              1207.5337              1208.1501
 Red. masses --      2.0192                 1.8275                 1.8347
 Frc consts  --      1.7258                 1.5700                 1.5778
 IR Inten    --      2.1953                17.5422                28.5004

                     64                     65                     66
                      A                      A                      A
 Frequencies --   1215.5849              1237.7074              1244.3068
 Red. masses --      1.1941                 2.9322                 1.5276
 Frc consts  --      1.0396                 2.6466                 1.3935
 IR Inten    --     13.6666                12.5578                 0.7864

                     67                     68                     69
                      A                      A                      A
 Frequencies --   1270.9588              1281.3203              1289.7730
 Red. masses --      1.2476                 1.4791                 1.6146
 Frc consts  --      1.1873                 1.4308                 1.5825
 IR Inten    --      0.3016                 1.3917                 8.2728

                     70                     71                     72
                      A                      A                      A
 Frequencies --   1294.5219              1299.6397              1316.9822
 Red. masses --      1.5577                 1.3829                 1.7402
 Frc consts  --      1.5380                 1.3762                 1.7784
 IR Inten    --      0.2309                 1.5107                 0.2081

                     73                     74                     75
                      A                      A                      A
 Frequencies --   1353.7431              1357.6206              1369.4742
 Red. masses --      1.4472                 1.6492                 2.1330
 Frc consts  --      1.5626                 1.7910                 2.3569
 IR Inten    --      2.2021                 8.2022                38.9267

                     76                     77                     78
                      A                      A                      A
 Frequencies --   1370.6971              1383.9179              1404.6890
 Red. masses --      2.1118                 1.3070                 2.4285
 Frc consts  --      2.3377                 1.4749                 2.8233
 IR Inten    --     33.2400                63.6451               181.2876

                     79                     80                     81
                      A                      A                      A
 Frequencies --   1408.4663              1425.1068              1443.8224
 Red. masses --      1.6530                 1.2745                 1.2450
 Frc consts  --      1.9321                 1.5250                 1.5291
 IR Inten    --     54.4097                 5.1428                10.8045

                     82                     83                     84
                      A                      A                      A
 Frequencies --   1476.3789              1494.8313              1503.9697
 Red. masses --      2.9309                 1.1061                 1.0899
 Frc consts  --      3.7639                 1.4562                 1.4525
 IR Inten    --      0.6723                 3.8406                 1.6852

                     85                     86                     87
                      A                      A                      A
 Frequencies --   1511.2185              1513.2898              1515.7014
 Red. masses --      1.1119                 1.0842                 1.0500
 Frc consts  --      1.4962                 1.4628                 1.4212
 IR Inten    --     14.0297                 2.5140                 1.9593

                     88                     89                     90
                      A                      A                      A
 Frequencies --   1517.7921              1530.3290              1537.3702
 Red. masses --      1.0620                 1.0868                 1.1302
 Frc consts  --      1.4415                 1.4995                 1.5738
 IR Inten    --      0.8896                 1.6553                 6.1658

                     91                     92                     93
                      A                      A                      A
 Frequencies --   1537.7996              1540.4905              1551.5971
 Red. masses --      1.0932                 1.0689                 1.1830
 Frc consts  --      1.5231                 1.4946                 1.6780
 IR Inten    --      3.9275                 9.3408                91.7564

                     94                     95                     96
                      A                      A                      A
 Frequencies --   1572.5947              1624.9311              1678.1388
 Red. masses --      2.4269                 6.4242                 5.6886
 Frc consts  --      3.5362                 9.9940                 9.4387
 IR Inten    --    122.8477                 5.1681               143.1704

                     97                     98                     99
                      A                      A                      A
 Frequencies --   2992.2929              3001.0097              3032.1936
 Red. masses --      1.0616                 1.0661                 1.0657
 Frc consts  --      5.6006                 5.6569                 5.7730
 IR Inten    --     61.0215                47.3717                17.1614

                    100                    101                    102
                      A                      A                      A
 Frequencies --   3035.7878              3038.9762              3043.5922
 Red. masses --      1.0493                 1.0635                 1.0440
 Frc consts  --      5.6976                 5.7867                 5.6980
 IR Inten    --      4.4012                53.0825                62.0560

                    103                    104                    105
                      A                      A                      A
 Frequencies --   3058.4701              3061.2707              3061.9926
 Red. masses --      1.0638                 1.0994                 1.0881
 Frc consts  --      5.8630                 6.0704                 6.0107
 IR Inten    --     22.0702                26.8349                65.2583

                    106                    107                    108
                      A                      A                      A
 Frequencies --   3065.1852              3076.0578              3078.9530
 Red. masses --      1.0649                 1.0624                 1.1049
 Frc consts  --      5.8950                 5.9226                 6.1714
 IR Inten    --     35.7285                48.2389                20.9031

                    109                    110                    111
                      A                      A                      A
 Frequencies --   3091.9280              3105.1099              3107.0381
 Red. masses --      1.1001                 1.1005                 1.1062
 Frc consts  --      6.1963                 6.2517                 6.2919
 IR Inten    --      8.4754                70.0855                19.4894

                    112                    113                    114
                      A                      A                      A
 Frequencies --   3112.7656              3131.8849              3132.5943
 Red. masses --      1.1081                 1.1084                 1.1013
 Frc consts  --      6.3259                 6.4054                 6.3676
 IR Inten    --     16.1035                63.0847                29.4201

                    115                    116                    117
                      A                      A                      A
 Frequencies --   3158.5200              3162.1205              3170.6306
 Red. masses --      1.0966                 1.0879                 1.0877
 Frc consts  --      6.4456                 6.4091                 6.4425
 IR Inten    --     17.4315                22.9106                22.6210

                    118                    119                    120
                      A                      A                      A
 Frequencies --   3198.3447              3199.9796              3481.7824
 Red. masses --      1.0917                 1.0924                 1.0735
 Frc consts  --      6.5798                 6.5907                 7.6677
 IR Inten    --     23.2709                 9.3045                 1.0071

 - Thermochemistry -
 -------------------
 Temperature   298.150 Kelvin.  Pressure   1.00000 Atm.
 Atom     1 has atomic number  6 and mass  12.00000

 Molecular mass:   244.19395 amu.
 Principal axes and moments of inertia in atomic units:
                           1         2         3
     Eigenvalues --  1307.62488********************
           X            0.99998   0.00540  -0.00116
           Y           -0.00538   0.99981   0.01861
           Z            0.00126  -0.01860   0.99983
 This molecule is an asymmetric top.
 Rotational symmetry number  1.
 Warning -- assumption of classical behavior for rotation
           may cause significant error
 Rotational temperatures (Kelvin)      0.06624     0.00695     0.00680
 Rotational constants (GHZ):           1.38017     0.14477     0.14162
 Zero-point vibrational energy     984383.4 (Joules/Mol)
                                  235.27328 (Kcal/Mol)
 Warning -- explicit consideration of  26 degrees of freedom as
           vibrations may cause significant error
 Vibrational temperatures:     34.95    41.77    58.00    77.83   112.27
          (Kelvin)            119.56   160.93   185.21   232.16   308.76
                              324.57   356.16   394.09   414.92   420.49
                              478.09   526.83   542.29   554.17   567.89
                              604.68   641.56   708.60   738.77   750.60
                              844.73   933.44   944.00  1010.28  1035.51
                             1088.85  1141.50  1173.43  1187.13  1194.14
                             1229.17  1250.27  1282.41  1318.06  1335.86
                             1337.68  1346.81  1355.34  1356.87  1366.66
                             1368.65  1390.54  1407.03  1431.56  1483.26
                             1491.46  1550.89  1610.22  1627.92  1649.89
                             1658.36  1673.78  1677.01  1695.31  1715.87
                             1732.91  1737.37  1738.26  1748.96  1780.78
                             1790.28  1828.63  1843.53  1855.70  1862.53
                             1869.89  1894.84  1947.73  1953.31  1970.37
                             1972.13  1991.15  2021.03  2026.47  2050.41
                             2077.34  2124.18  2150.73  2163.88  2174.31
                             2177.29  2180.76  2183.76  2201.80  2211.93
                             2212.55  2216.42  2232.40  2262.61  2337.91
                             2414.47  4305.24  4317.78  4362.65  4367.82
                             4372.41  4379.05  4400.46  4404.49  4405.52
                             4410.12  4425.76  4429.93  4448.59  4467.56
                             4470.33  4478.58  4506.08  4507.10  4544.41
                             4549.59  4561.83  4601.70  4604.06  5009.51

 Zero-point correction=                           0.374932 (Hartree/Particle)
 Thermal correction to Energy=                    0.392815
 Thermal correction to Enthalpy=                  0.393759
 Thermal correction to Gibbs Free Energy=         0.327378
 Sum of electronic and zero-point Energies=           -733.301458
 Sum of electronic and thermal Energies=              -733.283575
 Sum of electronic and thermal Enthalpies=            -733.282630
 Sum of electronic and thermal Free Energies=         -733.349011

                     E (Thermal)             CV                S
                      KCal/Mol        Cal/Mol-Kelvin    Cal/Mol-Kelvin
 Total                  246.495             69.295            139.710
 Electronic               0.000              0.000              0.000
 Translational            0.889              2.981             42.379
 Rotational               0.889              2.981             33.696
 Vibrational            244.718             63.333             63.635
 Vibration     1          0.593              1.985              6.248
 Vibration     2          0.593              1.984              5.895
 Vibration     3          0.594              1.981              5.244
 Vibration     4          0.596              1.976              4.662
 Vibration     5          0.599              1.964              3.940
 Vibration     6          0.600              1.961              3.816
 Vibration     7          0.607              1.940              3.237
 Vibration     8          0.611              1.925              2.965
 Vibration     9          0.622              1.890              2.534
 Vibration    10          0.645              1.819              2.004
 Vibration    11          0.650              1.802              1.914
 Vibration    12          0.661              1.767              1.748
 Vibration    13          0.676              1.722              1.571
 Vibration    14          0.685              1.695              1.483
 Vibration    15          0.688              1.688              1.461
 Vibration    16          0.714              1.611              1.249
 Vibration    17          0.739              1.542              1.096
 Vibration    18          0.747              1.519              1.052
 Vibration    19          0.754              1.502              1.019
 Vibration    20          0.762              1.481              0.982
 Vibration    21          0.783              1.426              0.891
 Vibration    22          0.805              1.370              0.808
 Vibration    23          0.848              1.267              0.677
 Vibration    24          0.869              1.220              0.625
 Vibration    25          0.877              1.202              0.606
 Vibration    26          0.944              1.059              0.472

                           ! Non-Optimized Parameters !
 Normal termination of Gaussian 16 at Fri Dec 11 21:16:11 2020.

 ----------------------------------------------------------------------
 # B3LYP/6-311++G(d,p) empiricaldispersion=gd3bj scf=xqc pop=npa geom=c
 heck
 ----------------------------------------------------------------------

 ---------------------------------------
 CID_106913362_JID_8513_Energie_neutraal
 ---------------------------------------
 Structure from the checkpoint file:  "JID_8513.chk"
 Charge =  0 Multiplicity = 1

 SCF Done:  E(RB3LYP) =  -733.870833756     A.U. after   14 cycles
 Normal termination of Gaussian 16 at Fri Dec 11 21:23:15 2020.

 ----------------------------------------------------------------------
 # B3LYP/6-311++G(d,p) empiricaldispersion=gd3bj scf=xqc pop=npa geom=c
 heck
 ----------------------------------------------------------------------

 -------------------------------------
 CID_106913362_JID_8513_Energie_kation
 -------------------------------------
 Structure from the checkpoint file:  "JID_8513.chk"
 Charge =  1 Multiplicity = 2

 SCF Done:  E(UB3LYP) =  -733.617759723     A.U. after   22 cycles
 Normal termination of Gaussian 16 at Fri Dec 11 21:37:55 2020.
 Gaussian 16:  ES64L-G16RevA.03 25-Dec-2016

 ----------------------------------------------------------------------
 # B3LYP/6-311++G(d,p) empiricaldispersion=gd3bj scf=xqc pop=npa geom=c
 heck
 ----------------------------------------------------------------------

 ------------------------------------
 CID_106913362_JID_8513_Energie_anion
 ------------------------------------
 Structure from the checkpoint file:  "JID_8513.chk"
 Charge = -1 Multiplicity = 2

                         Standard orientation:
 ---------------------------------------------------------------------
 Center     Atomic      Atomic             Coordinates (Angstroms)
 Number     Number       Type             X           Y           Z
 ---------------------------------------------------------------------
      1          6           0        6.034181    1.264651   -0.027773
      2          6           0        4.592859    0.772026    0.144961
      3          6           0        3.615594    1.671251   -0.630625
      4          7           0        4.535728   -0.651580   -0.225828
      5          6           0        3.541974   -1.475109    0.472539
      6          6           0        2.085172   -1.078931    0.324734
      7          6           0        1.395734   -1.313159   -0.871896
      8          6           0        0.085636   -0.887170   -1.055225
      9          6           0       -0.588487   -0.202516   -0.026097
     10          6           0        0.090070    0.026572    1.183547
     11          6           0        1.402598   -0.409171    1.345037
     12          7           0       -1.884197    0.250227   -0.209853
     13          6           0       -2.872760   -0.363165   -1.106087
     14          6           0       -3.989114    0.108595   -0.149779
     15          6           0       -2.865024    0.446535    0.864403
     16          6           0       -4.979861    1.237785   -0.521830
     17          6           0       -6.045101    0.540288    0.365559
     18          6           0       -5.188756   -0.752946    0.298789
     19          1           0        6.335368    1.201767   -1.081400
     20          1           0        6.722429    0.644879    0.554287
     21          1           0        6.139138    2.309456    0.288502
     22          1           0        4.338939    0.822763    1.212638
     23          1           0        3.834246    1.623671   -1.706270
     24          1           0        2.577159    1.369178   -0.481407
     25          1           0        3.719166    2.718529   -0.321549
     26          1           0        4.399054   -0.731197   -1.232493
     27          1           0        3.683085   -2.503250    0.115339
     28          1           0        3.808969   -1.474630    1.536721
     29          1           0        1.897995   -1.838426   -1.682633
     30          1           0       -0.423769   -1.078908   -1.995000
     31          1           0       -0.412610    0.550884    1.990862
     32          1           0        1.911045   -0.218479    2.287872
     33          1           0       -2.891058    0.049089   -2.123020
     34          1           0       -2.783052   -1.459844   -1.166202
     35          1           0       -2.769589   -0.292378    1.675947
     36          1           0       -2.874664    1.454084    1.299304
     37          1           0       -4.687338    2.262497   -0.270654
     38          1           0       -5.246285    1.199001   -1.584046
     39          1           0       -7.068379    0.490443   -0.017048
     40          1           0       -6.070109    0.958786    1.376738
     41          1           0       -5.521838   -1.421433   -0.503331
     42          1           0       -5.066907   -1.340225    1.215081
 ---------------------------------------------------------------------

 SCF Done:  E(UB3LYP) =  -733.857881971     A.U. after   33 cycles
 SCF Done:  E(UB3LYP) =  -733.857881971     a.u. after    1 cycles

 The electronic state is 2-A.
 Alpha  occ. eigenvalues --  -14.23166 -14.21045 -10.12015 -10.11573 -10.11050
 Alpha  occ. eigenvalues --  -10.10820 -10.10794 -10.09518 -10.08398 -10.08346
 Alpha  occ. eigenvalues --  -10.07952 -10.07858 -10.07824 -10.07576 -10.07504
 Alpha  occ. eigenvalues --  -10.07484 -10.07424 -10.06962  -0.87413  -0.82265
 Alpha  occ. eigenvalues --   -0.77021  -0.74790  -0.69506  -0.67151  -0.65813
 Alpha  occ. eigenvalues --   -0.61261  -0.60077  -0.60047  -0.57093  -0.55903
 Alpha  occ. eigenvalues --   -0.52088  -0.51656  -0.49892  -0.47756  -0.44553
 Alpha  occ. eigenvalues --   -0.42735  -0.40208  -0.39723  -0.39042  -0.38403
 Alpha  occ. eigenvalues --   -0.37805  -0.37025  -0.36230  -0.34244  -0.33845
 Alpha  occ. eigenvalues --   -0.33191  -0.32591  -0.32219  -0.31127  -0.30271
 Alpha  occ. eigenvalues --   -0.29523  -0.29034  -0.28612  -0.27928  -0.27299
 Alpha  occ. eigenvalues --   -0.26592  -0.25909  -0.25254  -0.24823  -0.24505
 Alpha  occ. eigenvalues --   -0.21911  -0.21642  -0.21099  -0.19225  -0.16638
 Alpha  occ. eigenvalues --   -0.14197  -0.10729   0.04019
 Alpha virt. eigenvalues --    0.05476   0.06231   0.06742   0.07133   0.07222
 Alpha virt. eigenvalues --    0.07395   0.07779   0.08402   0.08901   0.08986
 Alpha virt. eigenvalues --    0.09289   0.09621   0.09967   0.10270   0.10438

  Beta  occ. eigenvalues --  -14.23162 -14.21038 -10.12016 -10.11568 -10.11044
  Beta  occ. eigenvalues --  -10.10794 -10.10775 -10.09521 -10.08388 -10.08340
  Beta  occ. eigenvalues --  -10.07946 -10.07859 -10.07816 -10.07565 -10.07478
  Beta  occ. eigenvalues --  -10.07458 -10.07400 -10.06951  -0.87397  -0.82253
  Beta  occ. eigenvalues --   -0.77009  -0.74772  -0.69493  -0.67137  -0.65795
  Beta  occ. eigenvalues --   -0.61247  -0.60051  -0.60001  -0.57030  -0.55879
  Beta  occ. eigenvalues --   -0.52063  -0.51607  -0.49863  -0.47726  -0.44496
  Beta  occ. eigenvalues --   -0.42677  -0.40185  -0.39706  -0.39016  -0.38377
  Beta  occ. eigenvalues --   -0.37782  -0.37001  -0.36202  -0.34226  -0.33822
  Beta  occ. eigenvalues --   -0.33172  -0.32572  -0.32193  -0.31104  -0.30258
  Beta  occ. eigenvalues --   -0.29506  -0.29017  -0.28585  -0.27911  -0.27283
  Beta  occ. eigenvalues --   -0.26567  -0.25889  -0.25232  -0.24799  -0.24488
  Beta  occ. eigenvalues --   -0.21878  -0.21609  -0.21062  -0.19208  -0.16628
  Beta  occ. eigenvalues --   -0.14189  -0.10716
  Beta virt. eigenvalues --    0.05593   0.06337   0.06707   0.06993   0.07352
  Beta virt. eigenvalues --    0.07462   0.07857   0.08267   0.08636   0.08967
  Beta virt. eigenvalues --    0.09225   0.09361   0.09853   0.10139   0.10546

 Mulliken charges and spin densities:
               1          2
     1  C   -0.059064  -0.463382
     2  C   -0.620801   0.497885
     3  C   -0.044508  -0.485825
     4  N    0.116615  -0.034645
     5  C    0.044002  -0.770622
     6  C    1.184828  -0.473299
     7  C   -1.267719   0.892786
     8  C   -0.084834   0.086021
     9  C    0.704989  -1.034199
    10  C   -0.174012  -0.022974
    11  C   -0.400335   0.048541
    12  N    0.198095   0.057502
    13  C    0.571726  -1.354161
    14  C   -1.707174   3.116024
    15  C    1.205581  -2.195770
    16  C    0.694030  -1.231307
    17  C    0.169606  -0.438341
    18  C   -0.045694  -0.447210
    19  H    0.025757   0.104562
    20  H    0.012915   0.134094
    21  H    0.040194   0.076931
    22  H    0.043200   0.081658
    23  H   -0.012170   0.130053
    24  H    0.403210  -0.158580
    25  H    0.012830   0.106170
    26  H    0.196899   0.001685
    27  H    0.093360   0.076846
    28  H    0.090349   0.067407
    29  H   -0.317819   0.489245
    30  H   -0.163248   0.336393
    31  H   -0.315428   0.508000
    32  H   -0.183904   0.331254
    33  H   -0.239779   0.433845
    34  H    0.070179   0.088634
    35  H    0.084171   0.067384
    36  H   -0.176518   0.366569
    37  H   -0.101011   0.262699
    38  H   -0.222872   0.360437
    39  H   -0.244168   0.397393
    40  H   -0.129784   0.240539
    41  H   -0.246173   0.389584
    42  H   -0.205521   0.360175
 Sum of Mulliken charges =  -1.00000   1.00000

 Dipole moment (field-independent basis, Debye):
    X=              6.4459    Y=             -0.4806    Z=              0.4361  Tot=              6.4785
 Quadrupole moment (field-independent basis, Debye-Ang):
   XX=           -246.3072   YY=           -149.4415   ZZ=           -151.9572
   XY=              1.3340   XZ=             -3.0385   YZ=             -2.1380

 Summary of Natural Population Analysis:

                                       Natural Population
                Natural  -----------------------------------------------
    Atom  No    Charge         Core      Valence    Rydberg      Total
 -----------------------------------------------------------------------
      C    1   -0.28308      0.99965     2.27814    0.00529     3.28308
      C    2   -0.01549      0.99962     2.00559    0.01027     3.01549
      C    3   -0.29352      0.99964     2.28905    0.00483     3.29352
      N    4   -0.34087      0.99974     2.82899    0.01214     3.84087
      C    5   -0.08993      0.99959     2.07852    0.01183     3.08993
      C    6   -0.05459      0.99950     2.04560    0.00950     3.05459
      C    7   -0.09214      0.99952     2.08249    0.01013     3.09214
      C    8   -0.12094      0.99953     2.11269    0.00873     3.12094
      C    9    0.09536      0.99949     1.89438    0.01077     2.90464
      C   10   -0.12304      0.99953     2.11459    0.00892     3.12304
      C   11   -0.09320      0.99952     2.08393    0.00974     3.09320
      N   12   -0.25221      0.99966     2.74149    0.01107     3.75221
      C   13   -0.07205      0.99959     2.06207    0.01039     3.07205
      C   14   -0.04794      0.99956     2.03357    0.01481     3.04794
      C   15   -0.07021      0.99959     2.05998    0.01064     3.07021
      C   16   -0.18155      0.99960     2.17383    0.00812     3.18155
      C   17   -0.18779      0.99965     2.18062    0.00752     3.18779
      C   18   -0.18347      0.99959     2.17570    0.00818     3.18347
      H   19    0.09462      0.00000     0.40429    0.00109     0.40538
      H   20    0.10097      0.00000     0.39772    0.00131     0.39903
      H   21    0.09484      0.00000     0.40419    0.00097     0.40516
      H   22    0.08892      0.00000     0.40946    0.00161     0.41108
      H   23    0.09290      0.00000     0.40601    0.00109     0.40710
      H   24    0.11013      0.00000     0.38842    0.00146     0.38987
      H   25    0.09705      0.00000     0.40202    0.00093     0.40295
      H   26    0.16944      0.00000     0.32793    0.00263     0.33056
      H   27    0.09626      0.00000     0.40276    0.00098     0.40374
      H   28    0.09230      0.00000     0.40643    0.00127     0.40770
      H   29    0.09747      0.00000     0.40130    0.00124     0.40253
      H   30    0.10404      0.00000     0.39451    0.00145     0.39596
      H   31    0.10460      0.00000     0.39393    0.00146     0.39540
      H   32    0.09832      0.00000     0.40044    0.00123     0.40168
      H   33    0.09606      0.00000     0.40221    0.00172     0.40394
      H   34    0.09158      0.00000     0.40695    0.00147     0.40842
      H   35    0.09112      0.00000     0.40734    0.00153     0.40888
      H   36    0.09583      0.00000     0.40245    0.00173     0.40417
      H   37    0.09876      0.00000     0.40010    0.00113     0.40124
      H   38    0.09970      0.00000     0.39867    0.00163     0.40030
      H   39    0.09657      0.00000     0.40187    0.00155     0.40343
      H   40    0.09580      0.00000     0.40234    0.00186     0.40420
      H   41    0.10059      0.00000     0.39778    0.00164     0.39941
      H   42    0.09880      0.00000     0.39993    0.00126     0.40120
 =======================================================================
   * Total *   -0.00000     17.99256    48.80032    0.20712    67.00000

 Normal termination of Gaussian 16 at Fri Dec 11 22:00:20 2020.
