 Gaussian 16, Revision A.03,

 -----------------------------------------------------------
 # opt freq B3LYP/6-31G(d) empiricaldispersion=gd3bj scf=xqc
 -----------------------------------------------------------

 ------------------------------
 CID_58169772_JID_8395_neutraal
 ------------------------------
 Symbolic Z-matrix:
 Charge =  0 Multiplicity = 1

 SCF Done:  E(RB3LYP) =  -1149.54535694     A.U. after   14 cycles
 SCF Done:  E(RB3LYP) =  -1149.55151234     A.U. after   12 cycles
 SCF Done:  E(RB3LYP) =  -1149.55227385     A.U. after   11 cycles
 SCF Done:  E(RB3LYP) =  -1149.55274499     A.U. after   12 cycles
 SCF Done:  E(RB3LYP) =  -1149.55307149     A.U. after   12 cycles
 SCF Done:  E(RB3LYP) =  -1149.55324299     A.U. after   11 cycles
 SCF Done:  E(RB3LYP) =  -1149.55331953     A.U. after   11 cycles
 SCF Done:  E(RB3LYP) =  -1149.55336759     A.U. after   11 cycles
 SCF Done:  E(RB3LYP) =  -1149.55337832     A.U. after   10 cycles
 SCF Done:  E(RB3LYP) =  -1149.55337931     A.U. after    9 cycles
 SCF Done:  E(RB3LYP) =  -1149.55337949     A.U. after    8 cycles
 SCF Done:  E(RB3LYP) =  -1149.55337954     A.U. after    7 cycles
 SCF Done:  E(RB3LYP) =  -1149.55337954     A.U. after    6 cycles
 Optimization completed.
    -- Stationary point found.
 Normal termination of Gaussian 16 at Fri Dec 11 20:26:22 2020.

 --------------------------------------------------------------------
 #N Geom=AllCheck Guess=TCheck SCRF=Check GenChk RB3LYP/6-31G(d) Freq
 --------------------------------------------------------------------

 Structure from the checkpoint file:  "JID_8395.chk"
 ------------------------------
 CID_58169772_JID_8395_neutraal
 ------------------------------
 Charge =  0 Multiplicity = 1

 SCF Done:  E(RB3LYP) =  -1149.55337954     A.U. after    1 cycles

  Exact polarizability: 251.447   3.239 149.771   2.435 -14.318 129.451
 Approx polarizability: 310.225   7.023 239.944   3.989 -39.764 220.673

                      1                      2                      3
                      A                      A                      A
 Frequencies --     28.0687                31.2069                46.9522
 Red. masses --      5.2234                 3.2459                 3.7381
 Frc consts  --      0.0024                 0.0019                 0.0049
 IR Inten    --      0.6496                 0.3669                 0.8261

                      4                      5                      6
                      A                      A                      A
 Frequencies --     60.8084                74.9619               106.6018
 Red. masses --      3.5215                 3.6652                 4.4117
 Frc consts  --      0.0077                 0.0121                 0.0295
 IR Inten    --      0.8592                 2.2474                 1.1750

                      7                      8                      9
                      A                      A                      A
 Frequencies --    144.5487               192.9876               207.3224
 Red. masses --      5.4452                 4.2796                 3.4588
 Frc consts  --      0.0670                 0.0939                 0.0876
 IR Inten    --      6.2924                 1.8364                 1.8707

                     10                     11                     12
                      A                      A                      A
 Frequencies --    225.8434               234.5591               254.8224
 Red. masses --      2.8751                 1.2661                 1.2096
 Frc consts  --      0.0864                 0.0410                 0.0463
 IR Inten    --      0.6419                 0.5596                 0.2634

                     13                     14                     15
                      A                      A                      A
 Frequencies --    272.2181               291.1086               321.0169
 Red. masses --      2.6849                 2.9087                 2.3764
 Frc consts  --      0.1172                 0.1452                 0.1443
 IR Inten    --      3.3080                 1.0020                 0.9877

                     16                     17                     18
                      A                      A                      A
 Frequencies --    339.5180               365.6091               378.5684
 Red. masses --      2.9431                 2.5370                 2.2335
 Frc consts  --      0.1999                 0.1998                 0.1886
 IR Inten    --      0.9637                 0.3990                 3.7603

                     19                     20                     21
                      A                      A                      A
 Frequencies --    410.1796               418.6101               423.3576
 Red. masses --      3.0380                 3.0897                 2.8420
 Frc consts  --      0.3012                 0.3190                 0.3001
 IR Inten    --      9.7559                15.7290                 0.7601

                     22                     23                     24
                      A                      A                      A
 Frequencies --    434.1484               445.6345               457.3329
 Red. masses --      2.7342                 3.7190                 3.5248
 Frc consts  --      0.3036                 0.4351                 0.4344
 IR Inten    --      9.1867                 4.8086                 3.4323

                     25                     26                     27
                      A                      A                      A
 Frequencies --    462.8022               523.2068               567.2149
 Red. masses --      3.7027                 6.0471                 2.7595
 Frc consts  --      0.4673                 0.9753                 0.5231
 IR Inten    --      5.4153                19.7812                10.4623

                     28                     29                     30
                      A                      A                      A
 Frequencies --    627.2809               651.6841               658.7643
 Red. masses --      2.8961                 4.4041                 6.2942
 Frc consts  --      0.6714                 1.1020                 1.6094
 IR Inten    --      0.7299                16.6553                 1.0671

                     31                     32                     33
                      A                      A                      A
 Frequencies --    714.4773               718.9032               749.6600
 Red. masses --      2.4489                 2.7913                 3.7816
 Frc consts  --      0.7366                 0.8500                 1.2521
 IR Inten    --     27.2891                 9.4462                 2.0629

                     34                     35                     36
                      A                      A                      A
 Frequencies --    811.3963               837.5028               845.3760
 Red. masses --      2.3872                 1.6418                 2.1429
 Frc consts  --      0.9260                 0.6785                 0.9023
 IR Inten    --     13.3052                 0.6209                 1.3577

                     37                     38                     39
                      A                      A                      A
 Frequencies --    861.2616               874.9458               903.3330
 Red. masses --      1.9497                 2.3012                 1.4717
 Frc consts  --      0.8521                 1.0379                 0.7076
 IR Inten    --     26.8990                13.3704                 2.3002

                     40                     41                     42
                      A                      A                      A
 Frequencies --    918.2561               943.6345               952.0473
 Red. masses --      3.0598                 1.1867                 1.3454
 Frc consts  --      1.5201                 0.6226                 0.7185
 IR Inten    --     19.5135                 2.4735                 0.0988

                     43                     44                     45
                      A                      A                      A
 Frequencies --    959.7541               969.0479               979.8337
 Red. masses --      1.4710                 1.6843                 1.4973
 Frc consts  --      0.7983                 0.9319                 0.8470
 IR Inten    --      1.2653                 0.1765                 0.0127

                     46                     47                     48
                      A                      A                      A
 Frequencies --    983.8223               988.5398              1021.8249
 Red. masses --      2.3367                 1.6763                 1.8127
 Frc consts  --      1.3325                 0.9652                 1.1152
 IR Inten    --     15.3384                 0.7776                 8.4108

                     49                     50                     51
                      A                      A                      A
 Frequencies --   1039.0311              1049.7117              1071.5773
 Red. masses --      2.9070                 2.1179                 2.1130
 Frc consts  --      1.8490                 1.3750                 1.4296
 IR Inten    --      0.2131                28.9804                58.1133

                     52                     53                     54
                      A                      A                      A
 Frequencies --   1108.8702              1117.0758              1149.1332
 Red. masses --      1.4986                 6.5926                 2.1260
 Frc consts  --      1.0857                 4.8470                 1.6541
 IR Inten    --      4.4472               158.9717                 0.2841

                     55                     56                     57
                      A                      A                      A
 Frequencies --   1158.4868              1165.2610              1197.7614
 Red. masses --      1.7538                 1.5096                 1.4438
 Frc consts  --      1.3868                 1.2077                 1.2204
 IR Inten    --      7.0674                26.4212                 6.0306

                     58                     59                     60
                      A                      A                      A
 Frequencies --   1205.6112              1212.6045              1223.4193
 Red. masses --      1.7319                 1.3269                 1.1556
 Frc consts  --      1.4831                 1.1496                 1.0191
 IR Inten    --     17.6911               108.3906                 5.7295

                     61                     62                     63
                      A                      A                      A
 Frequencies --   1245.0596              1254.6147              1260.8245
 Red. masses --      2.5642                 1.7327                 1.6181
 Frc consts  --      2.3420                 1.6069                 1.5156
 IR Inten    --      1.5643                38.5153                12.0864

                     64                     65                     66
                      A                      A                      A
 Frequencies --   1267.2494              1306.4091              1331.3894
 Red. masses --      1.6262                 4.5967                 1.3465
 Frc consts  --      1.5387                 4.6222                 1.4062
 IR Inten    --     18.5825                91.5172                 4.9346

                     67                     68                     69
                      A                      A                      A
 Frequencies --   1335.4749              1346.1318              1351.7597
 Red. masses --      1.2809                 2.2885                 2.0806
 Frc consts  --      1.3460                 2.4433                 2.2400
 IR Inten    --     13.4870                59.6520                54.4634

                     70                     71                     72
                      A                      A                      A
 Frequencies --   1362.5978              1387.6304              1390.6892
 Red. masses --      1.7834                 1.4087                 1.4271
 Frc consts  --      1.9509                 1.5981                 1.6261
 IR Inten    --      1.0240                 1.2475                 2.2987

                     73                     74                     75
                      A                      A                      A
 Frequencies --   1393.1470              1399.5606              1430.0931
 Red. masses --      1.3957                 1.4767                 1.2812
 Frc consts  --      1.5961                 1.7042                 1.5438
 IR Inten    --     12.2429                 8.8857                 3.7945

                     76                     77                     78
                      A                      A                      A
 Frequencies --   1436.5720              1448.6919              1463.8759
 Red. masses --      1.4544                 1.2370                 1.1528
 Frc consts  --      1.7684                 1.5295                 1.4555
 IR Inten    --     62.6370                 4.6376                 4.8902

                     79                     80                     81
                      A                      A                      A
 Frequencies --   1470.4688              1476.0594              1513.2386
 Red. masses --      2.4932                 1.0970                 1.0836
 Frc consts  --      3.1762                 1.4082                 1.4619
 IR Inten    --      3.4331                11.9402                 0.7232

                     82                     83                     84
                      A                      A                      A
 Frequencies --   1518.1993              1519.8695              1526.3148
 Red. masses --      1.0769                 1.0456                 1.0671
 Frc consts  --      1.4625                 1.4230                 1.4647
 IR Inten    --      2.8940                 1.7464                 1.9675

                     85                     86                     87
                      A                      A                      A
 Frequencies --   1532.0106              1534.4547              1541.2906
 Red. masses --      1.1017                 1.0517                 1.0502
 Frc consts  --      1.5235                 1.4590                 1.4699
 IR Inten    --     35.0516                 3.7689                 9.2832

                     88                     89                     90
                      A                      A                      A
 Frequencies --   1567.3337              1628.6351              1676.7433
 Red. masses --      2.4955                 6.2868                 5.8148
 Frc consts  --      3.6118                 9.8249                 9.6321
 IR Inten    --     99.7054                 3.4871                31.6488

                     91                     92                     93
                      A                      A                      A
 Frequencies --   2995.5633              3002.1590              3017.7341
 Red. masses --      1.0710                 1.0729                 1.0820
 Frc consts  --      5.6624                 5.6974                 5.8054
 IR Inten    --     29.5093                31.7168                 6.4563

                     94                     95                     96
                      A                      A                      A
 Frequencies --   3031.1437              3036.9045              3042.9793
 Red. masses --      1.0578                 1.0371                 1.0403
 Frc consts  --      5.7262                 5.6353                 5.6758
 IR Inten    --     27.6007                34.9646                44.2204

                     97                     98                     99
                      A                      A                      A
 Frequencies --   3070.9266              3094.3391              3095.9599
 Red. masses --      1.1039                 1.0582                 1.0589
 Frc consts  --      6.1334                 5.9698                 5.9802
 IR Inten    --     19.3516                 0.6158                 6.1223

                    100                    101                    102
                      A                      A                      A
 Frequencies --   3100.0721              3105.8698              3111.9604
 Red. masses --      1.1003                 1.1004                 1.1020
 Frc consts  --      6.2305                 6.2539                 6.2879
 IR Inten    --      9.7027                56.4750                46.1594

                    103                    104                    105
                      A                      A                      A
 Frequencies --   3117.5508              3127.0807              3138.4482
 Red. masses --      1.0910                 1.1009                 1.0906
 Frc consts  --      6.2473                 6.3429                 6.3292
 IR Inten    --     11.2381                38.4133                 8.7854

                    106                    107                    108
                      A                      A                      A
 Frequencies --   3157.8499              3160.0510              3176.7652
 Red. masses --      1.1082                 1.1088                 1.0888
 Frc consts  --      6.5109                 6.5235                 6.4737
 IR Inten    --      0.3185                 4.7936                20.7884

                    109                    110                    111
                      A                      A                      A
 Frequencies --   3179.6050              3198.8205              3215.2314
 Red. masses --      1.0871                 1.0939                 1.0916
 Frc consts  --      6.4755                 6.5949                 6.6486
 IR Inten    --     17.2815                15.5628                11.7276

 - Thermochemistry -
 -------------------
 Temperature   298.150 Kelvin.  Pressure   1.00000 Atm.
 Atom     1 has atomic number  6 and mass  12.00000

 Molecular mass:   267.12930 amu.
 Principal axes and moments of inertia in atomic units:
                           1         2         3
     Eigenvalues --  1320.40658********************
           X            0.99998  -0.00399  -0.00573
           Y            0.00387   0.99977  -0.02091
           Z            0.00582   0.02089   0.99976
 This molecule is an asymmetric top.
 Rotational symmetry number  1.
 Warning -- assumption of classical behavior for rotation
           may cause significant error
 Rotational temperatures (Kelvin)      0.06560     0.00619     0.00607
 Rotational constants (GHZ):           1.36681     0.12896     0.12653
 Zero-point vibrational energy     882141.3 (Joules/Mol)
                                  210.83682 (Kcal/Mol)
 Warning -- explicit consideration of  27 degrees of freedom as
           vibrations may cause significant error
 Vibrational temperatures:     40.38    44.90    67.55    87.49   107.85
          (Kelvin)            153.38   207.97   277.67   298.29   324.94
                              337.48   366.63   391.66   418.84   461.87
                              488.49   526.03   544.68   590.16   602.29
                              609.12   624.64   641.17   658.00   665.87
                              752.78   816.10   902.52   937.63   947.81
                             1027.97  1034.34  1078.59  1167.42  1204.98
                             1216.31  1239.16  1258.85  1299.69  1321.17
                             1357.68  1369.78  1380.87  1394.24  1409.76
                             1415.50  1422.29  1470.18  1494.93  1510.30
                             1541.76  1595.42  1607.22  1653.35  1666.80
                             1676.55  1723.31  1734.61  1744.67  1760.23
                             1791.36  1805.11  1814.05  1823.29  1879.63
                             1915.57  1921.45  1936.78  1944.88  1960.47
                             1996.49  2000.89  2004.43  2013.66  2057.58
                             2066.91  2084.34  2106.19  2115.68  2123.72
                             2177.21  2184.35  2186.75  2196.03  2204.22
                             2207.74  2217.57  2255.04  2343.24  2412.46
                             4309.95  4319.44  4341.85  4361.14  4369.43
                             4378.17  4418.38  4452.06  4454.40  4460.31
                             4468.65  4477.42  4485.46  4499.17  4515.53
                             4543.44  4546.61  4570.66  4574.74  4602.39
                             4626.00

 Zero-point correction=                           0.335990 (Hartree/Particle)
 Thermal correction to Energy=                    0.353629
 Thermal correction to Enthalpy=                  0.354573
 Thermal correction to Gibbs Free Energy=         0.289342
 Sum of electronic and zero-point Energies=          -1149.217390
 Sum of electronic and thermal Energies=             -1149.199751
 Sum of electronic and thermal Enthalpies=           -1149.198807
 Sum of electronic and thermal Free Energies=        -1149.264038

                     E (Thermal)             CV                S
                      KCal/Mol        Cal/Mol-Kelvin    Cal/Mol-Kelvin
 Total                  221.905             68.779            137.290
 Electronic               0.000              0.000              0.000
 Translational            0.889              2.981             42.647
 Rotational               0.889              2.981             33.932
 Vibrational            220.128             62.817             60.711
 Vibration     1          0.593              1.984              5.961
 Vibration     2          0.594              1.983              5.751
 Vibration     3          0.595              1.979              4.942
 Vibration     4          0.597              1.973              4.431
 Vibration     5          0.599              1.966              4.019
 Vibration     6          0.605              1.944              3.330
 Vibration     7          0.616              1.909              2.743
 Vibration     8          0.635              1.850              2.199
 Vibration     9          0.641              1.829              2.067
 Vibration    10          0.650              1.802              1.912
 Vibration    11          0.654              1.788              1.844
 Vibration    12          0.665              1.755              1.697
 Vibration    13          0.675              1.725              1.582
 Vibration    14          0.687              1.690              1.468
 Vibration    15          0.706              1.633              1.305
 Vibration    16          0.719              1.597              1.214
 Vibration    17          0.739              1.543              1.098
 Vibration    18          0.749              1.516              1.045
 Vibration    19          0.774              1.448              0.926
 Vibration    20          0.781              1.430              0.897
 Vibration    21          0.786              1.419              0.881
 Vibration    22          0.795              1.396              0.845
 Vibration    23          0.805              1.371              0.809
 Vibration    24          0.815              1.345              0.774
 Vibration    25          0.820              1.333              0.758
 Vibration    26          0.878              1.199              0.603
 Vibration    27          0.923              1.102              0.510

 Optimization completed.
    -- Stationary point found.
 Normal termination of Gaussian 16 at Fri Dec 11 20:42:40 2020.

 ----------------------------------------------------------------------
 # B3LYP/6-311++G(d,p) empiricaldispersion=gd3bj scf=xqc pop=npa geom=c
 heck
 ----------------------------------------------------------------------

 --------------------------------------
 CID_58169772_JID_8395_Energie_neutraal
 --------------------------------------
 Structure from the checkpoint file:  "JID_8395.chk"
 Charge =  0 Multiplicity = 1

 SCF Done:  E(RB3LYP) =  -1149.78461795     A.U. after   16 cycles
 Normal termination of Gaussian 16 at Fri Dec 11 20:50:09 2020.

 ----------------------------------------------------------------------
 # B3LYP/6-311++G(d,p) empiricaldispersion=gd3bj scf=xqc pop=npa geom=c
 heck
 ----------------------------------------------------------------------

 ------------------------------------
 CID_58169772_JID_8395_Energie_kation
 ------------------------------------
 Structure from the checkpoint file:  "JID_8395.chk"
 Charge =  1 Multiplicity = 2

 SCF Done:  E(UB3LYP) =  -1149.50035206     A.U. after   23 cycles
 Normal termination of Gaussian 16 at Fri Dec 11 21:04:44 2020.
 Gaussian 16:  ES64L-G16RevA.03 25-Dec-2016

 ----------------------------------------------------------------------
 # B3LYP/6-311++G(d,p) empiricaldispersion=gd3bj scf=xqc pop=npa geom=c
 heck
 ----------------------------------------------------------------------

 -----------------------------------
 CID_58169772_JID_8395_Energie_anion
 -----------------------------------
 Structure from the checkpoint file:  "JID_8395.chk"
 Charge = -1 Multiplicity = 2

                         Standard orientation:
 ---------------------------------------------------------------------
 Center     Atomic      Atomic             Coordinates (Angstroms)
 Number     Number       Type             X           Y           Z
 ---------------------------------------------------------------------
      1          6           0       -4.876567    1.545030    0.858948
      2          6           0       -5.189269    0.064686    0.617693
      3          6           0       -6.700904   -0.171708    0.529708
      4          6           0       -4.487933   -0.468427   -0.653374
      5          6           0       -2.981274   -0.399597   -0.590137
      6          6           0       -2.251393   -1.333541    0.150556
      7          6           0       -0.862953   -1.256894    0.260513
      8          6           0       -0.153528   -0.241580   -0.395157
      9          6           0       -0.878897    0.691406   -1.152438
     10          6           0       -2.264362    0.616011   -1.236900
     11          7           0        1.264288   -0.128826   -0.344821
     12          6           0        1.760336    1.100400    0.287119
     13          6           0        3.162671    1.461135   -0.203672
     14         16           0        4.330345    0.144860    0.226193
     15          8           0        5.587665    0.340912   -0.509512
     16          8           0        4.325032    0.006928    1.693907
     17          6           0        3.443229   -1.276548   -0.460006
     18          6           0        2.003318   -1.321277    0.058465
     19          1           0       -5.241622    2.158673    0.024620
     20          1           0       -3.800136    1.717418    0.955590
     21          1           0       -5.362625    1.904058    1.773181
     22          1           0       -4.799828   -0.508981    1.471627
     23          1           0       -7.131784    0.378015   -0.317057
     24          1           0       -6.932964   -1.234194    0.390670
     25          1           0       -7.208391    0.169006    1.439395
     26          1           0       -4.801730   -1.508423   -0.812857
     27          1           0       -4.849198    0.102848   -1.519177
     28          1           0       -2.777543   -2.134467    0.665124
     29          1           0       -0.340641   -1.986903    0.869247
     30          1           0       -0.342621    1.462568   -1.698138
     31          1           0       -2.801680    1.349292   -1.833221
     32          1           0        1.775752    1.007152    1.385358
     33          1           0        1.082818    1.918289    0.036649
     34          1           0        3.542625    2.365427    0.280508
     35          1           0        3.194337    1.580224   -1.289785
     36          1           0        3.475049   -1.181360   -1.548320
     37          1           0        4.011690   -2.158045   -0.149624
     38          1           0        2.021198   -1.460624    1.152040
     39          1           0        1.515342   -2.193244   -0.384239
 ---------------------------------------------------------------------

 SCF Done:  E(UB3LYP) =  -1149.77679729     A.U. after   33 cycles
 SCF Done:  E(UB3LYP) =  -1149.77679729     a.u. after    1 cycles

 The electronic state is 2-A.
 Alpha  occ. eigenvalues --  -88.95903 -19.03238 -19.02977 -14.24554 -10.13437
 Alpha  occ. eigenvalues --  -10.13359 -10.12909 -10.12847 -10.12278 -10.09133
 Alpha  occ. eigenvalues --  -10.08711 -10.08511 -10.08395 -10.08389 -10.08243
 Alpha  occ. eigenvalues --  -10.08210 -10.07625 -10.07084  -8.02444  -5.98706
 Alpha  occ. eigenvalues --   -5.98590  -5.98541  -1.02286  -0.92006  -0.87136
 Alpha  occ. eigenvalues --   -0.77119  -0.73360  -0.71662  -0.71217  -0.66287
 Alpha  occ. eigenvalues --   -0.65981  -0.60137  -0.60028  -0.58879  -0.56264
 Alpha  occ. eigenvalues --   -0.52287  -0.51090  -0.48407  -0.47479  -0.45242
 Alpha  occ. eigenvalues --   -0.41900  -0.41016  -0.40783  -0.39993  -0.38704
 Alpha  occ. eigenvalues --   -0.38386  -0.37048  -0.36161  -0.35619  -0.35443
 Alpha  occ. eigenvalues --   -0.34558  -0.33467  -0.32978  -0.32352  -0.31060
 Alpha  occ. eigenvalues --   -0.30356  -0.30124  -0.29905  -0.29049  -0.28179
 Alpha  occ. eigenvalues --   -0.27357  -0.25594  -0.25068  -0.24871  -0.24331
 Alpha  occ. eigenvalues --   -0.23958  -0.23839  -0.22161  -0.20315  -0.18953
 Alpha  occ. eigenvalues --   -0.16773  -0.12602   0.03635
 Alpha virt. eigenvalues --    0.05362   0.05844   0.06788   0.07063   0.07284
 Alpha virt. eigenvalues --    0.07392   0.07913   0.08258   0.09053   0.09309
 Alpha virt. eigenvalues --    0.09458   0.09833   0.10151   0.10403   0.10891

  Beta  occ. eigenvalues --  -88.95900 -19.03237 -19.02969 -14.24552 -10.13414
  Beta  occ. eigenvalues --  -10.13339 -10.12884 -10.12820 -10.12264 -10.09127
  Beta  occ. eigenvalues --  -10.08697 -10.08504 -10.08386 -10.08372 -10.08232
  Beta  occ. eigenvalues --  -10.08184 -10.07604 -10.07066  -8.02441  -5.98703
  Beta  occ. eigenvalues --   -5.98586  -5.98540  -1.02274  -0.91994  -0.87111
  Beta  occ. eigenvalues --   -0.77089  -0.73327  -0.71633  -0.71180  -0.66246
  Beta  occ. eigenvalues --   -0.65945  -0.60101  -0.59987  -0.58814  -0.56229
  Beta  occ. eigenvalues --   -0.52242  -0.51043  -0.48361  -0.47435  -0.45209
  Beta  occ. eigenvalues --   -0.41879  -0.40993  -0.40761  -0.39954  -0.38675
  Beta  occ. eigenvalues --   -0.38361  -0.37004  -0.36135  -0.35583  -0.35412
  Beta  occ. eigenvalues --   -0.34518  -0.33435  -0.32945  -0.32317  -0.31026
  Beta  occ. eigenvalues --   -0.30330  -0.30093  -0.29876  -0.29023  -0.28130
  Beta  occ. eigenvalues --   -0.27320  -0.25566  -0.25043  -0.24842  -0.24293
  Beta  occ. eigenvalues --   -0.23933  -0.23833  -0.22149  -0.20292  -0.18897
  Beta  occ. eigenvalues --   -0.16727  -0.12554
  Beta virt. eigenvalues --    0.05546   0.06147   0.06730   0.07007   0.07299
  Beta virt. eigenvalues --    0.07614   0.07743   0.08241   0.08415   0.09350
  Beta virt. eigenvalues --    0.09575   0.09832   0.09948   0.10287   0.10569

 Mulliken charges and spin densities:
               1          2
     1  C    0.044552  -0.739717
     2  C   -0.753631   1.239817
     3  C    0.261938  -0.963828
     4  C    1.213966  -2.445990
     5  C    1.473026   0.147631
     6  C   -1.298480   1.173028
     7  C    0.137496  -0.111965
     8  C    0.179066  -1.105670
     9  C   -0.305658   0.228423
    10  C   -0.335178  -0.270168
    11  N    0.352586   0.122727
    12  C   -0.611127   0.256004
    13  C    0.157870  -0.898935
    14  S    0.486759   0.031208
    15  O   -0.144621   0.022867
    16  O   -0.262595   0.009460
    17  C   -0.360116  -0.494817
    18  C    0.319131  -0.493991
    19  H   -0.071722   0.217626
    20  H    0.194494  -0.055298
    21  H    0.014615   0.115773
    22  H    0.070019   0.082111
    23  H    0.005025   0.123868
    24  H   -0.182555   0.315166
    25  H   -0.002872   0.134675
    26  H    0.060776   0.102517
    27  H    0.042143   0.125847
    28  H   -0.367699   0.543157
    29  H   -0.268615   0.450481
    30  H   -0.628614   0.811669
    31  H   -0.262306   0.420587
    32  H    0.072504   0.120055
    33  H   -0.239156   0.410928
    34  H    0.056152   0.190329
    35  H   -0.044230   0.294334
    36  H    0.109571   0.144876
    37  H   -0.019729   0.282517
    38  H    0.184220   0.005221
    39  H   -0.277005   0.457478
 Sum of Mulliken charges =  -1.00000   1.00000

 Dipole moment (field-independent basis, Debye):
    X=             -0.1153    Y=              0.2381    Z=              0.8721  Tot=              0.9113
 Quadrupole moment (field-independent basis, Debye-Ang):
   XX=           -245.2076   YY=           -160.2058   ZZ=           -154.8696
   XY=             -3.1165   XZ=             -2.7850   YZ=              3.6055

 Summary of Natural Population Analysis:

                                       Natural Population
                Natural  -----------------------------------------------
    Atom  No    Charge         Core      Valence    Rydberg      Total
 -----------------------------------------------------------------------
      C    1   -0.28634      0.99965     2.28164    0.00506     3.28634
      C    2   -0.11035      0.99961     2.10228    0.00846     3.11035
      C    3   -0.28209      0.99965     2.27755    0.00490     3.28209
      C    4   -0.20572      0.99960     2.19193    0.01418     3.20572
      C    5    0.01967      0.99951     1.97397    0.00686     2.98033
      C    6   -0.10555      0.99954     2.09178    0.01422     3.10555
      C    7   -0.11896      0.99951     2.11076    0.00869     3.11896
      C    8    0.08670      0.99946     1.90161    0.01223     2.91330
      C    9   -0.10476      0.99951     2.09542    0.00983     3.10476
      C   10   -0.10856      0.99954     2.09436    0.01465     3.10856
      N   11   -0.27543      0.99967     2.76110    0.01467     3.77543
      C   12   -0.09078      0.99959     2.07999    0.01120     3.09078
      C   13   -0.29393      0.99958     2.28209    0.01226     3.29393
      S   14    1.02019      4.99925     1.88611    0.09446     6.97981
      O   15   -0.46754      0.99991     3.46212    0.00552     4.46754
      O   16   -0.47174      0.99991     3.46635    0.00547     4.47174
      C   17   -0.29239      0.99958     2.28076    0.01205     3.29239
      C   18   -0.09662      0.99960     2.08449    0.01252     3.09662
      H   19    0.09509      0.00000     0.40376    0.00115     0.40491
      H   20    0.10532      0.00000     0.39350    0.00118     0.39468
      H   21    0.09704      0.00000     0.40203    0.00093     0.40296
      H   22    0.09275      0.00000     0.40552    0.00173     0.40725
      H   23    0.09550      0.00000     0.40337    0.00113     0.40450
      H   24    0.09896      0.00000     0.39986    0.00118     0.40104
      H   25    0.09756      0.00000     0.40141    0.00103     0.40244
      H   26    0.10328      0.00000     0.39547    0.00125     0.39672
      H   27    0.09867      0.00000     0.40008    0.00125     0.40133
      H   28    0.10031      0.00000     0.39849    0.00120     0.39969
      H   29    0.10367      0.00000     0.39468    0.00165     0.39633
      H   30    0.10454      0.00000     0.39314    0.00232     0.39546
      H   31    0.10127      0.00000     0.39756    0.00116     0.39873
      H   32    0.09473      0.00000     0.40391    0.00136     0.40527
      H   33    0.11219      0.00000     0.38622    0.00159     0.38781
      H   34    0.11989      0.00000     0.37899    0.00112     0.38011
      H   35    0.11800      0.00000     0.38004    0.00196     0.38200
      H   36    0.11745      0.00000     0.38100    0.00154     0.38255
      H   37    0.12051      0.00000     0.37824    0.00125     0.37949
      H   38    0.09492      0.00000     0.40358    0.00149     0.40508
      H   39    0.11262      0.00000     0.38542    0.00196     0.38738
 =======================================================================
   * Total *    0.00006     21.99267    49.71059    0.29668    71.99994

 Normal termination of Gaussian 16 at Fri Dec 11 21:25:54 2020.
