 Gaussian 16, Revision A.03,

 -----------------------------------------------------------
 # opt freq B3LYP/6-31G(d) empiricaldispersion=gd3bj scf=xqc
 -----------------------------------------------------------

 -------------------------------
 CID_152241762_JID_3496_neutraal
 -------------------------------
 Symbolic Z-matrix:
 Charge =  0 Multiplicity = 1

 SCF Done:  E(RB3LYP) =  -606.204286518     A.U. after   16 cycles
 SCF Done:  E(RB3LYP) =  -606.213385131     A.U. after   16 cycles
 SCF Done:  E(RB3LYP) =  -606.214135402     A.U. after   14 cycles
 SCF Done:  E(RB3LYP) =  -606.214995186     A.U. after   15 cycles
 SCF Done:  E(RB3LYP) =  -606.216041755     A.U. after   13 cycles
 SCF Done:  E(RB3LYP) =  -606.217084719     A.U. after   13 cycles
 SCF Done:  E(RB3LYP) =  -606.217622361     A.U. after   14 cycles
 SCF Done:  E(RB3LYP) =  -606.217778763     A.U. after   13 cycles
 SCF Done:  E(RB3LYP) =  -606.217868375     A.U. after   12 cycles
 SCF Done:  E(RB3LYP) =  -606.217899165     A.U. after   11 cycles
 SCF Done:  E(RB3LYP) =  -606.217916914     A.U. after    8 cycles
 SCF Done:  E(RB3LYP) =  -606.217917187     A.U. after    8 cycles
 SCF Done:  E(RB3LYP) =  -606.217917298     A.U. after    8 cycles
 SCF Done:  E(RB3LYP) =  -606.217917338     A.U. after    7 cycles
 SCF Done:  E(RB3LYP) =  -606.217917365     A.U. after    7 cycles
 Optimization completed.
    -- Stationary point found.
 Normal termination of Gaussian 16 at Wed Dec  9 23:28:38 2020.

 --------------------------------------------------------------------
 #N Geom=AllCheck Guess=TCheck SCRF=Check GenChk RB3LYP/6-31G(d) Freq
 --------------------------------------------------------------------

 Structure from the checkpoint file:  "JID_3496.chk"
 -------------------------------
 CID_152241762_JID_3496_neutraal
 -------------------------------
 Charge =  0 Multiplicity = 1

 SCF Done:  E(RB3LYP) =  -606.217917364     A.U. after    1 cycles

  Exact polarizability: 180.517  -1.807 104.439   8.539  -0.786  80.407
 Approx polarizability: 308.932  -5.784 142.417  34.343  -0.085 134.207

                      1                      2                      3
                      A                      A                      A
 Frequencies --     54.0141                74.8193                89.4206
 Red. masses --      3.9548                 2.9935                 4.2630
 Frc consts  --      0.0068                 0.0099                 0.0201
 IR Inten    --      1.2187                 1.4936                 1.7656

                      4                      5                      6
                      A                      A                      A
 Frequencies --    115.0327               131.5904               152.4232
 Red. masses --      1.1756                 2.0765                 1.6281
 Frc consts  --      0.0092                 0.0212                 0.0223
 IR Inten    --      0.1011                 0.2366                 0.7640

                      7                      8                      9
                      A                      A                      A
 Frequencies --    165.2626               183.0576               216.0859
 Red. masses --      2.6408                 4.5734                 2.8079
 Frc consts  --      0.0425                 0.0903                 0.0772
 IR Inten    --      0.7565                 1.4755                 3.3522

                     10                     11                     12
                      A                      A                      A
 Frequencies --    298.2051               306.7363               344.7517
 Red. masses --      4.2584                 3.2631                 3.1013
 Frc consts  --      0.2231                 0.1809                 0.2172
 IR Inten    --      0.5433                 1.1303                 4.0637

                     13                     14                     15
                      A                      A                      A
 Frequencies --    366.1100               369.7770               436.6211
 Red. masses --      2.8010                 7.1435                 4.4737
 Frc consts  --      0.2212                 0.5755                 0.5025
 IR Inten    --      0.9514                 3.4297                 1.6377

                     16                     17                     18
                      A                      A                      A
 Frequencies --    469.0708               500.6418               532.8267
 Red. masses --      3.7968                 4.4117                12.3918
 Frc consts  --      0.4922                 0.6515                 2.0728
 IR Inten    --      4.0542                 5.7195                11.5094

                     19                     20                     21
                      A                      A                      A
 Frequencies --    570.2063               594.2600               646.8018
 Red. masses --      3.4021                 4.0389                 3.7686
 Frc consts  --      0.6517                 0.8404                 0.9289
 IR Inten    --      3.8827                 8.8502                 6.8931

                     22                     23                     24
                      A                      A                      A
 Frequencies --    693.4410               753.2087               852.7536
 Red. masses --      6.6818                 6.0008                 1.7632
 Frc consts  --      1.8931                 2.0058                 0.7554
 IR Inten    --      4.1802                 4.4050                 8.1079

                     25                     26                     27
                      A                      A                      A
 Frequencies --    890.3333               899.8843               945.6229
 Red. masses --      2.1528                 2.2348                 3.4083
 Frc consts  --      1.0054                 1.0663                 1.7957
 IR Inten    --      4.0850                10.7353                50.9039

                     28                     29                     30
                      A                      A                      A
 Frequencies --    969.2886              1040.1115              1057.3637
 Red. masses --      2.2442                 1.3931                 4.1632
 Frc consts  --      1.2423                 0.8880                 2.7424
 IR Inten    --     25.6319                 1.1903                89.8340

                     31                     32                     33
                      A                      A                      A
 Frequencies --   1074.1470              1100.6518              1105.9142
 Red. masses --      1.7291                 2.9867                 2.2638
 Frc consts  --      1.1754                 2.1318                 1.6313
 IR Inten    --      4.5104                19.2317                 7.0796

                     34                     35                     36
                      A                      A                      A
 Frequencies --   1117.0782              1183.8730              1189.3665
 Red. masses --      5.4021                 1.2543                 1.2802
 Frc consts  --      3.9718                 1.0358                 1.0670
 IR Inten    --    157.5687                 5.3753                 1.4363

                     37                     38                     39
                      A                      A                      A
 Frequencies --   1214.8933              1227.3445              1238.5806
 Red. masses --      1.9873                 1.4308                 1.9801
 Frc consts  --      1.7282                 1.2699                 1.7898
 IR Inten    --      3.2243                 8.2920                 0.5500

                     40                     41                     42
                      A                      A                      A
 Frequencies --   1294.7289              1323.7236              1374.0343
 Red. masses --      1.2022                 3.1076                 1.5799
 Frc consts  --      1.1874                 3.2083                 1.7574
 IR Inten    --      3.2036                 4.9995                 9.8306

                     43                     44                     45
                      A                      A                      A
 Frequencies --   1389.2501              1401.1005              1402.4813
 Red. masses --      1.8110                 3.0188                 2.0208
 Frc consts  --      2.0594                 3.4915                 2.3419
 IR Inten    --     40.5451                69.9499                33.3723

                     46                     47                     48
                      A                      A                      A
 Frequencies --   1437.4107              1481.2881              1500.6876
 Red. masses --      1.3505                 1.1378                 1.0969
 Frc consts  --      1.6440                 1.4709                 1.4555
 IR Inten    --     10.4024                 3.4997                 3.0807

                     49                     50                     51
                      A                      A                      A
 Frequencies --   1506.0800              1509.9145              1511.4455
 Red. masses --      1.0832                 1.0662                 1.0940
 Frc consts  --      1.4476                 1.4322                 1.4725
 IR Inten    --      0.1623                10.0349                 4.1999

                     52                     53                     54
                      A                      A                      A
 Frequencies --   1517.8236              1527.0246              1531.7381
 Red. masses --      1.0459                 1.0983                 1.0472
 Frc consts  --      1.4196                 1.5089                 1.4477
 IR Inten    --      7.7626                 1.9401                 9.7632

                     55                     56                     57
                      A                      A                      A
 Frequencies --   1677.7583              1695.2273              2276.8468
 Red. masses --      7.8892                 8.1331                13.9650
 Frc consts  --     13.0840                13.7709                42.6540
 IR Inten    --      3.3640                19.4009               674.6090

                     58                     59                     60
                      A                      A                      A
 Frequencies --   3000.6320              3032.5798              3039.8112
 Red. masses --      1.0696                 1.0442                 1.0745
 Frc consts  --      5.6741                 5.6580                 5.8497
 IR Inten    --     32.0601                39.7461                26.7473

                     61                     62                     63
                      A                      A                      A
 Frequencies --   3042.6531              3045.4080              3059.1726
 Red. masses --      1.0770                 1.0332                 1.0643
 Frc consts  --      5.8744                 5.6457                 5.8683
 IR Inten    --     32.4846                61.6404                48.7472

                     64                     65                     66
                      A                      A                      A
 Frequencies --   3074.5835              3098.6923              3115.1214
 Red. masses --      1.0991                 1.1043                 1.1065
 Frc consts  --      6.1213                 6.2473                 6.3263
 IR Inten    --     21.7621                41.4633                35.4472

                     67                     68                     69
                      A                      A                      A
 Frequencies --   3128.8569              3158.7760              3168.5414
 Red. masses --      1.0964                 1.1039                 1.0959
 Frc consts  --      6.3242                 6.4897                 6.4822
 IR Inten    --     15.3582                18.9225                 7.1650

 - Thermochemistry -
 -------------------
 Temperature   298.150 Kelvin.  Pressure   1.00000 Atm.
 Atom     1 has atomic number  6 and mass  12.00000

 Molecular mass:   180.10111 amu.
 Principal axes and moments of inertia in atomic units:
                           1         2         3
     Eigenvalues --  1500.109172742.948593781.14306
           X            0.99928  -0.03730  -0.00641
           Y            0.03716   0.99910  -0.02047
           Z            0.00717   0.02022   0.99977
 This molecule is an asymmetric top.
 Rotational symmetry number  1.
 Warning -- assumption of classical behavior for rotation
           may cause significant error
 Rotational temperatures (Kelvin)      0.05774     0.03158     0.02291
 Rotational constants (GHZ):           1.20307     0.65796     0.47730
 Zero-point vibrational energy     535298.8 (Joules/Mol)
                                  127.93947 (Kcal/Mol)
 Warning -- explicit consideration of  20 degrees of freedom as
           vibrations may cause significant error
 Vibrational temperatures:     77.71   107.65   128.66   165.51   189.33
          (Kelvin)            219.30   237.78   263.38   310.90   429.05
                              441.33   496.02   526.75   532.03   628.20
                              674.89   720.31   766.62   820.40   855.01
                              930.60   997.71  1083.70  1226.92  1280.99
                             1294.73  1360.54  1394.59  1496.49  1521.31
                             1545.46  1583.59  1591.16  1607.23  1703.33
                             1711.23  1747.96  1765.87  1782.04  1862.83
                             1904.54  1976.93  1998.82  2015.87  2017.86
                             2068.11  2131.24  2159.15  2166.91  2172.43
                             2174.63  2183.81  2197.05  2203.83  2413.92
                             2439.05  3275.87  4317.24  4363.21  4373.61
                             4377.70  4381.66  4401.47  4423.64  4458.33
                             4481.96  4501.73  4544.77  4558.82

 Zero-point correction=                           0.203885 (Hartree/Particle)
 Thermal correction to Energy=                    0.216967
 Thermal correction to Enthalpy=                  0.217911
 Thermal correction to Gibbs Free Energy=         0.164274
 Sum of electronic and zero-point Energies=           -606.014033
 Sum of electronic and thermal Energies=              -606.000951
 Sum of electronic and thermal Enthalpies=            -606.000007
 Sum of electronic and thermal Free Energies=         -606.053644

                     E (Thermal)             CV                S
                      KCal/Mol        Cal/Mol-Kelvin    Cal/Mol-Kelvin
 Total                  136.149             47.645            112.889
 Electronic               0.000              0.000              0.000
 Translational            0.889              2.981             41.472
 Rotational               0.889              2.981             31.121
 Vibrational            134.371             41.683             40.296
 Vibration     1          0.596              1.976              4.665
 Vibration     2          0.599              1.966              4.022
 Vibration     3          0.602              1.957              3.673
 Vibration     4          0.608              1.937              3.182
 Vibration     5          0.612              1.922              2.923
 Vibration     6          0.619              1.900              2.642
 Vibration     7          0.624              1.885              2.489
 Vibration     8          0.631              1.863              2.297
 Vibration     9          0.645              1.817              1.992
 Vibration    10          0.691              1.677              1.427
 Vibration    11          0.697              1.661              1.380
 Vibration    12          0.723              1.586              1.190
 Vibration    13          0.739              1.542              1.096
 Vibration    14          0.742              1.534              1.081
 Vibration    15          0.797              1.390              0.837
 Vibration    16          0.826              1.319              0.740
 Vibration    17          0.856              1.249              0.657
 Vibration    18          0.888              1.177              0.581
 Vibration    19          0.926              1.096              0.504
 Vibration    20          0.952              1.044              0.460

                           ! Non-Optimized Parameters !
 Normal termination of Gaussian 16 at Wed Dec  9 23:34:26 2020.

 ----------------------------------------------------------------------
 # B3LYP/6-311++G(d,p) empiricaldispersion=gd3bj scf=xqc pop=npa geom=c
 heck
 ----------------------------------------------------------------------

 ---------------------------------------
 CID_152241762_JID_3496_Energie_neutraal
 ---------------------------------------
 Structure from the checkpoint file:  "JID_3496.chk"
 Charge =  0 Multiplicity = 1

 SCF Done:  E(RB3LYP) =  -606.382861276     A.U. after   17 cycles
 Normal termination of Gaussian 16 at Wed Dec  9 23:36:45 2020.

 ----------------------------------------------------------------------
 # B3LYP/6-311++G(d,p) empiricaldispersion=gd3bj scf=xqc pop=npa geom=c
 heck
 ----------------------------------------------------------------------

 -------------------------------------
 CID_152241762_JID_3496_Energie_kation
 -------------------------------------
 Structure from the checkpoint file:  "JID_3496.chk"
 Charge =  1 Multiplicity = 2

 SCF Done:  E(UB3LYP) =  -606.093695028     A.U. after   25 cycles
 Normal termination of Gaussian 16 at Wed Dec  9 23:41:17 2020.
 Gaussian 16:  ES64L-G16RevA.03 25-Dec-2016

 ----------------------------------------------------------------------
 # B3LYP/6-311++G(d,p) empiricaldispersion=gd3bj scf=xqc pop=npa geom=c
 heck
 ----------------------------------------------------------------------

 ------------------------------------
 CID_152241762_JID_3496_Energie_anion
 ------------------------------------
 Structure from the checkpoint file:  "JID_3496.chk"
 Charge = -1 Multiplicity = 2

                         Standard orientation:
 ---------------------------------------------------------------------
 Center     Atomic      Atomic             Coordinates (Angstroms)
 Number     Number       Type             X           Y           Z
 ---------------------------------------------------------------------
      1          6           0       -2.365376    2.065334   -0.555631
      2          6           0       -1.798424    0.709841   -0.247977
      3          6           0       -0.476211    0.504300   -0.032222
      4          6           0        0.026205   -0.848560    0.298939
      5          7           0        1.169046   -1.376809    0.028551
      6          8           0        1.986105   -0.554336   -0.754714
      7          6           0        3.317478   -1.054670   -0.714357
      8          6           0       -0.984377   -1.761881    0.944399
      9          6           0       -2.213188   -1.810428    0.025188
     10          6           0       -2.809352   -0.408577   -0.150695
     11          7           0        0.388261    1.633657   -0.104411
     12          7           0        1.447670    1.631575    0.527531
     13          7           0        2.448389    1.784794    1.054081
     14          1           0       -3.146645    2.326325    0.171661
     15          1           0       -2.846535    2.063938   -1.543063
     16          1           0       -1.600733    2.842649   -0.542105
     17          1           0        3.769737   -0.885383    0.270004
     18          1           0        3.334575   -2.124028   -0.950163
     19          1           0        3.865071   -0.489481   -1.471755
     20          1           0       -1.271846   -1.374193    1.931303
     21          1           0       -0.540610   -2.751526    1.077218
     22          1           0       -1.903288   -2.208524   -0.948613
     23          1           0       -2.970577   -2.492697    0.426870
     24          1           0       -3.465038   -0.381397   -1.032240
     25          1           0       -3.467044   -0.175674    0.702459
 ---------------------------------------------------------------------

 SCF Done:  E(UB3LYP) =  -606.374970574     A.U. after   33 cycles
 SCF Done:  E(UB3LYP) =  -606.374970574     a.u. after    1 cycles

 The electronic state is 2-A.
 Alpha  occ. eigenvalues --  -19.02161 -14.34524 -14.24322 -14.23071 -14.19279
 Alpha  occ. eigenvalues --  -10.09461 -10.06819 -10.05748 -10.04369 -10.04333
 Alpha  occ. eigenvalues --  -10.04273 -10.03674 -10.02653  -1.00691  -0.94626
 Alpha  occ. eigenvalues --   -0.85067  -0.74399  -0.69338  -0.64358  -0.59938
 Alpha  occ. eigenvalues --   -0.56625  -0.54243  -0.49812  -0.44256  -0.44127
 Alpha  occ. eigenvalues --   -0.39733  -0.38150  -0.37433  -0.34389  -0.33869
 Alpha  occ. eigenvalues --   -0.33181  -0.32171  -0.31139  -0.30402  -0.29122
 Alpha  occ. eigenvalues --   -0.27549  -0.27224  -0.25522  -0.24856  -0.23415
 Alpha  occ. eigenvalues --   -0.21393  -0.20933  -0.20821  -0.19369  -0.16505
 Alpha  occ. eigenvalues --   -0.13580  -0.11205  -0.08190   0.05583
 Alpha virt. eigenvalues --    0.07979   0.08764   0.08941   0.09653   0.10391
 Alpha virt. eigenvalues --    0.11383   0.11727   0.12286   0.12595   0.12812
 Alpha virt. eigenvalues --    0.13029   0.13710   0.14166   0.14965   0.15711

  Beta  occ. eigenvalues --  -19.02122 -14.34436 -14.24247 -14.23106 -14.18853
  Beta  occ. eigenvalues --  -10.09457 -10.06803 -10.05606 -10.04376 -10.04310
  Beta  occ. eigenvalues --  -10.04285 -10.03705 -10.02195  -1.00555  -0.94371
  Beta  occ. eigenvalues --   -0.85015  -0.74002  -0.68899  -0.64162  -0.59692
  Beta  occ. eigenvalues --   -0.56557  -0.54152  -0.49580  -0.44003  -0.43760
  Beta  occ. eigenvalues --   -0.39578  -0.37842  -0.37175  -0.34225  -0.33640
  Beta  occ. eigenvalues --   -0.33004  -0.31961  -0.31003  -0.30142  -0.28890
  Beta  occ. eigenvalues --   -0.27277  -0.26988  -0.25345  -0.24715  -0.22841
  Beta  occ. eigenvalues --   -0.21070  -0.20751  -0.20668  -0.19073  -0.16329
  Beta  occ. eigenvalues --   -0.13078  -0.10552  -0.06636
  Beta virt. eigenvalues --    0.08333   0.08726   0.09285   0.09876   0.10287
  Beta virt. eigenvalues --    0.11253   0.11336   0.12004   0.12339   0.12754
  Beta virt. eigenvalues --    0.13193   0.13617   0.13958   0.14367   0.14981

 Mulliken charges and spin densities:
               1          2
     1  C   -0.246803  -0.240058
     2  C    1.272998   0.664367
     3  C   -2.122850   0.156311
     4  C    0.524832  -0.160429
     5  N   -0.349805   0.213268
     6  O    0.051732   0.003895
     7  C   -0.226058  -0.043609
     8  C   -0.599921   0.154870
     9  C   -0.297671   0.166079
    10  C    0.660704  -1.453709
    11  N   -0.274999   0.012160
    12  N    0.645013   0.010650
    13  N   -0.241253   0.027131
    14  H    0.128011   0.002595
    15  H   -0.045282   0.202349
    16  H    0.170292  -0.001164
    17  H    0.112120   0.029157
    18  H    0.120836  -0.000202
    19  H    0.082812   0.032516
    20  H    0.081856   0.032768
    21  H    0.136108   0.019575
    22  H    0.238462  -0.094175
    23  H   -0.589241   0.746497
    24  H   -0.458680   0.618871
    25  H    0.226787  -0.099711
 Sum of Mulliken charges =  -1.00000   1.00000

 Dipole moment (field-independent basis, Debye):
    X=              3.1446    Y=              1.2130    Z=              1.1562  Tot=              3.5633
 Quadrupole moment (field-independent basis, Debye-Ang):
   XX=           -123.9968   YY=           -104.3828   ZZ=            -94.4606
   XY=            -10.1227   XZ=            -11.0254   YZ=              1.1570

 Summary of Natural Population Analysis:

                                       Natural Population
                Natural  -----------------------------------------------
    Atom  No    Charge         Core      Valence    Rydberg      Total
 -----------------------------------------------------------------------
      C    1   -0.30203      0.99963     2.29640    0.00600     3.30203
      C    2    0.08947      0.99948     1.90209    0.00896     2.91053
      C    3    0.01433      0.99927     1.97192    0.01448     2.98567
      C    4    0.11242      0.99956     1.87138    0.01664     2.88758
      N    5   -0.04500      0.99960     2.53114    0.01426     3.54500
      O    6   -0.23093      0.99989     3.21759    0.01345     4.23093
      C    7   -0.09302      0.99963     2.08388    0.00951     3.09302
      C    8   -0.19743      0.99960     2.18746    0.01037     3.19743
      C    9   -0.18269      0.99963     2.17403    0.00904     3.18269
      C   10   -0.20173      0.99960     2.19300    0.00913     3.20173
      N   11   -0.17084      0.99964     2.65785    0.01336     3.67084
      N   12    0.13340      0.99970     2.35016    0.01674     3.36660
      N   13   -0.06506      0.99981     2.55238    0.01287     3.56506
      H   14    0.09754      0.00000     0.40150    0.00095     0.40246
      H   15    0.10302      0.00000     0.39572    0.00126     0.39698
      H   16    0.10719      0.00000     0.39198    0.00083     0.39281
      H   17    0.07931      0.00000     0.41798    0.00271     0.42069
      H   18    0.08072      0.00000     0.41745    0.00184     0.41928
      H   19    0.08222      0.00000     0.41651    0.00127     0.41778
      H   20    0.09378      0.00000     0.40499    0.00123     0.40622
      H   21    0.10330      0.00000     0.39518    0.00152     0.39670
      H   22    0.09481      0.00000     0.40374    0.00145     0.40519
      H   23    0.09571      0.00000     0.40228    0.00201     0.40429
      H   24    0.10571      0.00000     0.39095    0.00334     0.39429
      H   25    0.09580      0.00000     0.40309    0.00111     0.40420
 =======================================================================
   * Total *   -0.00000     12.99506    34.83064    0.17431    48.00000

 Normal termination of Gaussian 16 at Wed Dec  9 23:47:24 2020.
