 Gaussian 16, Revision A.03,

 -----------------------------------------------------------
 # opt freq B3LYP/6-31G(d) empiricaldispersion=gd3bj scf=xqc
 -----------------------------------------------------------

 -------------------------------
 CID_107760935_JID_7253_neutraal
 -------------------------------
 Symbolic Z-matrix:
 Charge =  0 Multiplicity = 1

 SCF Done:  E(RB3LYP) =  -1090.38320200     A.U. after   15 cycles
 SCF Done:  E(RB3LYP) =  -1090.38258989     A.U. after   14 cycles
 SCF Done:  E(RB3LYP) =  -1090.38897212     A.U. after   12 cycles
 SCF Done:  E(RB3LYP) =  -1090.38865120     A.U. after   13 cycles
 SCF Done:  E(RB3LYP) =  -1090.38974017     A.U. after   12 cycles
 SCF Done:  E(RB3LYP) =  -1090.39020007     A.U. after   12 cycles
 SCF Done:  E(RB3LYP) =  -1090.39075484     A.U. after   13 cycles
 SCF Done:  E(RB3LYP) =  -1090.39106158     A.U. after   12 cycles
 SCF Done:  E(RB3LYP) =  -1090.39111819     A.U. after   12 cycles
 SCF Done:  E(RB3LYP) =  -1090.39127317     A.U. after   11 cycles
 SCF Done:  E(RB3LYP) =  -1090.39132457     A.U. after    9 cycles
 SCF Done:  E(RB3LYP) =  -1090.39133120     A.U. after    9 cycles
 SCF Done:  E(RB3LYP) =  -1090.39133515     A.U. after    9 cycles
 SCF Done:  E(RB3LYP) =  -1090.39133712     A.U. after    8 cycles
 SCF Done:  E(RB3LYP) =  -1090.39133778     A.U. after    8 cycles
 Optimization completed.
    -- Stationary point found.
 Normal termination of Gaussian 16 at Sun Dec 13 12:35:22 2020.

 --------------------------------------------------------------------
 #N Geom=AllCheck Guess=TCheck SCRF=Check GenChk RB3LYP/6-31G(d) Freq
 --------------------------------------------------------------------

 Structure from the checkpoint file:  "JID_7253.chk"
 -------------------------------
 CID_107760935_JID_7253_neutraal
 -------------------------------
 Charge =  0 Multiplicity = 1

 SCF Done:  E(RB3LYP) =  -1090.39133778     A.U. after    1 cycles

  Exact polarizability: 165.454   9.422 169.795  -6.153  -1.696 157.144
 Approx polarizability: 222.268  11.966 269.028  -8.621  -4.890 262.780

                      1                      2                      3
                      A                      A                      A
 Frequencies --     30.6655                39.9226                60.2152
 Red. masses --      3.8016                 3.9646                 5.1190
 Frc consts  --      0.0021                 0.0037                 0.0109
 IR Inten    --      0.1027                 0.2832                 0.1280

                      4                      5                      6
                      A                      A                      A
 Frequencies --     65.2920                75.9192                96.1423
 Red. masses --      3.8761                 4.2125                 4.5314
 Frc consts  --      0.0097                 0.0143                 0.0247
 IR Inten    --      1.0471                 0.4178                 0.2090

                      7                      8                      9
                      A                      A                      A
 Frequencies --    121.1756               138.6975               169.8475
 Red. masses --      2.8727                 4.6594                 3.3257
 Frc consts  --      0.0249                 0.0528                 0.0565
 IR Inten    --      0.2158                 0.2117                 1.8626

                     10                     11                     12
                      A                      A                      A
 Frequencies --    175.7839               191.2522               205.9414
 Red. masses --      3.2568                 5.5021                 4.8179
 Frc consts  --      0.0593                 0.1186                 0.1204
 IR Inten    --      0.6474                 2.9028                 3.5178

                     13                     14                     15
                      A                      A                      A
 Frequencies --    221.7015               241.0893               274.9850
 Red. masses --      3.4732                 3.9334                 1.6408
 Frc consts  --      0.1006                 0.1347                 0.0731
 IR Inten    --      0.3185                 1.2186                 0.0534

                     16                     17                     18
                      A                      A                      A
 Frequencies --    304.8909               323.5997               345.6566
 Red. masses --      3.8986                 1.3370                 4.2330
 Frc consts  --      0.2135                 0.0825                 0.2980
 IR Inten    --      2.0437                 0.3134                 0.3174

                     19                     20                     21
                      A                      A                      A
 Frequencies --    354.3197               421.2145               423.2932
 Red. masses --      1.1963                 3.0943                 2.7154
 Frc consts  --      0.0885                 0.3235                 0.2867
 IR Inten    --      5.8300                 1.6337                 7.3001

                     22                     23                     24
                      A                      A                      A
 Frequencies --    429.1175               457.0849               506.8799
 Red. masses --      3.8326                 1.7152                 3.8107
 Frc consts  --      0.4158                 0.2111                 0.5769
 IR Inten    --     13.5501                 0.1564                 4.4421

                     25                     26                     27
                      A                      A                      A
 Frequencies --    576.5784               621.9027               623.2637
 Red. masses --      3.1441                 1.7046                 4.5720
 Frc consts  --      0.6158                 0.3884                 1.0464
 IR Inten    --     16.5115                66.4468                30.1873

                     28                     29                     30
                      A                      A                      A
 Frequencies --    637.3926               664.6440               710.2457
 Red. masses --      5.3797                 3.8063                 5.3113
 Frc consts  --      1.2877                 0.9907                 1.5786
 IR Inten    --      7.5193                 3.4095                 6.2552

                     31                     32                     33
                      A                      A                      A
 Frequencies --    721.8259               739.1225               769.6021
 Red. masses --      2.7686                 2.0570                 1.5722
 Frc consts  --      0.8499                 0.6621                 0.5486
 IR Inten    --     15.3712                71.9818                 0.5984

                     34                     35                     36
                      A                      A                      A
 Frequencies --    790.3336               803.3450               849.8702
 Red. masses --      1.8239                 2.4171                 1.4187
 Frc consts  --      0.6712                 0.9191                 0.6037
 IR Inten    --      1.0173                 2.0594                 5.3987

                     37                     38                     39
                      A                      A                      A
 Frequencies --    857.3258               871.2985               890.1163
 Red. masses --      5.7535                 1.2545                 3.0830
 Frc consts  --      2.4916                 0.5611                 1.4392
 IR Inten    --     12.9907                 0.8076                38.9102

                     40                     41                     42
                      A                      A                      A
 Frequencies --    898.8324               940.7949               943.3527
 Red. masses --      2.0548                 1.4122                 1.4523
 Frc consts  --      0.9781                 0.7365                 0.7615
 IR Inten    --      1.9812                 7.0307                19.3934

                     43                     44                     45
                      A                      A                      A
 Frequencies --    972.8748               984.2839               989.3125
 Red. masses --      1.6939                 1.3933                 1.8252
 Frc consts  --      0.9446                 0.7953                 1.0525
 IR Inten    --    106.2102                 6.8299                 7.1343

                     46                     47                     48
                      A                      A                      A
 Frequencies --   1003.5813              1023.1692              1043.0449
 Red. masses --      1.2597                 5.6690                 1.7903
 Frc consts  --      0.7475                 3.4967                 1.1476
 IR Inten    --      0.9537                 0.7440                 3.2806

                     49                     50                     51
                      A                      A                      A
 Frequencies --   1064.0669              1090.7266              1119.6045
 Red. masses --      2.2329                 2.0018                 1.6001
 Frc consts  --      1.4896                 1.4032                 1.1817
 IR Inten    --      3.2904                 4.0338                 2.3705

                     52                     53                     54
                      A                      A                      A
 Frequencies --   1123.5900              1136.5969              1195.0566
 Red. masses --      1.4942                 1.7614                 1.2039
 Frc consts  --      1.1114                 1.3407                 1.0130
 IR Inten    --      0.4213                 1.5654                 0.5020

                     55                     56                     57
                      A                      A                      A
 Frequencies --   1196.3265              1210.1113              1222.0947
 Red. masses --      1.1532                 2.3257                 1.1652
 Frc consts  --      0.9724                 2.0066                 1.0254
 IR Inten    --      0.2171                 3.5409                 1.8344

                     58                     59                     60
                      A                      A                      A
 Frequencies --   1239.3156              1240.3682              1250.5954
 Red. masses --      1.6233                 1.8097                 1.3055
 Frc consts  --      1.4690                 1.6404                 1.2030
 IR Inten    --      5.5412                10.3697                 3.1066

                     61                     62                     63
                      A                      A                      A
 Frequencies --   1298.9938              1306.3557              1326.0263
 Red. masses --      1.9430                 1.2169                 1.2014
 Frc consts  --      1.9317                 1.2236                 1.2447
 IR Inten    --     21.6694                 8.7333                 4.1936

                     64                     65                     66
                      A                      A                      A
 Frequencies --   1339.0513              1362.8812              1363.9195
 Red. masses --      1.1596                 3.6021                 1.2382
 Frc consts  --      1.2250                 3.9420                 1.3572
 IR Inten    --      9.8340                 6.6286                 0.6482

                     67                     68                     69
                      A                      A                      A
 Frequencies --   1377.0435              1393.4917              1396.0596
 Red. masses --      1.3066                 1.5793                 2.0028
 Frc consts  --      1.4597                 1.8069                 2.2998
 IR Inten    --      1.5503                11.7175                66.2494

                     70                     71                     72
                      A                      A                      A
 Frequencies --   1403.0142              1410.9051              1446.3243
 Red. masses --      1.4987                 1.4162                 1.2658
 Frc consts  --      1.7381                 1.6610                 1.5600
 IR Inten    --     16.0359                 2.6498                 3.0558

                     73                     74                     75
                      A                      A                      A
 Frequencies --   1461.5879              1500.2927              1511.0032
 Red. masses --      1.4530                 2.2320                 1.0768
 Frc consts  --      1.8288                 2.9601                 1.4485
 IR Inten    --     20.9406                 4.7311                 7.7109

                     76                     77                     78
                      A                      A                      A
 Frequencies --   1515.8542              1522.3132              1524.8008
 Red. masses --      1.0928                 1.0794                 1.0833
 Frc consts  --      1.4795                 1.4738                 1.4840
 IR Inten    --      5.9256                 6.1746                 2.4568

                     79                     80                     81
                      A                      A                      A
 Frequencies --   1540.9429              1546.1611              1546.9281
 Red. masses --      1.0439                 1.1398                 1.8931
 Frc consts  --      1.4605                 1.6055                 2.6691
 IR Inten    --      8.8767                 7.4371                16.6422

                     82                     83                     84
                      A                      A                      A
 Frequencies --   1643.0854              1664.6854              1735.2824
 Red. masses --      5.4596                 5.4607                 1.0626
 Frc consts  --      8.6842                 8.9159                 1.8853
 IR Inten    --      2.2281                 5.3870                16.3442

                     85                     86                     87
                      A                      A                      A
 Frequencies --   1782.6368              3028.3709              3034.8496
 Red. masses --      8.3122                 1.0636                 1.0639
 Frc consts  --     15.5630                 5.7468                 5.7734
 IR Inten    --    308.0219                27.1938                18.5151

                     88                     89                     90
                      A                      A                      A
 Frequencies --   3040.2979              3047.2060              3064.0638
 Red. masses --      1.0643                 1.0366                 1.0982
 Frc consts  --      5.7964                 5.6708                 6.0747
 IR Inten    --     12.6800                13.7088                29.3872

                     91                     92                     93
                      A                      A                      A
 Frequencies --   3074.0197              3079.8153              3102.3033
 Red. masses --      1.0987                 1.0993                 1.0619
 Frc consts  --      6.1172                 6.1436                 6.0215
 IR Inten    --     25.2133                56.3852                21.9865

                     94                     95                     96
                      A                      A                      A
 Frequencies --   3112.2501              3117.0068              3118.3612
 Red. masses --      1.0997                 1.1021                 1.0849
 Frc consts  --      6.2759                 6.3091                 6.2159
 IR Inten    --     53.8644                40.7288                 0.7299

                     97                     98                     99
                      A                      A                      A
 Frequencies --   3154.4659              3183.3963              3190.9467
 Red. masses --      1.1056                 1.0862                 1.0874
 Frc consts  --      6.4819                 6.4855                 6.5235
 IR Inten    --      7.5480                 2.7071                 0.9177

                    100                    101                    102
                      A                      A                      A
 Frequencies --   3200.1875              3209.3513              3216.3641
 Red. masses --      1.0917                 1.0932                 1.0974
 Frc consts  --      6.5871                 6.6342                 6.6885
 IR Inten    --     15.5182                18.0614                15.6066

                    103                    104                    105
                      A                      A                      A
 Frequencies --   3452.5488              3540.0991              3592.7135
 Red. masses --      1.0460                 1.0964                 1.0771
 Frc consts  --      7.3461                 8.0956                 8.1912
 IR Inten    --     10.3460                11.5445                29.8630

 - Thermochemistry -
 -------------------
 Temperature   298.150 Kelvin.  Pressure   1.00000 Atm.
 Atom     1 has atomic number  6 and mass  12.00000

 Molecular mass:   252.12964 amu.
 Principal axes and moments of inertia in atomic units:
                           1         2         3
     Eigenvalues --  3641.216835799.287616922.21280
           X            0.99996  -0.00105   0.00943
           Y            0.00096   0.99995   0.01008
           Z           -0.00944  -0.01007   0.99990
 This molecule is an asymmetric top.
 Rotational symmetry number  1.
 Warning -- assumption of classical behavior for rotation
           may cause significant error
 Rotational temperatures (Kelvin)      0.02379     0.01494     0.01251
 Rotational constants (GHZ):           0.49564     0.31120     0.26072
 Zero-point vibrational energy     838387.9 (Joules/Mol)
                                  200.37952 (Kcal/Mol)
 Warning -- explicit consideration of  25 degrees of freedom as
           vibrations may cause significant error
 Vibrational temperatures:     44.12    57.44    86.64    93.94   109.23
          (Kelvin)            138.33   174.34   199.55   244.37   252.91
                              275.17   296.30   318.98   346.87   395.64
                              438.67   465.59   497.32   509.79   606.03
                              609.02   617.40   657.64   729.29   829.57
                              894.78   896.74   917.07   956.27  1021.89
                             1038.55  1063.43  1107.29  1137.11  1155.83
                             1222.77  1233.50  1253.60  1280.68  1293.22
                             1353.59  1357.27  1399.75  1416.16  1423.40
                             1443.93  1472.11  1500.71  1530.95  1569.31
                             1610.86  1616.60  1635.31  1719.42  1721.25
                             1741.08  1758.32  1783.10  1784.61  1799.33
                             1868.96  1879.55  1907.86  1926.60  1960.88
                             1962.38  1981.26  2004.92  2008.62  2018.62
                             2029.98  2080.94  2102.90  2158.59  2174.00
                             2180.98  2190.27  2193.85  2217.07  2224.58
                             2225.68  2364.03  2395.11  2496.68  2564.82
                             4357.15  4366.47  4374.31  4384.25  4408.50
                             4422.83  4431.17  4463.52  4477.83  4484.68
                             4486.63  4538.57  4580.20  4591.06  4604.36
                             4617.54  4627.63  4967.45  5093.41  5169.11

 Zero-point correction=                           0.319325 (Hartree/Particle)
 Thermal correction to Energy=                    0.337354
 Thermal correction to Enthalpy=                  0.338298
 Thermal correction to Gibbs Free Energy=         0.272460
 Sum of electronic and zero-point Energies=          -1090.072013
 Sum of electronic and thermal Energies=             -1090.053984
 Sum of electronic and thermal Enthalpies=           -1090.053039
 Sum of electronic and thermal Free Energies=        -1090.118877

                     E (Thermal)             CV                S
                      KCal/Mol        Cal/Mol-Kelvin    Cal/Mol-Kelvin
 Total                  211.693             67.668            138.567
 Electronic               0.000              0.000              0.000
 Translational            0.889              2.981             42.475
 Rotational               0.889              2.981             33.346
 Vibrational            209.915             61.706             62.746
 Vibration     1          0.594              1.984              5.786
 Vibration     2          0.594              1.981              5.263
 Vibration     3          0.597              1.973              4.450
 Vibration     4          0.597              1.971              4.290
 Vibration     5          0.599              1.965              3.994
 Vibration     6          0.603              1.952              3.531
 Vibration     7          0.609              1.932              3.082
 Vibration     8          0.614              1.915              2.822
 Vibration     9          0.625              1.880              2.437
 Vibration    10          0.628              1.872              2.373
 Vibration    11          0.634              1.852              2.216
 Vibration    12          0.640              1.831              2.079
 Vibration    13          0.648              1.808              1.945
 Vibration    14          0.658              1.777              1.795
 Vibration    15          0.677              1.720              1.565
 Vibration    16          0.696              1.664              1.390
 Vibration    17          0.708              1.628              1.292
 Vibration    18          0.724              1.584              1.186
 Vibration    19          0.730              1.566              1.147
 Vibration    20          0.784              1.424              0.888
 Vibration    21          0.785              1.420              0.881
 Vibration    22          0.790              1.407              0.862
 Vibration    23          0.815              1.345              0.775
 Vibration    24          0.862              1.235              0.641
 Vibration    25          0.933              1.082              0.492

 Optimization completed.
    -- Stationary point found.
 Normal termination of Gaussian 16 at Sun Dec 13 12:50:42 2020.

 ----------------------------------------------------------------------
 # B3LYP/6-311++G(d,p) empiricaldispersion=gd3bj scf=xqc pop=npa geom=c
 heck
 ----------------------------------------------------------------------

 ---------------------------------------
 CID_107760935_JID_7253_Energie_neutraal
 ---------------------------------------
 Structure from the checkpoint file:  "JID_7253.chk"
 Charge =  0 Multiplicity = 1

 SCF Done:  E(RB3LYP) =  -1090.62010931     A.U. after   16 cycles
 Normal termination of Gaussian 16 at Sun Dec 13 12:59:13 2020.

 ----------------------------------------------------------------------
 # B3LYP/6-311++G(d,p) empiricaldispersion=gd3bj scf=xqc pop=npa geom=c
 heck
 ----------------------------------------------------------------------

 -------------------------------------
 CID_107760935_JID_7253_Energie_kation
 -------------------------------------
 Structure from the checkpoint file:  "JID_7253.chk"
 Charge =  1 Multiplicity = 2

 SCF Done:  E(UB3LYP) =  -1090.31888730     A.U. after   25 cycles
 Normal termination of Gaussian 16 at Sun Dec 13 13:18:28 2020.
 Gaussian 16:  ES64L-G16RevA.03 25-Dec-2016

 ----------------------------------------------------------------------
 # B3LYP/6-311++G(d,p) empiricaldispersion=gd3bj scf=xqc pop=npa geom=c
 heck
 ----------------------------------------------------------------------

 ------------------------------------
 CID_107760935_JID_7253_Energie_anion
 ------------------------------------
 Structure from the checkpoint file:  "JID_7253.chk"
 Charge = -1 Multiplicity = 2

                         Standard orientation:
 ---------------------------------------------------------------------
 Center     Atomic      Atomic             Coordinates (Angstroms)
 Number     Number       Type             X           Y           Z
 ---------------------------------------------------------------------
      1          6           0        3.151424   -0.972066    1.870420
      2          6           0        4.159774   -0.778944    0.733249
      3          6           0        3.595641   -0.183625   -0.566908
      4          6           0        2.558515   -1.063860   -1.293851
      5          6           0        1.089396   -0.836607   -0.912677
      6         16           0        0.520308    0.772345   -1.608227
      7          6           0       -1.174438    1.051282   -0.843253
      8          6           0       -1.799873   -0.201482   -0.267373
      9          6           0       -2.070149   -0.359039    1.096535
     10          6           0       -2.645429   -1.539145    1.574878
     11          6           0       -2.960002   -2.575054    0.698686
     12          6           0       -2.710025   -2.419753   -0.667527
     13          6           0       -2.139267   -1.243488   -1.143747
     14          6           0       -1.221241    2.289547    0.063642
     15          8           0       -2.000628    3.197069   -0.191402
     16          7           0       -0.419273    2.354511    1.175271
     17          7           0        0.652101    1.520668    1.533318
     18          1           0        2.364600   -1.686030    1.601719
     19          1           0        2.675477   -0.023833    2.147609
     20          1           0        3.647891   -1.362282    2.765897
     21          1           0        4.967986   -0.125662    1.087069
     22          1           0        4.630223   -1.744864    0.500905
     23          1           0        3.168042    0.808531   -0.370371
     24          1           0        4.438462   -0.008940   -1.246623
     25          1           0        2.654070   -0.929038   -2.378390
     26          1           0        2.786400   -2.121881   -1.103986
     27          1           0        0.465695   -1.633929   -1.322067
     28          1           0        0.950497   -0.835689    0.169588
     29          1           0       -1.771810    1.362957   -1.701957
     30          1           0       -1.870968    0.454263    1.786873
     31          1           0       -2.852317   -1.640155    2.636444
     32          1           0       -3.405516   -3.492362    1.072216
     33          1           0       -2.964746   -3.214820   -1.362540
     34          1           0       -1.942512   -1.124699   -2.206189
     35          1           0       -0.463494    3.234099    1.675069
     36          1           0        1.270486    1.421357    0.729444
     37          1           0        0.295882    0.596060    1.769580
 ---------------------------------------------------------------------

 SCF Done:  E(UB3LYP) =  -1090.61375308     A.U. after   33 cycles
 SCF Done:  E(UB3LYP) =  -1090.61375308     a.u. after    1 cycles

 The electronic state is 2-A.
 Alpha  occ. eigenvalues --  -88.73117 -18.99111 -14.26437 -14.24398 -10.17405
 Alpha  occ. eigenvalues --  -10.10696 -10.09454 -10.07464 -10.07407 -10.07056
 Alpha  occ. eigenvalues --  -10.07033 -10.06871 -10.06797 -10.06594 -10.06473
 Alpha  occ. eigenvalues --  -10.06112 -10.06029  -7.81768  -5.78162  -5.77790
 Alpha  occ. eigenvalues --   -5.77145  -0.94820  -0.88520  -0.75665  -0.71979
 Alpha  occ. eigenvalues --   -0.70665  -0.69339  -0.66395  -0.64195  -0.62359
 Alpha  occ. eigenvalues --   -0.59702  -0.55227  -0.51774  -0.50262  -0.49697
 Alpha  occ. eigenvalues --   -0.48103  -0.46079  -0.42997  -0.42278  -0.40844
 Alpha  occ. eigenvalues --   -0.38072  -0.36894  -0.36293  -0.35827  -0.34609
 Alpha  occ. eigenvalues --   -0.33788  -0.32824  -0.32040  -0.31563  -0.30681
 Alpha  occ. eigenvalues --   -0.30329  -0.29411  -0.28375  -0.28076  -0.26383
 Alpha  occ. eigenvalues --   -0.25237  -0.24706  -0.24085  -0.23181  -0.23103
 Alpha  occ. eigenvalues --   -0.22430  -0.20444  -0.19788  -0.16912  -0.16590
 Alpha  occ. eigenvalues --   -0.15355  -0.14342  -0.12095   0.04364
 Alpha virt. eigenvalues --    0.06128   0.06896   0.07504   0.08044   0.08483
 Alpha virt. eigenvalues --    0.08557   0.08820   0.09531   0.09789   0.10149
 Alpha virt. eigenvalues --    0.10566   0.10986   0.11221   0.12217   0.12475

  Beta  occ. eigenvalues --  -88.73060 -18.99056 -14.26436 -14.24396 -10.17362
  Beta  occ. eigenvalues --  -10.10646 -10.09456 -10.07376 -10.07296 -10.07098
  Beta  occ. eigenvalues --  -10.07011 -10.06880 -10.06780 -10.06530 -10.06460
  Beta  occ. eigenvalues --  -10.05987 -10.05852  -7.81707  -5.78053  -5.77722
  Beta  occ. eigenvalues --   -5.77103  -0.94734  -0.88490  -0.75416  -0.71893
  Beta  occ. eigenvalues --   -0.70603  -0.69189  -0.66268  -0.64019  -0.62131
  Beta  occ. eigenvalues --   -0.59606  -0.55067  -0.51694  -0.50078  -0.49554
  Beta  occ. eigenvalues --   -0.47957  -0.45978  -0.42950  -0.42251  -0.40775
  Beta  occ. eigenvalues --   -0.37971  -0.36778  -0.36155  -0.35745  -0.34494
  Beta  occ. eigenvalues --   -0.33709  -0.32719  -0.31974  -0.31468  -0.30586
  Beta  occ. eigenvalues --   -0.30116  -0.29327  -0.28306  -0.27972  -0.26096
  Beta  occ. eigenvalues --   -0.25016  -0.24533  -0.23993  -0.23088  -0.23045
  Beta  occ. eigenvalues --   -0.22377  -0.20266  -0.19752  -0.16779  -0.16426
  Beta  occ. eigenvalues --   -0.14922  -0.13477  -0.11917
  Beta virt. eigenvalues --    0.06488   0.07060   0.07658   0.07951   0.08459
  Beta virt. eigenvalues --    0.08579   0.08811   0.08963   0.09745   0.09970
  Beta virt. eigenvalues --    0.10405   0.10852   0.11239   0.11389   0.12257

 Mulliken charges and spin densities:
               1          2
     1  C   -0.579787   0.078729
     2  C    1.235125  -1.819883
     3  C   -0.816729   1.027142
     4  C    0.069867  -0.388527
     5  C    0.179563  -0.432413
     6  S   -0.067665  -0.134382
     7  C    0.082254  -0.065661
     8  C    0.451251   0.154953
     9  C   -0.439916   0.306991
    10  C   -0.096424  -0.068649
    11  C   -0.122451  -0.098672
    12  C   -0.115625  -0.142254
    13  C   -0.154791  -0.096479
    14  C   -0.479597   0.118167
    15  O   -0.301916   0.017802
    16  N   -0.236326  -0.053141
    17  N   -0.437139   0.031325
    18  H    0.043369   0.128535
    19  H    0.140222   0.024494
    20  H   -0.196429   0.357578
    21  H   -0.160739   0.297505
    22  H   -0.147723   0.283202
    23  H   -0.080407   0.202539
    24  H   -0.233793   0.412024
    25  H   -0.147075   0.319233
    26  H   -0.235912   0.391643
    27  H    0.265790  -0.034059
    28  H    0.273296  -0.305389
    29  H    0.270270   0.052743
    30  H    0.119574   0.038725
    31  H    0.065074   0.080196
    32  H    0.022882   0.087393
    33  H   -0.001558   0.158757
    34  H    0.044041   0.105048
    35  H    0.308628   0.021262
    36  H    0.274997  -0.066931
    37  H    0.205796   0.010451
 Sum of Mulliken charges =  -1.00000   1.00000

 Dipole moment (field-independent basis, Debye):
    X=             -2.0358    Y=              0.1021    Z=              1.4473  Tot=              2.4999
 Quadrupole moment (field-independent basis, Debye-Ang):
   XX=           -187.7313   YY=           -153.8309   ZZ=           -141.0497
   XY=             12.2611   XZ=             -1.4463   YZ=              5.2948

 Summary of Natural Population Analysis:

                                       Natural Population
                Natural  -----------------------------------------------
    Atom  No    Charge         Core      Valence    Rydberg      Total
 -----------------------------------------------------------------------
      C    1   -0.29159      0.99966     2.28595    0.00598     3.29159
      C    2   -0.18726      0.99964     2.17969    0.00793     3.18726
      C    3   -0.19406      0.99962     2.18456    0.00988     3.19406
      C    4   -0.19762      0.99962     2.18763    0.01038     3.19762
      C    5   -0.25116      0.99958     2.24234    0.00924     3.25116
      S    6    0.09745      4.99963     2.88726    0.01567     7.90255
      C    7   -0.19361      0.99946     2.18128    0.01287     3.19361
      C    8   -0.00114      0.99948     1.99094    0.01072     3.00114
      C    9   -0.11398      0.99951     2.10675    0.00772     3.11398
      C   10   -0.09255      0.99957     2.08310    0.00989     3.09255
      C   11   -0.07791      0.99957     2.06820    0.01015     3.07791
      C   12   -0.10952      0.99956     2.10050    0.00945     3.10952
      C   13   -0.08182      0.99952     2.07225    0.01006     3.08182
      C   14    0.34346      0.99961     1.63272    0.02420     2.65654
      O   15   -0.31575      0.99988     3.30972    0.00616     4.31575
      N   16   -0.23945      0.99965     2.72701    0.01279     3.73945
      N   17   -0.32587      0.99977     2.81539    0.01070     3.82587
      H   18    0.09554      0.00000     0.40333    0.00113     0.40446
      H   19    0.09773      0.00000     0.40063    0.00163     0.40227
      H   20    0.09859      0.00000     0.40052    0.00088     0.40141
      H   21    0.09449      0.00000     0.40437    0.00114     0.40551
      H   22    0.09298      0.00000     0.40557    0.00145     0.40702
      H   23    0.09540      0.00000     0.40286    0.00173     0.40460
      H   24    0.09983      0.00000     0.39907    0.00110     0.40017
      H   25    0.10238      0.00000     0.39642    0.00120     0.39762
      H   26    0.10097      0.00000     0.39774    0.00129     0.39903
      H   27    0.10633      0.00000     0.39207    0.00160     0.39367
      H   28    0.09711      0.00000     0.39994    0.00295     0.40289
      H   29    0.12043      0.00000     0.37754    0.00203     0.37957
      H   30    0.10055      0.00000     0.39790    0.00155     0.39945
      H   31    0.09553      0.00000     0.40363    0.00084     0.40447
      H   32    0.09450      0.00000     0.40476    0.00074     0.40550
      H   33    0.09692      0.00000     0.40226    0.00082     0.40308
      H   34    0.09967      0.00000     0.39906    0.00127     0.40033
      H   35    0.18645      0.00000     0.31094    0.00261     0.31355
      H   36    0.18144      0.00000     0.31536    0.00320     0.31856
      H   37    0.17556      0.00000     0.32199    0.00245     0.32444
 =======================================================================
   * Total *    0.00000     20.99333    46.79125    0.21542    68.00000

 Normal termination of Gaussian 16 at Sun Dec 13 13:44:57 2020.
