 Gaussian 16, Revision A.03,

 -----------------------------------------------------------
 # opt freq B3LYP/6-31G(d) empiricaldispersion=gd3bj scf=xqc
 -----------------------------------------------------------

 ------------------------------
 CID_65165519_JID_9679_neutraal
 ------------------------------
 Symbolic Z-matrix:
 Charge =  0 Multiplicity = 1

 SCF Done:  E(RB3LYP) =  -807.737501088     A.U. after   14 cycles
 SCF Done:  E(RB3LYP) =  -807.743548757     A.U. after   12 cycles
 SCF Done:  E(RB3LYP) =  -807.745037701     A.U. after   12 cycles
 SCF Done:  E(RB3LYP) =  -807.746288638     A.U. after   12 cycles
 SCF Done:  E(RB3LYP) =  -807.746594977     A.U. after   11 cycles
 SCF Done:  E(RB3LYP) =  -807.746853297     A.U. after   11 cycles
 SCF Done:  E(RB3LYP) =  -807.746888909     A.U. after   10 cycles
 SCF Done:  E(RB3LYP) =  -807.746904975     A.U. after    9 cycles
 SCF Done:  E(RB3LYP) =  -807.746916380     A.U. after    9 cycles
 SCF Done:  E(RB3LYP) =  -807.746919311     A.U. after    8 cycles
 SCF Done:  E(RB3LYP) =  -807.746947729     A.U. after   10 cycles
 SCF Done:  E(RB3LYP) =  -807.746948482     A.U. after    9 cycles
 SCF Done:  E(RB3LYP) =  -807.746948643     A.U. after    8 cycles
 SCF Done:  E(RB3LYP) =  -807.746948677     A.U. after    7 cycles
 SCF Done:  E(RB3LYP) =  -807.746948688     A.U. after    6 cycles
 Optimization completed.
    -- Stationary point found.
 Normal termination of Gaussian 16 at Sun Dec 13 20:43:19 2020.

 --------------------------------------------------------------------
 #N Geom=AllCheck Guess=TCheck SCRF=Check GenChk RB3LYP/6-31G(d) Freq
 --------------------------------------------------------------------

 Structure from the checkpoint file:  "JID_9679.chk"
 ------------------------------
 CID_65165519_JID_9679_neutraal
 ------------------------------
 Charge =  0 Multiplicity = 1

 SCF Done:  E(RB3LYP) =  -807.746948688     A.U. after    1 cycles

  Exact polarizability: 213.103   4.446 194.039  31.885   6.535 130.475
 Approx polarizability: 292.165  -0.057 300.703  66.903  13.218 212.320

                      1                      2                      3
                      A                      A                      A
 Frequencies --     15.2626                22.4662                29.8690
 Red. masses --      4.3674                 3.4369                 4.3473
 Frc consts  --      0.0006                 0.0010                 0.0023
 IR Inten    --      0.0272                 0.7338                 1.6662

                      4                      5                      6
                      A                      A                      A
 Frequencies --     46.2913                61.7783                79.6750
 Red. masses --      2.9980                 3.7882                 3.2921
 Frc consts  --      0.0038                 0.0085                 0.0123
 IR Inten    --      0.3927                 0.7623                 3.0084

                      7                      8                      9
                      A                      A                      A
 Frequencies --    114.6511               122.4508               174.5328
 Red. masses --      4.3225                 3.7482                 3.1750
 Frc consts  --      0.0335                 0.0331                 0.0570
 IR Inten    --      0.5577                 1.6559                 0.8948

                     10                     11                     12
                      A                      A                      A
 Frequencies --    193.4887               232.8143               245.9949
 Red. masses --      2.9419                 2.3837                 2.3503
 Frc consts  --      0.0649                 0.0761                 0.0838
 IR Inten    --      8.1786                 2.6651                 8.4204

                     13                     14                     15
                      A                      A                      A
 Frequencies --    266.1720               284.3066               312.1369
 Red. masses --      2.1106                 2.5824                 1.7649
 Frc consts  --      0.0881                 0.1230                 0.1013
 IR Inten    --      9.7456                 0.8332                14.9357

                     16                     17                     18
                      A                      A                      A
 Frequencies --    335.5464               374.7619               413.1247
 Red. masses --      2.0960                 3.7094                 1.9056
 Frc consts  --      0.1390                 0.3070                 0.1916
 IR Inten    --     25.9524                 3.1448                 0.2923

                     19                     20                     21
                      A                      A                      A
 Frequencies --    424.9400               438.4817               495.6742
 Red. masses --      3.7366                 3.0629                 3.0743
 Frc consts  --      0.3975                 0.3470                 0.4450
 IR Inten    --      1.6549                 4.1336                 0.6477

                     22                     23                     24
                      A                      A                      A
 Frequencies --    532.1532               541.2579               579.0281
 Red. masses --      3.9901                 4.0581                 4.0581
 Frc consts  --      0.6657                 0.7005                 0.8016
 IR Inten    --      0.4166                 1.5904                 6.9154

                     25                     26                     27
                      A                      A                      A
 Frequencies --    598.1336               603.4453               617.0703
 Red. masses --      1.8745                 3.8291                 3.7216
 Frc consts  --      0.3951                 0.8215                 0.8349
 IR Inten    --      2.0411                 7.6492                 5.0566

                     28                     29                     30
                      A                      A                      A
 Frequencies --    669.2385               696.8035               753.4089
 Red. masses --      2.9028                 3.8830                 1.9455
 Frc consts  --      0.7660                 1.1108                 0.6506
 IR Inten    --      4.1428                 6.6473                16.2483

                     31                     32                     33
                      A                      A                      A
 Frequencies --    756.0210               779.8872               782.4570
 Red. masses --      1.4119                 3.4615                 3.8882
 Frc consts  --      0.4755                 1.2404                 1.4025
 IR Inten    --     52.2759                 1.2107                 9.9134

                     34                     35                     36
                      A                      A                      A
 Frequencies --    791.3178               798.1576               849.7868
 Red. masses --      1.9393                 2.4831                 1.6237
 Frc consts  --      0.7155                 0.9320                 0.6908
 IR Inten    --      8.3724                 8.3038                 7.6889

                     37                     38                     39
                      A                      A                      A
 Frequencies --    860.3201               870.6933               881.2322
 Red. masses --      1.4894                 2.4970                 1.3010
 Frc consts  --      0.6495                 1.1153                 0.5953
 IR Inten    --      3.1658                 2.2554                95.8075

                     40                     41                     42
                      A                      A                      A
 Frequencies --    904.8611               915.0910               928.9794
 Red. masses --      1.9727                 2.0495                 1.3321
 Frc consts  --      0.9517                 1.0112                 0.6773
 IR Inten    --      7.7870                 3.4987                 2.1599

                     43                     44                     45
                      A                      A                      A
 Frequencies --    940.4849               950.2573               971.3275
 Red. masses --      2.3432                 2.4404                 1.2440
 Frc consts  --      1.2211                 1.2983                 0.6915
 IR Inten    --      2.6193                21.7107                 0.3899

                     46                     47                     48
                      A                      A                      A
 Frequencies --    980.6471              1003.9405              1013.9813
 Red. masses --      2.2247                 2.1250                 1.7108
 Frc consts  --      1.2605                 1.2619                 1.0363
 IR Inten    --      2.6958                14.3675                10.9315

                     49                     50                     51
                      A                      A                      A
 Frequencies --   1032.4964              1045.2887              1049.4266
 Red. masses --      2.7696                 1.9247                 1.9414
 Frc consts  --      1.7396                 1.2391                 1.2597
 IR Inten    --      6.2405                10.4110                 5.6089

                     52                     53                     54
                      A                      A                      A
 Frequencies --   1073.3093              1088.6226              1110.7740
 Red. masses --      2.0978                 2.2883                 2.4820
 Frc consts  --      1.4238                 1.5978                 1.8043
 IR Inten    --     11.3329                 0.5739                 7.6147

                     55                     56                     57
                      A                      A                      A
 Frequencies --   1118.3156              1142.6855              1155.5625
 Red. masses --      5.2640                 2.1091                 1.8498
 Frc consts  --      3.8788                 1.6225                 1.4554
 IR Inten    --    177.1732                 7.9644                 4.1418

                     58                     59                     60
                      A                      A                      A
 Frequencies --   1161.7250              1188.5348              1192.8359
 Red. masses --      1.5930                 1.1939                 1.2405
 Frc consts  --      1.2667                 0.9937                 1.0400
 IR Inten    --      3.7367                12.0665                 4.4968

                     61                     62                     63
                      A                      A                      A
 Frequencies --   1203.9274              1214.9224              1222.1260
 Red. masses --      1.4109                 1.4109                 1.4432
 Frc consts  --      1.2049                 1.2270                 1.2701
 IR Inten    --      4.1049                10.4277                25.6564

                     64                     65                     66
                      A                      A                      A
 Frequencies --   1231.6863              1244.7710              1278.0794
 Red. masses --      1.4479                 1.4854                 1.2659
 Frc consts  --      1.2941                 1.3560                 1.2183
 IR Inten    --      8.4054                 1.0877                 9.2620

                     67                     68                     69
                      A                      A                      A
 Frequencies --   1290.6605              1310.1160              1320.4324
 Red. masses --      1.6221                 1.3218                 1.2873
 Frc consts  --      1.5920                 1.3368                 1.3224
 IR Inten    --      3.3273                 4.9105                 6.4529

                     70                     71                     72
                      A                      A                      A
 Frequencies --   1331.3629              1338.7524              1360.0408
 Red. masses --      1.2599                 1.3528                 1.2821
 Frc consts  --      1.3158                 1.4285                 1.3973
 IR Inten    --      1.7675                 0.2167                 6.1074

                     73                     74                     75
                      A                      A                      A
 Frequencies --   1379.2622              1380.4688              1396.4669
 Red. masses --      1.5843                 1.8612                 3.6883
 Frc consts  --      1.7757                 2.0897                 4.2378
 IR Inten    --     30.4758                15.5752                25.5423

                     76                     77                     78
                      A                      A                      A
 Frequencies --   1400.9059              1406.4503              1412.4047
 Red. masses --      1.6828                 2.0604                 1.6285
 Frc consts  --      1.9458                 2.4014                 1.9140
 IR Inten    --     11.1272                60.4044                 5.8631

                     79                     80                     81
                      A                      A                      A
 Frequencies --   1415.8058              1433.3769              1436.6723
 Red. masses --      1.3567                 1.8904                 1.5798
 Frc consts  --      1.6023                 2.2884                 1.9212
 IR Inten    --      3.5349                17.6860                12.8128

                     82                     83                     84
                      A                      A                      A
 Frequencies --   1454.5331              1504.0081              1512.6839
 Red. masses --      1.7779                 2.2425                 1.1385
 Frc consts  --      2.2162                 2.9887                 1.5349
 IR Inten    --      6.8658                56.4039                 9.5044

                     85                     86                     87
                      A                      A                      A
 Frequencies --   1515.8383              1520.1606              1523.2019
 Red. masses --      1.0882                 1.0937                 1.3497
 Frc consts  --      1.4732                 1.4892                 1.8451
 IR Inten    --      3.4145                 3.3596                 7.9569

                     88                     89                     90
                      A                      A                      A
 Frequencies --   1531.6370              1535.2587              1538.9342
 Red. masses --      1.0995                 1.9298                 1.1862
 Frc consts  --      1.5197                 2.6799                 1.6552
 IR Inten    --      6.5699                 3.4455                 4.3150

                     91                     92                     93
                      A                      A                      A
 Frequencies --   1552.9615              1615.9507              1632.4557
 Red. masses --      1.1019                 5.5548                 6.4185
 Frc consts  --      1.5657                 8.5462                10.0778
 IR Inten    --      1.1782                27.1358                 2.5529

                     94                     95                     96
                      A                      A                      A
 Frequencies --   1673.0247              1688.2738              2954.7020
 Red. masses --      5.6996                 1.1220                 1.0730
 Frc consts  --      9.3993                 1.8842                 5.5191
 IR Inten    --      8.4407                27.6963                87.1269

                     97                     98                     99
                      A                      A                      A
 Frequencies --   2981.5703              3008.8318              3032.2320
 Red. masses --      1.0731                 1.0832                 1.0879
 Frc consts  --      5.6206                 5.7775                 5.8932
 IR Inten    --     93.6281                67.5623                47.7385

                    100                    101                    102
                      A                      A                      A
 Frequencies --   3040.8436              3053.1475              3063.0551
 Red. masses --      1.0655                 1.0660                 1.0636
 Frc consts  --      5.8047                 5.8548                 5.8794
 IR Inten    --     15.8812                34.3377                42.4825

                    103                    104                    105
                      A                      A                      A
 Frequencies --   3069.4769              3070.1630              3088.3183
 Red. masses --      1.0610                 1.0656                 1.0983
 Frc consts  --      5.8899                 5.9179                 6.1717
 IR Inten    --     26.1636                34.4189                11.7207

                    106                    107                    108
                      A                      A                      A
 Frequencies --   3104.8557              3108.5190              3112.4277
 Red. masses --      1.0989                 1.0915                 1.1007
 Frc consts  --      6.2413                 6.2141                 6.2823
 IR Inten    --     25.5526                42.6283                22.0301

                    109                    110                    111
                      A                      A                      A
 Frequencies --   3114.7791              3125.9951              3180.7231
 Red. masses --      1.1006                 1.1065                 1.0851
 Frc consts  --      6.2914                 6.3705                 6.4682
 IR Inten    --     35.8116                51.7811                 0.9820

                    112                    113                    114
                      A                      A                      A
 Frequencies --   3192.5074              3205.0135              3223.5940
 Red. masses --      1.0896                 1.0952                 1.0936
 Frc consts  --      6.5430                 6.6282                 6.6957
 IR Inten    --     26.4367                31.0799                10.4249

                    115                    116                    117
                      A                      A                      A
 Frequencies --   3255.9720              3458.4576              3548.9364
 Red. masses --      1.0960                 1.0493                 1.0930
 Frc consts  --      6.8457                 7.3949                 8.1108
 IR Inten    --      2.2274                 6.3489                 1.8459

 - Thermochemistry -
 -------------------
 Temperature   298.150 Kelvin.  Pressure   1.00000 Atm.
 Atom     1 has atomic number  6 and mass  12.00000

 Molecular mass:   258.17321 amu.
 Principal axes and moments of inertia in atomic units:
                           1         2         3
     Eigenvalues --  2906.705828500.96913**********
           X            0.99995  -0.00949   0.00228
           Y            0.00949   0.99995   0.00260
           Z           -0.00231  -0.00257   0.99999
 This molecule is an asymmetric top.
 Rotational symmetry number  1.
 Warning -- assumption of classical behavior for rotation
           may cause significant error
 Rotational temperatures (Kelvin)      0.02980     0.01019     0.00841
 Rotational constants (GHZ):           0.62089     0.21230     0.17520
 Zero-point vibrational energy     947536.4 (Joules/Mol)
                                  226.46663 (Kcal/Mol)
 Warning -- explicit consideration of  27 degrees of freedom as
           vibrations may cause significant error
 Vibrational temperatures:     21.96    32.32    42.97    66.60    88.89
          (Kelvin)            114.63   164.96   176.18   251.11   278.39
                              334.97   353.93   382.96   409.05   449.10
                              482.78   539.20   594.39   611.39   630.88
                              713.16   765.65   778.75   833.09   860.58
                              868.22   887.83   962.88  1002.54  1083.99
                             1087.75  1122.08  1125.78  1138.53  1148.37
                             1222.65  1237.81  1252.73  1267.90  1301.89
                             1316.61  1336.59  1353.15  1367.21  1397.52
                             1410.93  1444.45  1458.89  1485.53  1503.94
                             1509.89  1544.25  1566.29  1598.16  1609.01
                             1644.07  1662.60  1671.46  1710.04  1716.22
                             1732.18  1748.00  1758.37  1772.12  1790.95
                             1838.87  1856.97  1884.96  1899.81  1915.53
                             1926.17  1956.80  1984.45  1986.19  2009.20
                             2015.59  2023.57  2032.14  2037.03  2062.31
                             2067.05  2092.75  2163.93  2176.41  2180.95
                             2187.17  2191.55  2203.68  2208.89  2214.18
                             2234.37  2324.99  2348.74  2407.11  2429.05
                             4251.16  4289.81  4329.04  4362.71  4375.10
                             4392.80  4407.05  4416.29  4417.28  4443.40
                             4467.19  4472.47  4478.09  4481.47  4497.61
                             4576.35  4593.31  4611.30  4638.03  4684.62
                             4975.95  5106.13

 Zero-point correction=                           0.360898 (Hartree/Particle)
 Thermal correction to Energy=                    0.378513
 Thermal correction to Enthalpy=                  0.379458
 Thermal correction to Gibbs Free Energy=         0.312160
 Sum of electronic and zero-point Energies=           -807.386051
 Sum of electronic and thermal Energies=              -807.368435
 Sum of electronic and thermal Enthalpies=            -807.367491
 Sum of electronic and thermal Free Energies=         -807.434789

                     E (Thermal)             CV                S
                      KCal/Mol        Cal/Mol-Kelvin    Cal/Mol-Kelvin
 Total                  237.521             68.100            141.640
 Electronic               0.000              0.000              0.000
 Translational            0.889              2.981             42.545
 Rotational               0.889              2.981             33.898
 Vibrational            235.743             62.138             65.197
 Vibration     1          0.593              1.986              7.171
 Vibration     2          0.593              1.985              6.403
 Vibration     3          0.594              1.984              5.838
 Vibration     4          0.595              1.979              4.970
 Vibration     5          0.597              1.973              4.400
 Vibration     6          0.600              1.963              3.899
 Vibration     7          0.608              1.937              3.189
 Vibration     8          0.610              1.930              3.061
 Vibration     9          0.627              1.874              2.386
 Vibration    10          0.635              1.849              2.194
 Vibration    11          0.654              1.791              1.857
 Vibration    12          0.660              1.769              1.759
 Vibration    13          0.672              1.735              1.621
 Vibration    14          0.683              1.703              1.508
 Vibration    15          0.700              1.651              1.351
 Vibration    16          0.717              1.605              1.233
 Vibration    17          0.746              1.524              1.060
 Vibration    18          0.777              1.442              0.916
 Vibration    19          0.787              1.416              0.875
 Vibration    20          0.799              1.386              0.831
 Vibration    21          0.851              1.260              0.669
 Vibration    22          0.887              1.179              0.582
 Vibration    23          0.896              1.159              0.563
 Vibration    24          0.936              1.077              0.487
 Vibration    25          0.956              1.036              0.453
 Vibration    26          0.962              1.024              0.444
 Vibration    27          0.977              0.996              0.421

 Optimization completed.
    -- Stationary point found.
 Normal termination of Gaussian 16 at Sun Dec 13 21:02:21 2020.

 ----------------------------------------------------------------------
 # B3LYP/6-311++G(d,p) empiricaldispersion=gd3bj scf=xqc pop=npa geom=c
 heck
 ----------------------------------------------------------------------

 --------------------------------------
 CID_65165519_JID_9679_Energie_neutraal
 --------------------------------------
 Structure from the checkpoint file:  "JID_9679.chk"
 Charge =  0 Multiplicity = 1

 SCF Done:  E(RB3LYP) =  -807.968399040     A.U. after   16 cycles
 Normal termination of Gaussian 16 at Sun Dec 13 21:10:41 2020.

 ----------------------------------------------------------------------
 # B3LYP/6-311++G(d,p) empiricaldispersion=gd3bj scf=xqc pop=npa geom=c
 heck
 ----------------------------------------------------------------------

 ------------------------------------
 CID_65165519_JID_9679_Energie_kation
 ------------------------------------
 Structure from the checkpoint file:  "JID_9679.chk"
 Charge =  1 Multiplicity = 2

 SCF Done:  E(UB3LYP) =  -807.707211673     A.U. after   24 cycles
 Normal termination of Gaussian 16 at Sun Dec 13 21:27:38 2020.
 Gaussian 16:  ES64L-G16RevA.03 25-Dec-2016

 ----------------------------------------------------------------------
 # B3LYP/6-311++G(d,p) empiricaldispersion=gd3bj scf=xqc pop=npa geom=c
 heck
 ----------------------------------------------------------------------

 -----------------------------------
 CID_65165519_JID_9679_Energie_anion
 -----------------------------------
 Structure from the checkpoint file:  "JID_9679.chk"
 Charge = -1 Multiplicity = 2

                         Standard orientation:
 ---------------------------------------------------------------------
 Center     Atomic      Atomic             Coordinates (Angstroms)
 Number     Number       Type             X           Y           Z
 ---------------------------------------------------------------------
      1          6           0        5.093426   -0.063661   -0.697595
      2          6           0        4.169087   -0.834021    0.259731
      3          6           0        2.826318   -0.065349    0.155808
      4          8           0        3.118052    1.173930   -0.514298
      5          6           0        4.528233    1.350672   -0.580233
      6          6           0        1.745820   -0.785039   -0.649306
      7          6           0        1.123921   -1.997866    0.053327
      8          6           0        0.304567   -1.651054    1.308665
      9          7           0       -0.747197   -0.685039    1.050742
     10          6           0       -0.650611    0.683771    1.253119
     11          6           0       -1.728083    1.331288    0.704115
     12          6           0       -2.545838    0.312288    0.091790
     13          6           0       -3.752692    0.335134   -0.625150
     14          6           0       -4.282104   -0.864548   -1.084300
     15          6           0       -3.627601   -2.090009   -0.845136
     16          6           0       -2.428055   -2.142735   -0.143548
     17          6           0       -1.899820   -0.933932    0.322785
     18          6           0       -2.006022    2.800971    0.756193
     19          7           0       -2.274030    3.329235   -0.591523
     20          1           0        6.151422   -0.134102   -0.427691
     21          1           0        4.974996   -0.426254   -1.724666
     22          1           0        4.559938   -0.792661    1.282168
     23          1           0        4.063748   -1.889066   -0.010409
     24          1           0        2.450098    0.171611    1.161512
     25          1           0        4.905375    1.847128    0.330202
     26          1           0        4.744882    1.994088   -1.438167
     27          1           0        0.961236   -0.060171   -0.891914
     28          1           0        2.184851   -1.101455   -1.604111
     29          1           0        0.467951   -2.513985   -0.656492
     30          1           0        1.899758   -2.720025    0.342704
     31          1           0       -0.148758   -2.560944    1.718781
     32          1           0        0.943575   -1.235204    2.093262
     33          1           0        0.194514    1.090599    1.792255
     34          1           0       -4.236828    1.283850   -0.830779
     35          1           0       -5.213081   -0.861716   -1.644352
     36          1           0       -4.064708   -3.011094   -1.220609
     37          1           0       -1.926438   -3.089247    0.035607
     38          1           0       -2.906211    2.993767    1.356992
     39          1           0       -1.169682    3.298854    1.279343
     40          1           0       -2.395959    4.340020   -0.544832
     41          1           0       -1.459780    3.159729   -1.180539
 ---------------------------------------------------------------------

 SCF Done:  E(UB3LYP) =  -807.957704187     A.U. after   33 cycles
 SCF Done:  E(UB3LYP) =  -807.957704187     a.u. after    1 cycles

 The electronic state is 2-A.
 Alpha  occ. eigenvalues --  -19.02402 -14.26123 -14.20455 -10.12297 -10.12037
 Alpha  occ. eigenvalues --  -10.11816 -10.10811 -10.10675 -10.10329 -10.08145
 Alpha  occ. eigenvalues --  -10.08068 -10.07902 -10.07835 -10.07505 -10.07458
 Alpha  occ. eigenvalues --  -10.07433 -10.07424 -10.07114 -10.06939  -0.94207
 Alpha  occ. eigenvalues --   -0.89272  -0.79454  -0.75425  -0.72231  -0.69649
 Alpha  occ. eigenvalues --   -0.68496  -0.65680  -0.63625  -0.63165  -0.59693
 Alpha  occ. eigenvalues --   -0.55955  -0.53437  -0.51542  -0.50535  -0.48770
 Alpha  occ. eigenvalues --   -0.47096  -0.46447  -0.42227  -0.40732  -0.40234
 Alpha  occ. eigenvalues --   -0.39921  -0.38939  -0.38182  -0.37623  -0.36352
 Alpha  occ. eigenvalues --   -0.35646  -0.34696  -0.33514  -0.33329  -0.32248
 Alpha  occ. eigenvalues --   -0.31879  -0.30814  -0.30438  -0.29571  -0.28659
 Alpha  occ. eigenvalues --   -0.27637  -0.27023  -0.26411  -0.26184  -0.25372
 Alpha  occ. eigenvalues --   -0.24402  -0.23980  -0.23895  -0.23003  -0.22189
 Alpha  occ. eigenvalues --   -0.18285  -0.16021  -0.15568  -0.13309  -0.11180
 Alpha  occ. eigenvalues --    0.04005
 Alpha virt. eigenvalues --    0.05811   0.06188   0.06624   0.07195   0.07395
 Alpha virt. eigenvalues --    0.08158   0.08675   0.08798   0.09007   0.09650
 Alpha virt. eigenvalues --    0.09998   0.10184   0.10449   0.11032   0.11487

  Beta  occ. eigenvalues --  -19.02399 -14.26121 -14.20438 -10.12288 -10.12019
  Beta  occ. eigenvalues --  -10.11789 -10.10814 -10.10663 -10.10283 -10.08126
  Beta  occ. eigenvalues --  -10.08054 -10.07889 -10.07817 -10.07497 -10.07455
  Beta  occ. eigenvalues --  -10.07414 -10.07402 -10.07110 -10.06936  -0.94196
  Beta  occ. eigenvalues --   -0.89251  -0.79424  -0.75401  -0.72198  -0.69616
  Beta  occ. eigenvalues --   -0.68463  -0.65648  -0.63592  -0.63123  -0.59650
  Beta  occ. eigenvalues --   -0.55913  -0.53396  -0.51484  -0.50476  -0.48741
  Beta  occ. eigenvalues --   -0.47066  -0.46410  -0.42184  -0.40686  -0.40204
  Beta  occ. eigenvalues --   -0.39885  -0.38904  -0.38146  -0.37586  -0.36321
  Beta  occ. eigenvalues --   -0.35614  -0.34665  -0.33489  -0.33301  -0.32222
  Beta  occ. eigenvalues --   -0.31847  -0.30786  -0.30398  -0.29546  -0.28636
  Beta  occ. eigenvalues --   -0.27603  -0.26998  -0.26382  -0.26145  -0.25346
  Beta  occ. eigenvalues --   -0.24386  -0.23946  -0.23846  -0.22950  -0.22164
  Beta  occ. eigenvalues --   -0.18216  -0.15989  -0.15542  -0.13231  -0.11083
  Beta virt. eigenvalues --    0.05972   0.06486   0.06672   0.06911   0.07657
  Beta virt. eigenvalues --    0.07784   0.08457   0.08917   0.09108   0.09307
  Beta virt. eigenvalues --    0.09893   0.10086   0.10458   0.10789   0.11175

 Mulliken charges and spin densities:
               1          2
     1  C    0.168975  -0.552451
     2  C    0.488635  -0.913416
     3  C   -1.114750   0.971307
     4  O   -0.095134   0.016087
     5  C    0.395685  -0.566702
     6  C    0.678789  -0.940713
     7  C   -0.318593   0.166750
     8  C    0.174110  -0.536116
     9  N    0.298499   0.030085
    10  C    0.051766  -0.216144
    11  C    0.226875   0.528606
    12  C    0.392494  -0.012426
    13  C   -0.254877  -0.059750
    14  C   -0.619525   0.012306
    15  C    0.000295  -0.231395
    16  C   -0.173719  -0.165976
    17  C   -0.232894   0.022547
    18  C    0.442491  -1.300188
    19  N   -0.434807   0.077264
    20  H   -0.151169   0.307193
    21  H    0.052832   0.067366
    22  H   -0.631754   0.823738
    23  H   -0.019219   0.139648
    24  H    0.501447  -0.362613
    25  H   -0.137816   0.262491
    26  H   -0.037004   0.194586
    27  H    0.299309  -0.095913
    28  H    0.065319   0.111894
    29  H    0.050190   0.094263
    30  H   -0.255033   0.405430
    31  H   -0.340310   0.535244
    32  H   -0.541614   0.728940
    33  H   -0.424529   0.605116
    34  H    0.159906   0.026518
    35  H    0.110427   0.015844
    36  H    0.091315   0.061060
    37  H   -0.052684   0.188164
    38  H   -0.014279   0.171420
    39  H   -0.049730   0.208070
    40  H    0.103782   0.121017
    41  H    0.146299   0.060850
 Sum of Mulliken charges =  -1.00000   1.00000

 Dipole moment (field-independent basis, Debye):
    X=             -4.3366    Y=              0.4112    Z=             -4.0418  Tot=              5.9423
 Quadrupole moment (field-independent basis, Debye-Ang):
   XX=           -205.3186   YY=           -161.5441   ZZ=           -154.2246
   XY=              5.3787   XZ=            -10.5975   YZ=              6.1272

 Summary of Natural Population Analysis:

                                       Natural Population
                Natural  -----------------------------------------------
    Atom  No    Charge         Core      Valence    Rydberg      Total
 -----------------------------------------------------------------------
      C    1   -0.20448      0.99964     2.19693    0.00791     3.20448
      C    2   -0.20392      0.99962     2.19546    0.00885     3.20392
      C    3    0.06471      0.99955     1.92097    0.01477     2.93529
      O    4   -0.30414      0.99989     3.29584    0.00841     4.30414
      C    5   -0.00846      0.99960     1.99654    0.01233     3.00846
      C    6   -0.19900      0.99959     2.19028    0.00913     3.19900
      C    7   -0.19599      0.99961     2.18831    0.00806     3.19599
      C    8   -0.08191      0.99961     2.07018    0.01213     3.08191
      N    9   -0.21251      0.99962     2.70198    0.01091     3.71251
      C   10    0.02105      0.99948     1.96778    0.01169     2.97895
      C   11   -0.06295      0.99948     2.05298    0.01048     3.06295
      C   12   -0.04062      0.99946     2.03122    0.00993     3.04062
      C   13   -0.08906      0.99953     2.08090    0.00862     3.08906
      C   14   -0.12186      0.99958     2.11234    0.00994     3.12186
      C   15   -0.10776      0.99958     2.09874    0.00943     3.10776
      C   16   -0.11981      0.99952     2.11092    0.00936     3.11981
      C   17    0.08472      0.99947     1.90505    0.01076     2.91528
      C   18   -0.09292      0.99960     2.08207    0.01125     3.09292
      N   19   -0.42146      0.99978     2.91148    0.01020     3.92146
      H   20    0.10373      0.00000     0.39502    0.00125     0.39627
      H   21    0.09470      0.00000     0.40414    0.00117     0.40530
      H   22    0.10398      0.00000     0.39349    0.00253     0.39602
      H   23    0.10318      0.00000     0.39551    0.00132     0.39682
      H   24    0.08245      0.00000     0.41510    0.00245     0.41755
      H   25    0.07758      0.00000     0.42099    0.00143     0.42242
      H   26    0.08801      0.00000     0.41087    0.00112     0.41199
      H   27    0.10770      0.00000     0.39063    0.00167     0.39230
      H   28    0.09813      0.00000     0.40066    0.00122     0.40187
      H   29    0.10000      0.00000     0.39882    0.00119     0.40000
      H   30    0.10131      0.00000     0.39725    0.00144     0.39869
      H   31    0.10183      0.00000     0.39660    0.00157     0.39817
      H   32    0.10338      0.00000     0.39453    0.00208     0.39662
      H   33    0.10402      0.00000     0.39457    0.00141     0.39598
      H   34    0.10830      0.00000     0.39052    0.00118     0.39170
      H   35    0.09637      0.00000     0.40288    0.00075     0.40363
      H   36    0.09685      0.00000     0.40241    0.00074     0.40315
      H   37    0.10365      0.00000     0.39529    0.00106     0.39635
      H   38    0.09118      0.00000     0.40753    0.00129     0.40882
      H   39    0.08448      0.00000     0.41378    0.00174     0.41552
      H   40    0.17150      0.00000     0.32677    0.00173     0.32850
      H   41    0.17403      0.00000     0.32424    0.00174     0.32597
 =======================================================================
   * Total *    0.00000     18.99223    50.78155    0.22622    70.00000

 Normal termination of Gaussian 16 at Sun Dec 13 21:51:26 2020.
