 Gaussian 16, Revision A.03,

 -----------------------------------------------------------
 # opt freq B3LYP/6-31G(d) empiricaldispersion=gd3bj scf=xqc
 -----------------------------------------------------------

 ------------------------------
 CID_82745171_JID_8473_neutraal
 ------------------------------
 Symbolic Z-matrix:
 Charge =  0 Multiplicity = 1

 SCF Done:  E(RB3LYP) =  -1561.51137149     A.U. after   15 cycles
 SCF Done:  E(RB3LYP) =  -1561.52617948     A.U. after   12 cycles
 SCF Done:  E(RB3LYP) =  -1561.52842061     A.U. after   12 cycles
 SCF Done:  E(RB3LYP) =  -1561.52924862     A.U. after   12 cycles
 SCF Done:  E(RB3LYP) =  -1561.52997609     A.U. after   13 cycles
 SCF Done:  E(RB3LYP) =  -1561.53086010     A.U. after   12 cycles
 SCF Done:  E(RB3LYP) =  -1561.53199714     A.U. after   14 cycles
 SCF Done:  E(RB3LYP) =  -1561.53239738     A.U. after   14 cycles
 SCF Done:  E(RB3LYP) =  -1561.53236056     A.U. after   13 cycles
 SCF Done:  E(RB3LYP) =  -1561.53273492     A.U. after   12 cycles
 SCF Done:  E(RB3LYP) =  -1561.53285589     A.U. after   11 cycles
 SCF Done:  E(RB3LYP) =  -1561.53285973     A.U. after   10 cycles
 SCF Done:  E(RB3LYP) =  -1561.53285947     A.U. after    9 cycles
 SCF Done:  E(RB3LYP) =  -1561.53286135     A.U. after    9 cycles
 SCF Done:  E(RB3LYP) =  -1561.53286172     A.U. after    8 cycles
 SCF Done:  E(RB3LYP) =  -1561.53286181     A.U. after    7 cycles
 Optimization completed.
    -- Stationary point found.
 Normal termination of Gaussian 16 at Fri Dec 11 20:54:12 2020.

 --------------------------------------------------------------------
 #N Geom=AllCheck Guess=TCheck SCRF=Check GenChk RB3LYP/6-31G(d) Freq
 --------------------------------------------------------------------

 Structure from the checkpoint file:  "JID_8473.chk"
 ------------------------------
 CID_82745171_JID_8473_neutraal
 ------------------------------
 Charge =  0 Multiplicity = 1

 SCF Done:  E(RB3LYP) =  -1561.53286181     A.U. after    1 cycles

  Exact polarizability: 223.087   7.384 159.030  -1.669   3.313 122.205
 Approx polarizability: 289.853   4.962 272.159  -7.237  13.471 196.823

                      1                      2                      3
                      A                      A                      A
 Frequencies --     30.0044                36.5354                54.2525
 Red. masses --      4.6901                 4.5681                 4.0964
 Frc consts  --      0.0025                 0.0036                 0.0071
 IR Inten    --      0.2082                 0.1520                 1.4747

                      4                      5                      6
                      A                      A                      A
 Frequencies --     67.0111                68.1817                93.1193
 Red. masses --      4.0837                 2.9172                 2.5642
 Frc consts  --      0.0108                 0.0080                 0.0131
 IR Inten    --      1.4087                 1.9090                 4.5117

                      7                      8                      9
                      A                      A                      A
 Frequencies --    110.5422               131.8415               153.9293
 Red. masses --      1.2103                 4.0963                 3.9390
 Frc consts  --      0.0087                 0.0420                 0.0550
 IR Inten    --      0.9685                 2.5589                 1.9290

                     10                     11                     12
                      A                      A                      A
 Frequencies --    172.5736               184.8628               209.5705
 Red. masses --      4.0887                 3.9903                 1.6223
 Frc consts  --      0.0717                 0.0803                 0.0420
 IR Inten    --      6.6456                 1.3651                 0.8956

                     13                     14                     15
                      A                      A                      A
 Frequencies --    217.7810               237.6592               249.8721
 Red. masses --      1.9511                 4.9808                 2.6651
 Frc consts  --      0.0545                 0.1658                 0.0980
 IR Inten    --      0.3517                 1.9628                19.1881

                     16                     17                     18
                      A                      A                      A
 Frequencies --    263.6232               285.7902               302.9386
 Red. masses --      4.0915                 2.4618                 2.3381
 Frc consts  --      0.1675                 0.1185                 0.1264
 IR Inten    --      3.1079                14.6067                 9.9766

                     19                     20                     21
                      A                      A                      A
 Frequencies --    316.8373               342.7072               350.9792
 Red. masses --      2.2555                 2.3949                 4.3116
 Frc consts  --      0.1334                 0.1657                 0.3129
 IR Inten    --     10.8091                18.5274                 2.5660

                     22                     23                     24
                      A                      A                      A
 Frequencies --    380.2218               435.3179               458.3039
 Red. masses --      5.5567                 4.0415                 4.4695
 Frc consts  --      0.4733                 0.4512                 0.5531
 IR Inten    --      6.7701                26.7098                 2.0580

                     25                     26                     27
                      A                      A                      A
 Frequencies --    477.7500               498.8755               515.6542
 Red. masses --      6.8742                 4.5142                 4.5904
 Frc consts  --      0.9244                 0.6619                 0.7192
 IR Inten    --      8.8150                 4.1667                17.4529

                     28                     29                     30
                      A                      A                      A
 Frequencies --    568.6616               585.4926               613.1810
 Red. masses --      6.3504                 4.8506                 4.0950
 Frc consts  --      1.2099                 0.9797                 0.9072
 IR Inten    --     22.7302                59.1904                68.4901

                     31                     32                     33
                      A                      A                      A
 Frequencies --    639.7730               655.7098               682.8221
 Red. masses --      5.2174                 2.9831                 4.5358
 Frc consts  --      1.2582                 0.7557                 1.2460
 IR Inten    --     16.6586                 5.3852                 4.0948

                     34                     35                     36
                      A                      A                      A
 Frequencies --    710.7383               714.2334               831.4201
 Red. masses --      4.9478                 5.9554                 2.3473
 Frc consts  --      1.4726                 1.7899                 0.9560
 IR Inten    --     56.6975                48.2263                20.2359

                     37                     38                     39
                      A                      A                      A
 Frequencies --    851.3699               852.7438               876.8621
 Red. masses --      1.9197                 1.7744                 1.3365
 Frc consts  --      0.8198                 0.7602                 0.6054
 IR Inten    --    103.7238                52.1570                59.4647

                     40                     41                     42
                      A                      A                      A
 Frequencies --    886.9863               946.5968               968.1496
 Red. masses --      2.1007                 2.9133                 2.7542
 Frc consts  --      0.9737                 1.5380                 1.5210
 IR Inten    --     15.4403                 3.7266                13.0499

                     43                     44                     45
                      A                      A                      A
 Frequencies --    984.6541               997.8091              1041.5327
 Red. masses --      1.6111                 2.5890                 2.0439
 Frc consts  --      0.9203                 1.5187                 1.3064
 IR Inten    --     34.0340                59.4682                10.9267

                     46                     47                     48
                      A                      A                      A
 Frequencies --   1042.2427              1060.3838              1068.7278
 Red. masses --      1.9472                 1.4268                 3.1309
 Frc consts  --      1.2462                 0.9452                 2.1069
 IR Inten    --     21.0646                 1.2926                 2.9029

                     49                     50                     51
                      A                      A                      A
 Frequencies --   1082.0810              1113.1694              1117.7810
 Red. masses --      3.1424                 3.3228                 7.2893
 Frc consts  --      2.1678                 2.4259                 5.3660
 IR Inten    --      1.6042                45.3457               109.1568

                     52                     53                     54
                      A                      A                      A
 Frequencies --   1127.5673              1150.9505              1166.1686
 Red. masses --      2.6923                 1.8830                 1.6293
 Frc consts  --      2.0168                 1.4697                 1.3055
 IR Inten    --    100.1847                10.6305                38.7782

                     55                     56                     57
                      A                      A                      A
 Frequencies --   1176.5571              1188.6275              1194.4125
 Red. masses --      2.0074                 2.1389                 1.6405
 Frc consts  --      1.6372                 1.7805                 1.3789
 IR Inten    --     14.3641                13.5330                 1.6332

                     58                     59                     60
                      A                      A                      A
 Frequencies --   1216.5873              1221.8264              1246.4081
 Red. masses --      2.8571                 1.5987                 1.2360
 Frc consts  --      2.4915                 1.4061                 1.1313
 IR Inten    --     10.8565                15.4455                 9.9406

                     61                     62                     63
                      A                      A                      A
 Frequencies --   1262.9128              1283.8443              1301.5734
 Red. masses --      1.4818                 1.3701                 7.0437
 Frc consts  --      1.3925                 1.3305                 7.0305
 IR Inten    --     38.4440                 6.0533               130.2878

                     64                     65                     66
                      A                      A                      A
 Frequencies --   1315.1166              1325.2920              1339.1052
 Red. masses --      1.6450                 1.2420                 1.2723
 Frc consts  --      1.6763                 1.2853                 1.3443
 IR Inten    --     67.9723                 3.7888                 0.4118

                     67                     68                     69
                      A                      A                      A
 Frequencies --   1374.1416              1378.1929              1401.5911
 Red. masses --      2.3348                 1.2259                 1.2583
 Frc consts  --      2.5975                 1.3719                 1.4564
 IR Inten    --     18.1356                 3.8144                18.0574

                     70                     71                     72
                      A                      A                      A
 Frequencies --   1434.0506              1434.5543              1440.9093
 Red. masses --      1.4305                 1.3470                 1.2514
 Frc consts  --      1.7333                 1.6333                 1.5308
 IR Inten    --     38.1614                 0.4571                 1.6747

                     73                     74                     75
                      A                      A                      A
 Frequencies --   1485.0940              1501.0744              1514.1197
 Red. masses --      1.1607                 1.0460                 1.0939
 Frc consts  --      1.5083                 1.3886                 1.4776
 IR Inten    --      1.9998                 5.5430                 4.1500

                     76                     77                     78
                      A                      A                      A
 Frequencies --   1521.7029              1525.0399              1529.5209
 Red. masses --      1.0563                 1.1658                 1.0884
 Frc consts  --      1.4411                 1.5975                 1.5002
 IR Inten    --      6.4013                31.6459                 0.1757

                     79                     80                     81
                      A                      A                      A
 Frequencies --   1533.4654              1536.1379              1542.9017
 Red. masses --      1.0552                 1.0830                 4.6718
 Frc consts  --      1.4619                 1.5057                 6.5526
 IR Inten    --      5.8212                 0.4076                10.2752

                     82                     83                     84
                      A                      A                      A
 Frequencies --   1552.0306              1605.8774              1693.5921
 Red. masses --      1.1035                 6.7815                 1.0940
 Frc consts  --      1.5661                10.3039                 1.8488
 IR Inten    --      2.3189                 6.1145                34.2943

                     85                     86                     87
                      A                      A                      A
 Frequencies --   2975.4726              3040.9017              3046.1480
 Red. masses --      1.0717                 1.0649                 1.0526
 Frc consts  --      5.5902                 5.8019                 5.7545
 IR Inten    --     60.7923                24.0237                57.6112

                     88                     89                     90
                      A                      A                      A
 Frequencies --   3047.2362              3051.4363              3061.8949
 Red. masses --      1.0542                 1.0897                 1.0348
 Frc consts  --      5.7675                 5.9780                 5.7162
 IR Inten    --     13.4921                27.7651                11.5779

                     91                     92                     93
                      A                      A                      A
 Frequencies --   3078.7196              3094.3195              3120.1426
 Red. masses --      1.0781                 1.0800                 1.0982
 Frc consts  --      6.0209                 6.0925                 6.2992
 IR Inten    --      5.1016                24.8434                38.5999

                     94                     95                     96
                      A                      A                      A
 Frequencies --   3122.3362              3125.4833              3130.4087
 Red. masses --      1.0995                 1.1012                 1.0995
 Frc consts  --      6.3157                 6.3382                 6.3481
 IR Inten    --     21.3738                 2.8705                53.6405

                     97                     98                     99
                      A                      A                      A
 Frequencies --   3144.2001              3151.2922              3183.7791
 Red. masses --      1.1035                 1.1031                 1.0954
 Frc consts  --      6.4275                 6.4545                 6.5417
 IR Inten    --     10.7775                16.0920                 9.0706

                    100                    101                    102
                      A                      A                      A
 Frequencies --   3245.1773              3478.9693              3569.2100
 Red. masses --      1.0934                 1.0496                 1.0935
 Frc consts  --      6.7841                 7.4848                 8.2078
 IR Inten    --      2.8196                 0.6299                 0.2456

 - Thermochemistry -
 -------------------
 Temperature   298.150 Kelvin.  Pressure   1.00000 Atm.
 Atom     1 has atomic number  6 and mass  12.00000

 Molecular mass:   290.07589 amu.
 Principal axes and moments of inertia in atomic units:
                           1         2         3
     Eigenvalues --  1979.196859729.48938**********
           X            0.99991   0.01353   0.00186
           Y           -0.01346   0.99932  -0.03427
           Z           -0.00232   0.03424   0.99941
 This molecule is an asymmetric top.
 Rotational symmetry number  1.
 Warning -- assumption of classical behavior for rotation
           may cause significant error
 Rotational temperatures (Kelvin)      0.04376     0.00890     0.00833
 Rotational constants (GHZ):           0.91186     0.18549     0.17366
 Zero-point vibrational energy     775945.3 (Joules/Mol)
                                  185.45539 (Kcal/Mol)
 Warning -- explicit consideration of  30 degrees of freedom as
           vibrations may cause significant error
 Vibrational temperatures:     43.17    52.57    78.06    96.41    98.10
          (Kelvin)            133.98   159.05   189.69   221.47   248.29
                              265.98   301.53   313.34   341.94   359.51
                              379.30   411.19   435.86   455.86   493.08
                              504.98   547.05   626.33   659.40   687.38
                              717.77   741.91   818.18   842.39   882.23
                              920.49   943.42   982.43  1022.59  1027.62
                             1196.23  1224.93  1226.91  1261.61  1276.18
                             1361.94  1392.95  1416.70  1435.62  1498.53
                             1499.55  1525.66  1537.66  1556.87  1601.60
                             1608.24  1622.32  1655.96  1677.86  1692.80
                             1710.17  1718.49  1750.40  1757.94  1793.30
                             1817.05  1847.17  1872.67  1892.16  1906.80
                             1926.67  1977.08  1982.91  2016.58  2063.28
                             2064.00  2073.15  2136.72  2159.71  2178.48
                             2189.39  2194.19  2200.64  2206.31  2210.16
                             2219.89  2233.03  2310.50  2436.70  4281.04
                             4375.18  4382.73  4384.29  4390.34  4405.38
                             4429.59  4452.04  4489.19  4492.35  4496.87
                             4503.96  4523.80  4534.01  4580.75  4669.09
                             5005.46  5135.30

 Zero-point correction=                           0.295542 (Hartree/Particle)
 Thermal correction to Energy=                    0.314662
 Thermal correction to Enthalpy=                  0.315606
 Thermal correction to Gibbs Free Energy=         0.247176
 Sum of electronic and zero-point Energies=          -1561.237320
 Sum of electronic and thermal Energies=             -1561.218200
 Sum of electronic and thermal Enthalpies=           -1561.217256
 Sum of electronic and thermal Free Energies=        -1561.285686

                     E (Thermal)             CV                S
                      KCal/Mol        Cal/Mol-Kelvin    Cal/Mol-Kelvin
 Total                  197.453             70.649            144.023
 Electronic               0.000              0.000              0.000
 Translational            0.889              2.981             42.892
 Rotational               0.889              2.981             33.659
 Vibrational            195.676             64.687             67.471
 Vibration     1          0.594              1.984              5.829
 Vibration     2          0.594              1.982              5.439
 Vibration     3          0.596              1.976              4.656
 Vibration     4          0.598              1.970              4.239
 Vibration     5          0.598              1.969              4.205
 Vibration     6          0.602              1.954              3.593
 Vibration     7          0.606              1.941              3.259
 Vibration     8          0.612              1.922              2.919
 Vibration     9          0.619              1.898              2.623
 Vibration    10          0.626              1.876              2.407
 Vibration    11          0.631              1.860              2.279
 Vibration    12          0.642              1.826              2.047
 Vibration    13          0.646              1.814              1.977
 Vibration    14          0.656              1.783              1.820
 Vibration    15          0.663              1.763              1.731
 Vibration    16          0.670              1.740              1.638
 Vibration    17          0.684              1.700              1.499
 Vibration    18          0.694              1.668              1.401
 Vibration    19          0.704              1.641              1.326
 Vibration    20          0.722              1.590              1.200
 Vibration    21          0.728              1.573              1.162
 Vibration    22          0.750              1.512              1.038
 Vibration    23          0.796              1.393              0.841
 Vibration    24          0.816              1.343              0.771
 Vibration    25          0.834              1.299              0.716
 Vibration    26          0.854              1.253              0.661
 Vibration    27          0.871              1.215              0.620
 Vibration    28          0.925              1.099              0.507
 Vibration    29          0.943              1.063              0.475
 Vibration    30          0.972              1.004              0.428

                           ! Non-Optimized Parameters !
 Normal termination of Gaussian 16 at Fri Dec 11 21:10:53 2020.

 ----------------------------------------------------------------------
 # B3LYP/6-311++G(d,p) empiricaldispersion=gd3bj scf=xqc pop=npa geom=c
 heck
 ----------------------------------------------------------------------

 --------------------------------------
 CID_82745171_JID_8473_Energie_neutraal
 --------------------------------------
 Structure from the checkpoint file:  "JID_8473.chk"
 Charge =  0 Multiplicity = 1

 SCF Done:  E(RB3LYP) =  -1561.80819702     A.U. after   17 cycles
 Normal termination of Gaussian 16 at Fri Dec 11 21:19:53 2020.

 ----------------------------------------------------------------------
 # B3LYP/6-311++G(d,p) empiricaldispersion=gd3bj scf=xqc pop=npa geom=c
 heck
 ----------------------------------------------------------------------

 ------------------------------------
 CID_82745171_JID_8473_Energie_kation
 ------------------------------------
 Structure from the checkpoint file:  "JID_8473.chk"
 Charge =  1 Multiplicity = 2

 SCF Done:  E(UB3LYP) =  -1561.51006986     A.U. after   29 cycles
 Normal termination of Gaussian 16 at Fri Dec 11 21:42:26 2020.
 Gaussian 16:  ES64L-G16RevA.03 25-Dec-2016

 ----------------------------------------------------------------------
 # B3LYP/6-311++G(d,p) empiricaldispersion=gd3bj scf=xqc pop=npa geom=c
 heck
 ----------------------------------------------------------------------

 -----------------------------------
 CID_82745171_JID_8473_Energie_anion
 -----------------------------------
 Structure from the checkpoint file:  "JID_8473.chk"
 Charge = -1 Multiplicity = 2

                         Standard orientation:
 ---------------------------------------------------------------------
 Center     Atomic      Atomic             Coordinates (Angstroms)
 Number     Number       Type             X           Y           Z
 ---------------------------------------------------------------------
      1          6           0       -0.543530    2.448055    0.168660
      2          6           0       -1.402714    1.241709   -0.050732
      3          6           0       -1.023008   -0.041701   -0.369541
      4          6           0       -2.104714   -0.969816   -0.490689
      5          6           0       -3.317622   -0.384278   -0.265790
      6         16           0       -3.131995    1.315129    0.115978
      7          6           0       -4.688893   -0.984776   -0.350792
      8          7           0       -5.567564   -0.389855    0.659000
      9         16           0        0.657382   -0.532720   -0.637142
     10          8           0        0.633993   -1.966500   -0.965254
     11          8           0        1.321129    0.408243   -1.547131
     12          7           0        1.325142   -0.269002    0.908325
     13          6           0        0.831848   -1.247624    1.889249
     14          6           0        2.785532   -0.032602    0.984656
     15          6           0        3.286127    1.323900    0.418281
     16          6           0        4.385065    0.905101   -0.570394
     17          8           0        4.863579   -0.352786   -0.085699
     18          6           0        3.704083   -1.076936    0.286221
     19          1           0       -1.141870    3.320622    0.443214
     20          1           0        0.183771    2.252904    0.963781
     21          1           0        0.019829    2.679979   -0.740735
     22          1           0       -1.959426   -2.013006   -0.742961
     23          1           0       -5.129281   -0.762725   -1.331939
     24          1           0       -4.583982   -2.082076   -0.294584
     25          1           0       -6.525959   -0.703088    0.521811
     26          1           0       -5.283158   -0.690283    1.589630
     27          1           0        1.239901   -2.254007    1.733230
     28          1           0        1.107093   -0.891575    2.885622
     29          1           0       -0.258122   -1.299061    1.836134
     30          1           0        2.986242   -0.053586    2.058695
     31          1           0        3.703740    1.926914    1.229991
     32          1           0        2.487955    1.886505   -0.061950
     33          1           0        3.966516    0.790126   -1.579212
     34          1           0        5.236712    1.588578   -0.606275
     35          1           0        4.011936   -1.892513    0.946001
     36          1           0        3.206210   -1.508095   -0.593211
 ---------------------------------------------------------------------

 SCF Done:  E(UB3LYP) =  -1561.80716607     A.U. after   31 cycles

 The electronic state is 2-A.
 Alpha  occ. eigenvalues --  -88.95535 -88.75613 -19.03874 -19.01160 -19.00967
 Alpha  occ. eigenvalues --  -14.24959 -14.19333 -10.13003 -10.12677 -10.12549
 Alpha  occ. eigenvalues --  -10.11260 -10.09997 -10.08864 -10.08501 -10.08157
 Alpha  occ. eigenvalues --  -10.08094 -10.07189 -10.06776  -8.01689  -7.84229
 Alpha  occ. eigenvalues --   -5.97979  -5.97946  -5.97769  -5.80516  -5.80145
 Alpha  occ. eigenvalues --   -5.79847  -1.01273  -0.95803  -0.90236  -0.84233
 Alpha  occ. eigenvalues --   -0.79240  -0.76744  -0.69303  -0.66642  -0.65470
 Alpha  occ. eigenvalues --   -0.64442  -0.60738  -0.59772  -0.56139  -0.53282
 Alpha  occ. eigenvalues --   -0.51789  -0.49145  -0.44459  -0.43889  -0.42263
 Alpha  occ. eigenvalues --   -0.41154  -0.40292  -0.39078  -0.38380  -0.37005
 Alpha  occ. eigenvalues --   -0.36192  -0.35855  -0.35322  -0.33648  -0.32792
 Alpha  occ. eigenvalues --   -0.32457  -0.32231  -0.31996  -0.31326  -0.29032
 Alpha  occ. eigenvalues --   -0.28576  -0.28147  -0.27275  -0.26089  -0.25836
 Alpha  occ. eigenvalues --   -0.24927  -0.24684  -0.24458  -0.23552  -0.21993
 Alpha  occ. eigenvalues --   -0.20769  -0.19764  -0.17880  -0.16039  -0.14932
 Alpha  occ. eigenvalues --   -0.14433  -0.12115   0.03875
 Alpha virt. eigenvalues --    0.05535   0.06466   0.07239   0.08093   0.08376
 Alpha virt. eigenvalues --    0.08941   0.09233   0.09775   0.10543   0.10806
 Alpha virt. eigenvalues --    0.11169   0.11602   0.12033   0.12277   0.12984

  Beta  occ. eigenvalues --  -88.95523 -88.75573 -19.03872 -19.01144 -19.00941
  Beta  occ. eigenvalues --  -14.24948 -14.19275 -10.12993 -10.12672 -10.12545
  Beta  occ. eigenvalues --  -10.11251 -10.09981 -10.08480 -10.08411 -10.08168
  Beta  occ. eigenvalues --  -10.08087 -10.07212 -10.06786  -8.01677  -7.84191
  Beta  occ. eigenvalues --   -5.97956  -5.97921  -5.97761  -5.80501  -5.80129
  Beta  occ. eigenvalues --   -5.79716  -1.01210  -0.95798  -0.90191  -0.84197
  Beta  occ. eigenvalues --   -0.79090  -0.76513  -0.69272  -0.66389  -0.65377
  Beta  occ. eigenvalues --   -0.64336  -0.60674  -0.59641  -0.56081  -0.53188
  Beta  occ. eigenvalues --   -0.51745  -0.48959  -0.44357  -0.43758  -0.42187
  Beta  occ. eigenvalues --   -0.41114  -0.40158  -0.39022  -0.38317  -0.36970
  Beta  occ. eigenvalues --   -0.36148  -0.35804  -0.35212  -0.33617  -0.32681
  Beta  occ. eigenvalues --   -0.32201  -0.32058  -0.31923  -0.31238  -0.28943
  Beta  occ. eigenvalues --   -0.28553  -0.28009  -0.27253  -0.26028  -0.25723
  Beta  occ. eigenvalues --   -0.24671  -0.24552  -0.24355  -0.23450  -0.21935
  Beta  occ. eigenvalues --   -0.20695  -0.19696  -0.17859  -0.15900  -0.14807
  Beta  occ. eigenvalues --   -0.14057  -0.11122
  Beta virt. eigenvalues --    0.05785   0.06882   0.07241   0.07965   0.08371
  Beta virt. eigenvalues --    0.08586   0.09235   0.09457   0.10081   0.10559
  Beta virt. eigenvalues --    0.10888   0.11298   0.11761   0.12071   0.12446

 Mulliken charges and spin densities:
               1          2
     1  C   -0.351043  -0.183482
     2  C    0.114843   0.018506
     3  C   -0.822953   0.033815
     4  C    0.077436   0.283586
     5  C   -0.190692   0.780715
     6  S   -0.546882  -0.048398
     7  C    1.184023  -1.536635
     8  N   -0.368495   0.015912
     9  S    0.373561  -0.276635
    10  O   -0.066820   0.023756
    11  O   -0.105658  -0.022733
    12  N    0.037593   0.060709
    13  C   -0.131870  -0.262084
    14  C   -0.721356   0.279634
    15  C    0.256290  -0.255418
    16  C   -0.407446  -0.073803
    17  O   -0.121229  -0.001294
    18  C   -0.071885  -0.203570
    19  H    0.079170   0.069216
    20  H    0.164858   0.007093
    21  H    0.089763   0.138353
    22  H    0.200316  -0.019067
    23  H   -0.216389   0.402892
    24  H   -0.185437   0.351694
    25  H   -0.207545   0.444163
    26  H    0.000240   0.207673
    27  H    0.142202   0.053790
    28  H   -0.044896   0.209966
    29  H    0.144550   0.029043
    30  H   -0.066958   0.203439
    31  H   -0.026897   0.178344
    32  H    0.190688  -0.084244
    33  H    0.157136   0.028059
    34  H    0.105218   0.055295
    35  H    0.070728   0.097866
    36  H    0.265836  -0.006155
 Sum of Mulliken charges =  -1.00000   1.00000

 Dipole moment (field-independent basis, Debye):
    X=              7.0544    Y=              1.3997    Z=              1.9190  Tot=              7.4435
 Quadrupole moment (field-independent basis, Debye-Ang):
   XX=           -236.4620   YY=           -146.4458   ZZ=           -147.9307
   XY=              0.6448   XZ=              1.6509   YZ=             -1.5004

 Summary of Natural Population Analysis:

                                       Natural Population
                Natural  -----------------------------------------------
    Atom  No    Charge         Core      Valence    Rydberg      Total
 -----------------------------------------------------------------------
      C    1   -0.30756      0.99961     2.30212    0.00583     3.30756
      C    2   -0.00959      0.99943     1.99848    0.01168     3.00959
      C    3   -0.19494      0.99925     2.17932    0.01636     3.19494
      C    4   -0.12831      0.99941     2.11629    0.01261     3.12831
      C    5   -0.09075      0.99950     2.07819    0.01307     3.09075
      S    6    0.23833      4.99937     2.74290    0.01940     7.76167
      C    7   -0.10118      0.99957     2.08831    0.01330     3.10118
      N    8   -0.41944      0.99978     2.90862    0.01105     3.91944
      S    9    1.12054      4.99908     1.78092    0.09946     6.87946
      O   10   -0.46901      0.99991     3.46390    0.00520     4.46901
      O   11   -0.46980      0.99990     3.46433    0.00557     4.46980
      N   12   -0.37023      0.99973     2.85601    0.01448     3.87023
      C   13   -0.18337      0.99963     2.17458    0.00916     3.18337
      C   14   -0.01787      0.99958     2.00322    0.01508     3.01787
      C   15   -0.21212      0.99961     2.20285    0.00967     3.21212
      C   16   -0.01389      0.99961     2.00343    0.01085     3.01389
      O   17   -0.29973      0.99990     3.29133    0.00851     4.29973
      C   18   -0.02421      0.99957     2.01078    0.01385     3.02421
      H   19    0.10102      0.00000     0.39817    0.00082     0.39898
      H   20    0.11086      0.00000     0.38766    0.00147     0.38914
      H   21    0.11576      0.00000     0.38261    0.00163     0.38424
      H   22    0.11541      0.00000     0.38332    0.00127     0.38459
      H   23    0.09913      0.00000     0.39889    0.00199     0.40087
      H   24    0.08637      0.00000     0.41186    0.00177     0.41363
      H   25    0.17814      0.00000     0.31752    0.00433     0.32186
      H   26    0.17421      0.00000     0.32371    0.00208     0.32579
      H   27    0.09257      0.00000     0.40641    0.00102     0.40743
      H   28    0.09678      0.00000     0.40232    0.00090     0.40322
      H   29    0.11014      0.00000     0.38904    0.00082     0.38986
      H   30    0.10147      0.00000     0.39697    0.00157     0.39853
      H   31    0.09646      0.00000     0.40250    0.00104     0.40354
      H   32    0.11901      0.00000     0.37982    0.00117     0.38099
      H   33    0.08871      0.00000     0.40988    0.00141     0.41129
      H   34    0.08684      0.00000     0.41197    0.00119     0.41316
      H   35    0.09009      0.00000     0.40875    0.00116     0.40991
      H   36    0.09018      0.00000     0.40818    0.00164     0.40982
 =======================================================================
   * Total *   -0.00000     25.99245    50.68513    0.32243    77.00000

 Normal termination of Gaussian 16 at Fri Dec 11 22:05:47 2020.
