 Gaussian 16, Revision A.03,

 -----------------------------------------------------------
 # opt freq B3LYP/6-31G(d) empiricaldispersion=gd3bj scf=xqc
 -----------------------------------------------------------

 -------------------------------
 CID_103362307_JID_7698_neutraal
 -------------------------------
 Symbolic Z-matrix:
 Charge =  0 Multiplicity = 1

 SCF Done:  E(RB3LYP) =  -1430.63466578     A.U. after   15 cycles
 SCF Done:  E(RB3LYP) =  -1430.64005006     A.U. after   12 cycles
 SCF Done:  E(RB3LYP) =  -1430.64115515     A.U. after   12 cycles
 SCF Done:  E(RB3LYP) =  -1430.64152674     A.U. after   12 cycles
 SCF Done:  E(RB3LYP) =  -1430.64160185     A.U. after   11 cycles
 SCF Done:  E(RB3LYP) =  -1430.64176877     A.U. after   10 cycles
 SCF Done:  E(RB3LYP) =  -1430.64187374     A.U. after   11 cycles
 SCF Done:  E(RB3LYP) =  -1430.64191036     A.U. after   10 cycles
 SCF Done:  E(RB3LYP) =  -1430.64191807     A.U. after   10 cycles
 SCF Done:  E(RB3LYP) =  -1430.64192351     A.U. after    8 cycles
 SCF Done:  E(RB3LYP) =  -1430.64192421     A.U. after    8 cycles
 SCF Done:  E(RB3LYP) =  -1430.64192446     A.U. after    8 cycles
 SCF Done:  E(RB3LYP) =  -1430.64192454     A.U. after    7 cycles
 Optimization completed.
    -- Stationary point found.
 Normal termination of Gaussian 16 at Fri Dec 11 13:09:36 2020.

 --------------------------------------------------------------------
 #N Geom=AllCheck Guess=TCheck SCRF=Check GenChk RB3LYP/6-31G(d) Freq
 --------------------------------------------------------------------

 Structure from the checkpoint file:  "JID_7698.chk"
 -------------------------------
 CID_103362307_JID_7698_neutraal
 -------------------------------
 Charge =  0 Multiplicity = 1

 SCF Done:  E(RB3LYP) =  -1430.64192454     A.U. after    1 cycles

  Exact polarizability: 224.290   2.784 182.025  -7.787  -5.003 128.968
 Approx polarizability: 295.619   0.514 293.235 -21.977 -21.480 208.132

                      1                      2                      3
                      A                      A                      A
 Frequencies --     26.6248                39.8571                48.0313
 Red. masses --      4.1760                 3.9365                 3.6844
 Frc consts  --      0.0017                 0.0037                 0.0050
 IR Inten    --      0.6118                 0.9075                 0.5381

                      4                      5                      6
                      A                      A                      A
 Frequencies --     67.6562                98.0207               116.1493
 Red. masses --      3.7736                 4.7042                 3.8312
 Frc consts  --      0.0102                 0.0266                 0.0305
 IR Inten    --      0.2226                 0.8971                 0.8135

                      7                      8                      9
                      A                      A                      A
 Frequencies --    140.8307               158.9239               166.2137
 Red. masses --      3.4568                 2.1042                 1.4494
 Frc consts  --      0.0404                 0.0313                 0.0236
 IR Inten    --      0.5117                 0.2285                 0.3325

                     10                     11                     12
                      A                      A                      A
 Frequencies --    178.9727               184.6864               229.6002
 Red. masses --      1.1803                 2.5097                 2.5492
 Frc consts  --      0.0223                 0.0504                 0.0792
 IR Inten    --      0.1514                 2.4628                 1.0265

                     13                     14                     15
                      A                      A                      A
 Frequencies --    252.2965               275.6078               279.7687
 Red. masses --      3.5849                 1.4480                 6.4156
 Frc consts  --      0.1344                 0.0648                 0.2959
 IR Inten    --      3.6861                 0.7532                 8.6328

                     16                     17                     18
                      A                      A                      A
 Frequencies --    301.2969               319.0643               332.2601
 Red. masses --      2.0188                 3.1625                 3.2482
 Frc consts  --      0.1080                 0.1897                 0.2113
 IR Inten    --      1.3270                 7.5947                 3.4765

                     19                     20                     21
                      A                      A                      A
 Frequencies --    365.2831               367.5470               391.8330
 Red. masses --      2.1462                 2.2923                 1.6253
 Frc consts  --      0.1687                 0.1825                 0.1470
 IR Inten    --      3.7217                 1.5637                14.3213

                     22                     23                     24
                      A                      A                      A
 Frequencies --    396.2568               425.4163               471.4208
 Red. masses --      1.8922                 4.7789                 2.8630
 Frc consts  --      0.1751                 0.5096                 0.3749
 IR Inten    --      1.3217                 7.9690                 7.0551

                     25                     26                     27
                      A                      A                      A
 Frequencies --    477.7717               513.7931               536.7400
 Red. masses --      4.0307                 2.4745                 1.9955
 Frc consts  --      0.5421                 0.3849                 0.3387
 IR Inten    --     10.1740                12.7271               233.2741

                     28                     29                     30
                      A                      A                      A
 Frequencies --    566.2635               574.8435               600.7647
 Red. masses --      2.8733                 2.8298                 4.0896
 Frc consts  --      0.5428                 0.5509                 0.8696
 IR Inten    --      5.5919                71.2587                36.1457

                     31                     32                     33
                      A                      A                      A
 Frequencies --    631.7012               683.6516               692.0363
 Red. masses --      2.9091                 4.9285                 2.8544
 Frc consts  --      0.6840                 1.3572                 0.8054
 IR Inten    --     18.9959                 6.7361                22.6179

                     34                     35                     36
                      A                      A                      A
 Frequencies --    697.6346               725.1901               750.8185
 Red. masses --      2.2156                 9.9819                 2.9053
 Frc consts  --      0.6353                 3.0929                 0.9650
 IR Inten    --      5.9672                40.4775                 1.6739

                     37                     38                     39
                      A                      A                      A
 Frequencies --    785.8551               802.2609               844.2939
 Red. masses --      5.9524                 3.2575                 2.2430
 Frc consts  --      2.1659                 1.2353                 0.9421
 IR Inten    --     10.0712                11.4356                 1.7210

                     40                     41                     42
                      A                      A                      A
 Frequencies --    862.1891               880.7658               940.5392
 Red. masses --      2.3826                 2.1573                 1.9256
 Frc consts  --      1.0436                 0.9860                 1.0036
 IR Inten    --      3.7123                 6.7170                 1.6160

                     43                     44                     45
                      A                      A                      A
 Frequencies --    959.7300               989.4245               990.0347
 Red. masses --      1.8926                 1.5811                 1.1846
 Frc consts  --      1.0271                 0.9119                 0.6841
 IR Inten    --      2.0031                 1.4413                 2.8203

                     46                     47                     48
                      A                      A                      A
 Frequencies --   1005.9137              1009.9520              1018.6603
 Red. masses --      1.3152                 1.7123                 2.0096
 Frc consts  --      0.7841                 1.0290                 1.2287
 IR Inten    --     24.3288                 1.7285                 6.9592

                     49                     50                     51
                      A                      A                      A
 Frequencies --   1045.3878              1067.3675              1097.2245
 Red. masses --      1.4418                 1.9889                 2.2446
 Frc consts  --      0.9283                 1.3350                 1.5921
 IR Inten    --      2.2542                 6.1445                10.4611

                     52                     53                     54
                      A                      A                      A
 Frequencies --   1109.0599              1131.0227              1139.8716
 Red. masses --      2.6764                 1.3469                 1.8534
 Frc consts  --      1.9396                 1.0151                 1.4188
 IR Inten    --      2.7331                 1.2741                17.6638

                     55                     56                     57
                      A                      A                      A
 Frequencies --   1151.2580              1164.4232              1188.5194
 Red. masses --      1.9756                 1.7403                 2.7595
 Frc consts  --      1.5427                 1.3903                 2.2966
 IR Inten    --     16.7514                 4.8569                26.6352

                     58                     59                     60
                      A                      A                      A
 Frequencies --   1229.3334              1246.1718              1296.6251
 Red. masses --      1.7425                 1.4781                 1.8407
 Frc consts  --      1.5515                 1.3524                 1.8233
 IR Inten    --      2.4215                 1.7857                35.1749

                     61                     62                     63
                      A                      A                      A
 Frequencies --   1316.8624              1328.0700              1353.0632
 Red. masses --      1.5558                 1.6377                 1.3240
 Frc consts  --      1.5896                 1.7019                 1.4282
 IR Inten    --      8.5656                 2.6059                 2.1342

                     64                     65                     66
                      A                      A                      A
 Frequencies --   1362.5279              1372.3252              1380.8416
 Red. masses --      1.7551                 1.3999                 1.1756
 Frc consts  --      1.9197                 1.5533                 1.3207
 IR Inten    --      1.2520                10.8724                 3.0610

                     67                     68                     69
                      A                      A                      A
 Frequencies --   1391.4995              1395.3845              1405.2052
 Red. masses --      1.4086                 1.3708                 1.3740
 Frc consts  --      1.6069                 1.5726                 1.5985
 IR Inten    --      1.7655                 4.0614                 7.1819

                     70                     71                     72
                      A                      A                      A
 Frequencies --   1408.7841              1419.4407              1445.2306
 Red. masses --      1.3757                 1.3890                 1.2606
 Frc consts  --      1.6086                 1.6488                 1.5513
 IR Inten    --      5.6769                 5.0493                26.2950

                     73                     74                     75
                      A                      A                      A
 Frequencies --   1446.5699              1464.6705              1473.9252
 Red. masses --      1.2906                 2.5702                 2.2086
 Frc consts  --      1.5912                 3.2487                 2.8269
 IR Inten    --      7.7861               113.7752                94.1991

                     76                     77                     78
                      A                      A                      A
 Frequencies --   1496.5786              1512.0208              1514.9964
 Red. masses --      1.0584                 1.0893                 1.0722
 Frc consts  --      1.3967                 1.4673                 1.4500
 IR Inten    --      5.8318                 3.5062                 3.0749

                     79                     80                     81
                      A                      A                      A
 Frequencies --   1515.7286              1523.4490              1529.0523
 Red. masses --      1.0552                 1.0518                 1.0860
 Frc consts  --      1.4284                 1.4383                 1.4960
 IR Inten    --      5.1215                 6.7903                 2.9000

                     82                     83                     84
                      A                      A                      A
 Frequencies --   1530.2044              1543.4310              1550.0463
 Red. masses --      1.0837                 1.0778                 1.1591
 Frc consts  --      1.4951                 1.5128                 1.6408
 IR Inten    --      7.6186                 7.5397                39.5555

                     85                     86                     87
                      A                      A                      A
 Frequencies --   1556.2028              1608.8022              1663.6201
 Red. masses --      2.7191                 3.7209                 1.3615
 Frc consts  --      3.8798                 5.6742                 2.2202
 IR Inten    --     48.3964               367.2009               241.0899

                     88                     89                     90
                      A                      A                      A
 Frequencies --   3016.1551              3023.8726              3027.5890
 Red. masses --      1.0756                 1.0729                 1.0776
 Frc consts  --      5.7649                 5.7799                 5.8194
 IR Inten    --      4.6502                 9.0537                14.5987

                     91                     92                     93
                      A                      A                      A
 Frequencies --   3035.4032              3044.0437              3051.8272
 Red. masses --      1.0745                 1.0753                 1.0404
 Frc consts  --      5.8331                 5.8707                 5.7091
 IR Inten    --     46.7188                66.8188                23.5953

                     94                     95                     96
                      A                      A                      A
 Frequencies --   3053.7182              3058.5493              3067.7254
 Red. masses --      1.0613                 1.0458                 1.0332
 Frc consts  --      5.8310                 5.7641                 5.7289
 IR Inten    --     12.9210                15.7317                19.2012

                     97                     98                     99
                      A                      A                      A
 Frequencies --   3067.9727              3077.3405              3098.7779
 Red. masses --      1.0946                 1.0952                 1.1018
 Frc consts  --      6.0702                 6.1110                 6.2336
 IR Inten    --     48.3358                47.0382                30.6435

                    100                    101                    102
                      A                      A                      A
 Frequencies --   3109.7571              3114.8213              3128.0559
 Red. masses --      1.1023                 1.1010                 1.1007
 Frc consts  --      6.2809                 6.2935                 6.3455
 IR Inten    --     36.4276                49.8245                34.7400

                    103                    104                    105
                      A                      A                      A
 Frequencies --   3143.7790              3158.5856              3160.2638
 Red. masses --      1.0970                 1.1060                 1.1080
 Frc consts  --      6.3880                 6.5010                 6.5196
 IR Inten    --     34.8258                 8.8153                 8.1522

                    106                    107                    108
                      A                      A                      A
 Frequencies --   3520.8755              3562.2395              3675.4587
 Red. masses --      1.0742                 1.0465                 1.1002
 Frc consts  --      7.8459                 7.8240                 8.7566
 IR Inten    --     15.5386                24.5310                29.8992

 - Thermochemistry -
 -------------------
 Temperature   298.150 Kelvin.  Pressure   1.00000 Atm.
 Atom     1 has atomic number  6 and mass  12.00000

 Molecular mass:   271.11769 amu.
 Principal axes and moments of inertia in atomic units:
                           1         2         3
     Eigenvalues --  2559.350408539.17084**********
           X            0.99996   0.00491   0.00738
           Y           -0.00515   0.99946   0.03256
           Z           -0.00721  -0.03260   0.99944
 This molecule is an asymmetric top.
 Rotational symmetry number  1.
 Warning -- assumption of classical behavior for rotation
           may cause significant error
 Rotational temperatures (Kelvin)      0.03384     0.01014     0.00862
 Rotational constants (GHZ):           0.70516     0.21135     0.17965
 Zero-point vibrational energy     859792.3 (Joules/Mol)
                                  205.49530 (Kcal/Mol)
 Warning -- explicit consideration of  30 degrees of freedom as
           vibrations may cause significant error
 Vibrational temperatures:     38.31    57.35    69.11    97.34   141.03
          (Kelvin)            167.11   202.62   228.66   239.14   257.50
                              265.72   330.34   363.00   396.54   402.52
                              433.50   459.06   478.05   525.56   528.82
                              563.76   570.13   612.08   678.27   687.41
                              739.23   772.25   814.73   827.07   864.37
                              908.88   983.62   995.69  1003.74  1043.39
                             1080.26  1130.67  1154.27  1214.75  1240.50
                             1267.23  1353.23  1380.84  1423.56  1424.44
                             1447.29  1453.10  1465.62  1504.08  1535.70
                             1578.66  1595.69  1627.29  1640.02  1656.40
                             1675.35  1710.01  1768.74  1792.96  1865.55
                             1894.67  1910.80  1946.76  1960.37  1974.47
                             1986.72  2002.06  2007.65  2021.78  2026.93
                             2042.26  2079.36  2081.29  2107.33  2120.65
                             2153.24  2175.46  2179.74  2180.80  2191.90
                             2199.97  2201.62  2220.65  2230.17  2239.03
                             2314.71  2393.58  4339.57  4350.68  4356.03
                             4367.27  4379.70  4390.90  4393.62  4400.57
                             4413.77  4414.13  4427.61  4458.45  4474.25
                             4481.53  4500.57  4523.20  4544.50  4546.91
                             5065.75  5125.27  5288.17

 Zero-point correction=                           0.327478 (Hartree/Particle)
 Thermal correction to Energy=                    0.346044
 Thermal correction to Enthalpy=                  0.346989
 Thermal correction to Gibbs Free Energy=         0.280328
 Sum of electronic and zero-point Energies=          -1430.314447
 Sum of electronic and thermal Energies=             -1430.295880
 Sum of electronic and thermal Enthalpies=           -1430.294936
 Sum of electronic and thermal Free Energies=        -1430.361596

                     E (Thermal)             CV                S
                      KCal/Mol        Cal/Mol-Kelvin    Cal/Mol-Kelvin
 Total                  217.146             70.799            140.298
 Electronic               0.000              0.000              0.000
 Translational            0.889              2.981             42.691
 Rotational               0.889              2.981             33.751
 Vibrational            215.369             64.837             63.857
 Vibration     1          0.593              1.984              6.066
 Vibration     2          0.594              1.981              5.266
 Vibration     3          0.595              1.978              4.897
 Vibration     4          0.598              1.970              4.220
 Vibration     5          0.603              1.951              3.493
 Vibration     6          0.608              1.936              3.163
 Vibration     7          0.615              1.912              2.793
 Vibration     8          0.621              1.893              2.563
 Vibration     9          0.624              1.884              2.478
 Vibration    10          0.629              1.868              2.339
 Vibration    11          0.631              1.861              2.281
 Vibration    12          0.652              1.796              1.882
 Vibration    13          0.664              1.759              1.714
 Vibration    14          0.677              1.718              1.561
 Vibration    15          0.680              1.711              1.535
 Vibration    16          0.693              1.671              1.410
 Vibration    17          0.705              1.637              1.315
 Vibration    18          0.714              1.611              1.249
 Vibration    19          0.739              1.544              1.100
 Vibration    20          0.740              1.539              1.090
 Vibration    21          0.759              1.488              0.993
 Vibration    22          0.763              1.478              0.977
 Vibration    23          0.787              1.415              0.874
 Vibration    24          0.828              1.313              0.734
 Vibration    25          0.834              1.299              0.716
 Vibration    26          0.869              1.219              0.625
 Vibration    27          0.892              1.169              0.572
 Vibration    28          0.922              1.104              0.511
 Vibration    29          0.931              1.086              0.495
 Vibration    30          0.959              1.030              0.448

                           ! Non-Optimized Parameters !
 Normal termination of Gaussian 16 at Fri Dec 11 13:27:07 2020.

 ----------------------------------------------------------------------
 # B3LYP/6-311++G(d,p) empiricaldispersion=gd3bj scf=xqc pop=npa geom=c
 heck
 ----------------------------------------------------------------------

 ---------------------------------------
 CID_103362307_JID_7698_Energie_neutraal
 ---------------------------------------
 Structure from the checkpoint file:  "JID_7698.chk"
 Charge =  0 Multiplicity = 1

 SCF Done:  E(RB3LYP) =  -1430.87479112     A.U. after   16 cycles
 Normal termination of Gaussian 16 at Fri Dec 11 13:36:15 2020.

 ----------------------------------------------------------------------
 # B3LYP/6-311++G(d,p) empiricaldispersion=gd3bj scf=xqc pop=npa geom=c
 heck
 ----------------------------------------------------------------------

 -------------------------------------
 CID_103362307_JID_7698_Energie_kation
 -------------------------------------
 Structure from the checkpoint file:  "JID_7698.chk"
 Charge =  1 Multiplicity = 2

 SCF Done:  E(UB3LYP) =  -1430.60266791     A.U. after   27 cycles
 Normal termination of Gaussian 16 at Fri Dec 11 13:57:23 2020.
 Gaussian 16:  ES64L-G16RevA.03 25-Dec-2016

 ----------------------------------------------------------------------
 # B3LYP/6-311++G(d,p) empiricaldispersion=gd3bj scf=xqc pop=npa geom=c
 heck
 ----------------------------------------------------------------------

 ------------------------------------
 CID_103362307_JID_7698_Energie_anion
 ------------------------------------
 Structure from the checkpoint file:  "JID_7698.chk"
 Charge = -1 Multiplicity = 2

                         Standard orientation:
 ---------------------------------------------------------------------
 Center     Atomic      Atomic             Coordinates (Angstroms)
 Number     Number       Type             X           Y           Z
 ---------------------------------------------------------------------
      1          6           0       -4.831061    0.353637   -1.178417
      2          6           0       -4.256604   -0.599769   -0.120008
      3          6           0       -3.175170   -1.529527   -0.703790
      4          6           0       -1.835705   -0.811892   -0.912079
      5          6           0       -1.333973   -0.203445    0.407676
      6          6           0       -2.343124    0.793417    1.013989
      7          6           0       -3.718726    0.102521    1.145618
      8          6           0       -2.384050    2.140290    0.272857
      9          7           0       -0.014210    0.416005    0.282898
     10          6           0        1.123215   -0.328635    0.174940
     11          6           0        2.359161    0.112625   -0.269011
     12          6           0        3.333525   -0.946274   -0.180647
     13          7           0        2.927777   -2.107982    0.292646
     14         16           0        1.265834   -2.000843    0.660193
     15          7           0        4.630216   -0.790533   -0.623230
     16         16           0        2.659857    1.761525   -0.819932
     17          6           0        2.727025    2.651228    0.790675
     18          1           0       -4.058900    0.937709   -1.686501
     19          1           0       -5.538287    1.060953   -0.730151
     20          1           0       -5.367076   -0.214079   -1.947884
     21          1           0       -5.091725   -1.232382    0.211414
     22          1           0       -3.014897   -2.369667   -0.013310
     23          1           0       -3.521692   -1.965594   -1.648753
     24          1           0       -1.932501   -0.020225   -1.665703
     25          1           0       -1.083666   -1.512918   -1.290010
     26          1           0       -1.219662   -1.020990    1.132893
     27          1           0       -1.996234    1.011247    2.032728
     28          1           0       -4.455213    0.829612    1.511097
     29          1           0       -3.626172   -0.660996    1.930817
     30          1           0       -3.213990    2.751840    0.642248
     31          1           0       -1.463344    2.709409    0.443945
     32          1           0       -2.514961    2.032562   -0.807391
     33          1           0        0.022130    1.256185   -0.288921
     34          1           0        4.968846    0.163016   -0.635337
     35          1           0        5.283008   -1.469378   -0.254671
     36          1           0        1.797137    2.498961    1.343590
     37          1           0        3.571368    2.301289    1.388728
     38          1           0        2.851206    3.715036    0.569982
 ---------------------------------------------------------------------

 SCF Done:  E(UB3LYP) =  -1430.86678235     A.U. after   33 cycles
 SCF Done:  E(UB3LYP) =  -1430.86678235     a.u. after    1 cycles

 The electronic state is 2-A.
 Alpha  occ. eigenvalues --  -88.79502 -88.76012 -14.24997 -14.23659 -14.21507
 Alpha  occ. eigenvalues --  -10.15589 -10.15507 -10.12527 -10.09844 -10.09701
 Alpha  occ. eigenvalues --  -10.08727 -10.08392 -10.08074 -10.07941 -10.07412
 Alpha  occ. eigenvalues --  -10.06972 -10.06799  -7.87935  -7.84545  -5.84351
 Alpha  occ. eigenvalues --   -5.83902  -5.83374  -5.80941  -5.80563  -5.79949
 Alpha  occ. eigenvalues --   -0.88604  -0.86095  -0.80217  -0.75320  -0.71813
 Alpha  occ. eigenvalues --   -0.68687  -0.66968  -0.65116  -0.63195  -0.60130
 Alpha  occ. eigenvalues --   -0.59098  -0.55096  -0.53226  -0.50830  -0.49482
 Alpha  occ. eigenvalues --   -0.48277  -0.44491  -0.43099  -0.41689  -0.39974
 Alpha  occ. eigenvalues --   -0.38340  -0.36165  -0.35975  -0.35010  -0.34754
 Alpha  occ. eigenvalues --   -0.34007  -0.33321  -0.32999  -0.32588  -0.31419
 Alpha  occ. eigenvalues --   -0.30726  -0.30193  -0.29307  -0.28499  -0.27252
 Alpha  occ. eigenvalues --   -0.26685  -0.25757  -0.25228  -0.24727  -0.23836
 Alpha  occ. eigenvalues --   -0.22687  -0.21994  -0.21604  -0.20302  -0.20056
 Alpha  occ. eigenvalues --   -0.15304  -0.13192  -0.12063   0.03746
 Alpha virt. eigenvalues --    0.05236   0.06396   0.07004   0.07286   0.07879
 Alpha virt. eigenvalues --    0.08216   0.08802   0.08922   0.09604   0.09685
 Alpha virt. eigenvalues --    0.09901   0.10313   0.10656   0.10800   0.11953

  Beta  occ. eigenvalues --  -88.79500 -88.76005 -14.24989 -14.23648 -14.21505
  Beta  occ. eigenvalues --  -10.15534 -10.15506 -10.12522 -10.09849 -10.09618
  Beta  occ. eigenvalues --  -10.08717 -10.08382 -10.08070 -10.07930 -10.07393
  Beta  occ. eigenvalues --  -10.06941 -10.06772  -7.87933  -7.84538  -5.84350
  Beta  occ. eigenvalues --   -5.83902  -5.83368  -5.80925  -5.80552  -5.79946
  Beta  occ. eigenvalues --   -0.88578  -0.86069  -0.80198  -0.75288  -0.71763
  Beta  occ. eigenvalues --   -0.68645  -0.66931  -0.65074  -0.63151  -0.60078
  Beta  occ. eigenvalues --   -0.59057  -0.55005  -0.53194  -0.50788  -0.49447
  Beta  occ. eigenvalues --   -0.48248  -0.44456  -0.43068  -0.41661  -0.39934
  Beta  occ. eigenvalues --   -0.38307  -0.36132  -0.35940  -0.34959  -0.34711
  Beta  occ. eigenvalues --   -0.33963  -0.33281  -0.32927  -0.32557  -0.31392
  Beta  occ. eigenvalues --   -0.30674  -0.30157  -0.29272  -0.28462  -0.27204
  Beta  occ. eigenvalues --   -0.26635  -0.25716  -0.25190  -0.24671  -0.23774
  Beta  occ. eigenvalues --   -0.22653  -0.21963  -0.21567  -0.20282  -0.20011
  Beta  occ. eigenvalues --   -0.15268  -0.13168  -0.12018
  Beta virt. eigenvalues --    0.05824   0.06012   0.06772   0.07333   0.07813
  Beta virt. eigenvalues --    0.08166   0.08501   0.08996   0.09257   0.09760
  Beta virt. eigenvalues --    0.09919   0.10333   0.10706   0.10876   0.10999

 Mulliken charges and spin densities:
               1          2
     1  C    0.661358  -1.355216
     2  C   -0.378967   0.807267
     3  C   -0.483683  -0.157874
     4  C    0.530459  -0.197332
     5  C   -1.634778   0.150905
     6  C    0.012307   0.605284
     7  C    0.704175  -1.546935
     8  C    0.164167  -0.840796
     9  N    0.452710   0.028649
    10  C    0.487088  -0.291457
    11  C   -0.124354   0.116925
    12  C   -0.145964   0.201782
    13  N   -0.288215  -0.010281
    14  S   -0.008901  -0.091199
    15  N   -0.317854   0.028133
    16  S   -0.311192   0.175619
    17  C    0.617996  -1.268504
    18  H    0.091202   0.027391
    19  H   -0.108136   0.252409
    20  H   -0.138675   0.276368
    21  H   -0.420603   0.640987
    22  H    0.070433   0.068164
    23  H   -0.029681   0.206012
    24  H    0.085419   0.077587
    25  H    0.216532  -0.050080
    26  H    0.046255   0.068646
    27  H   -0.118561   0.356964
    28  H   -0.270849   0.467774
    29  H   -0.008655   0.143556
    30  H   -0.194424   0.354812
    31  H   -0.199325   0.332194
    32  H    0.018237   0.133144
    33  H    0.491923  -0.222846
    34  H    0.152279   0.084228
    35  H    0.211993   0.052635
    36  H   -0.178046   0.374723
    37  H   -0.253260   0.425350
    38  H   -0.400409   0.575014
 Sum of Mulliken charges =  -1.00000   1.00000

 Dipole moment (field-independent basis, Debye):
    X=              3.0751    Y=             -3.3191    Z=             -2.4591  Tot=              5.1497
 Quadrupole moment (field-independent basis, Debye-Ang):
   XX=           -214.9441   YY=           -176.8405   ZZ=           -155.4647
   XY=             -4.1850   XZ=              1.3372   YZ=             -7.1349

 Summary of Natural Population Analysis:

                                       Natural Population
                Natural  -----------------------------------------------
    Atom  No    Charge         Core      Valence    Rydberg      Total
 -----------------------------------------------------------------------
      C    1   -0.28521      0.99964     2.27923    0.00635     3.28521
      C    2   -0.11274      0.99960     2.10227    0.01087     3.11274
      C    3   -0.18842      0.99961     2.17928    0.00953     3.18842
      C    4   -0.19943      0.99960     2.19264    0.00719     3.19943
      C    5   -0.00576      0.99955     1.99323    0.01298     3.00576
      C    6   -0.11283      0.99958     2.10076    0.01249     3.11283
      C    7   -0.18529      0.99960     2.17538    0.01032     3.18529
      C    8   -0.29139      0.99964     2.28528    0.00646     3.29139
      N    9   -0.31414      0.99963     2.80140    0.01311     3.81414
      C   10    0.04591      0.99940     1.93832    0.01638     2.95409
      C   11   -0.19885      0.99927     2.18538    0.01420     3.19885
      C   12    0.19132      0.99950     1.79068    0.01850     2.80868
      N   13   -0.35559      0.99968     2.84519    0.01071     3.85559
      S   14    0.25949      4.99944     2.71732    0.02375     7.74051
      N   15   -0.39859      0.99970     2.88984    0.00905     3.89859
      S   16    0.10540      4.99957     2.87392    0.02111     7.89460
      C   17   -0.34273      0.99962     2.33633    0.00678     3.34273
      H   18    0.09433      0.00000     0.40463    0.00104     0.40567
      H   19    0.10104      0.00000     0.39801    0.00095     0.39896
      H   20    0.09841      0.00000     0.40064    0.00095     0.40159
      H   21    0.09842      0.00000     0.39965    0.00194     0.40158
      H   22    0.09686      0.00000     0.40203    0.00111     0.40314
      H   23    0.09999      0.00000     0.39917    0.00084     0.40001
      H   24    0.09588      0.00000     0.40288    0.00124     0.40412
      H   25    0.10455      0.00000     0.39419    0.00127     0.39545
      H   26    0.09777      0.00000     0.39987    0.00236     0.40223
      H   27    0.10308      0.00000     0.39513    0.00179     0.39692
      H   28    0.10227      0.00000     0.39652    0.00121     0.39773
      H   29    0.09972      0.00000     0.39896    0.00132     0.40028
      H   30    0.10522      0.00000     0.39376    0.00102     0.39478
      H   31    0.10206      0.00000     0.39647    0.00147     0.39794
      H   32    0.09462      0.00000     0.40411    0.00127     0.40538
      H   33    0.19717      0.00000     0.29912    0.00371     0.30283
      H   34    0.19330      0.00000     0.30466    0.00204     0.30670
      H   35    0.18877      0.00000     0.30916    0.00207     0.31123
      H   36    0.10669      0.00000     0.39120    0.00211     0.39331
      H   37    0.10176      0.00000     0.39613    0.00211     0.39824
      H   38    0.10693      0.00000     0.39108    0.00199     0.39307
 =======================================================================
   * Total *    0.00000     24.99262    47.76379    0.24359    73.00000

 Normal termination of Gaussian 16 at Fri Dec 11 14:22:48 2020.
