 Gaussian 16, Revision A.03,

 -----------------------------------------------------------
 # opt freq B3LYP/6-31G(d) empiricaldispersion=gd3bj scf=xqc
 -----------------------------------------------------------

 ------------------------------
 CID_18945278_JID_8648_neutraal
 ------------------------------
 Symbolic Z-matrix:
 Charge =  0 Multiplicity = 1

 SCF Done:  E(RB3LYP) =  -830.173708935     A.U. after   15 cycles
 SCF Done:  E(RB3LYP) =  -830.184252253     A.U. after   13 cycles
 SCF Done:  E(RB3LYP) =  -830.186538323     A.U. after   13 cycles
 SCF Done:  E(RB3LYP) =  -830.188830569     A.U. after   12 cycles
 SCF Done:  E(RB3LYP) =  -830.189168714     A.U. after   13 cycles
 SCF Done:  E(RB3LYP) =  -830.190399591     A.U. after   12 cycles
 SCF Done:  E(RB3LYP) =  -830.190853808     A.U. after   12 cycles
 SCF Done:  E(RB3LYP) =  -830.191129237     A.U. after   11 cycles
 SCF Done:  E(RB3LYP) =  -830.191274965     A.U. after   11 cycles
 SCF Done:  E(RB3LYP) =  -830.191411839     A.U. after   11 cycles
 SCF Done:  E(RB3LYP) =  -830.191978906     A.U. after    9 cycles
 SCF Done:  E(RB3LYP) =  -830.191980200     A.U. after    8 cycles
 SCF Done:  E(RB3LYP) =  -830.191979928     A.U. after    8 cycles
 SCF Done:  E(RB3LYP) =  -830.191980437     A.U. after    8 cycles
 SCF Done:  E(RB3LYP) =  -830.191980527     A.U. after    7 cycles
 Optimization completed.
    -- Stationary point found.
 Normal termination of Gaussian 16 at Fri Dec 11 20:59:23 2020.

 --------------------------------------------------------------------
 #N Geom=AllCheck Guess=TCheck SCRF=Check GenChk RB3LYP/6-31G(d) Freq
 --------------------------------------------------------------------

 Structure from the checkpoint file:  "JID_8648.chk"
 ------------------------------
 CID_18945278_JID_8648_neutraal
 ------------------------------
 Charge =  0 Multiplicity = 1

 SCF Done:  E(RB3LYP) =  -830.191980527     A.U. after    1 cycles

  Exact polarizability: 232.446  -1.881 187.214   5.208   4.354  69.107
 Approx polarizability: 323.262  -8.131 310.639  12.517   8.956 110.528

                      1                      2                      3
                      A                      A                      A
 Frequencies --     33.4154                41.1297                63.4084
 Red. masses --      5.4490                 4.9237                 5.4946
 Frc consts  --      0.0036                 0.0049                 0.0130
 IR Inten    --      5.5508                 2.6526                 4.4114

                      4                      5                      6
                      A                      A                      A
 Frequencies --     68.6459               101.0069               142.0869
 Red. masses --      5.2783                 4.5907                 6.5482
 Frc consts  --      0.0147                 0.0276                 0.0779
 IR Inten    --      2.8843                 1.8610                 8.9466

                      7                      8                      9
                      A                      A                      A
 Frequencies --    151.3059               199.6840               234.8233
 Red. masses --      5.2557                 4.5432                 5.2219
 Frc consts  --      0.0709                 0.1067                 0.1697
 IR Inten    --      0.2175                13.1230                 1.5531

                     10                     11                     12
                      A                      A                      A
 Frequencies --    260.4390               282.6713               306.4966
 Red. masses --      2.1405                 1.6626                 4.1477
 Frc consts  --      0.0855                 0.0783                 0.2296
 IR Inten    --     24.8413                55.6827                 8.9986

                     13                     14                     15
                      A                      A                      A
 Frequencies --    323.0169               350.6649               366.8014
 Red. masses --      3.8040                 4.6970                 1.3698
 Frc consts  --      0.2339                 0.3403                 0.1086
 IR Inten    --     17.7636                 8.5509               178.3605

                     16                     17                     18
                      A                      A                      A
 Frequencies --    392.9928               437.4432               444.5479
 Red. masses --      4.3541                 1.2472                 4.3456
 Frc consts  --      0.3962                 0.1406                 0.5060
 IR Inten    --      5.3008               174.3698                 7.7081

                     19                     20                     21
                      A                      A                      A
 Frequencies --    452.9680               479.3593               518.1649
 Red. masses --      3.8171                 4.1273                 2.8062
 Frc consts  --      0.4614                 0.5588                 0.4439
 IR Inten    --     40.1892                 3.9348                19.7317

                     22                     23                     24
                      A                      A                      A
 Frequencies --    544.7439               567.7140               581.9546
 Red. masses --      3.7735                 2.6362                 1.6611
 Frc consts  --      0.6597                 0.5006                 0.3315
 IR Inten    --      4.4842                77.0977               146.1059

                     25                     26                     27
                      A                      A                      A
 Frequencies --    645.3243               661.0429               673.2238
 Red. masses --      5.4790                 3.5693                 5.6963
 Frc consts  --      1.3443                 0.9190                 1.5211
 IR Inten    --     31.1368                27.9747                 2.7476

                     28                     29                     30
                      A                      A                      A
 Frequencies --    699.8953               714.5943               716.7584
 Red. masses --      3.6868                 3.1218                 1.9435
 Frc consts  --      1.0641                 0.9392                 0.5883
 IR Inten    --     13.3223                21.1506                12.4861

                     31                     32                     33
                      A                      A                      A
 Frequencies --    731.0664               760.0256               775.0296
 Red. masses --      1.2725                 2.4468                 2.3739
 Frc consts  --      0.4007                 0.8327                 0.8402
 IR Inten    --     19.4867                 9.7589               207.2221

                     34                     35                     36
                      A                      A                      A
 Frequencies --    793.9806               805.6245               840.3214
 Red. masses --      2.9188                 2.0928                 1.9530
 Frc consts  --      1.0841                 0.8003                 0.8125
 IR Inten    --     48.0927               143.2605                 3.0856

                     37                     38                     39
                      A                      A                      A
 Frequencies --    874.8119               917.2567               940.1275
 Red. masses --      1.2869                 6.5266                 4.4727
 Frc consts  --      0.5802                 3.2353                 2.3291
 IR Inten    --      3.5817                15.3876                41.2772

                     40                     41                     42
                      A                      A                      A
 Frequencies --    950.6031               957.2563               979.3837
 Red. masses --      1.3925                 1.4643                 5.4980
 Frc consts  --      0.7414                 0.7905                 3.1072
 IR Inten    --      3.7447                 5.8664                44.1637

                     43                     44                     45
                      A                      A                      A
 Frequencies --    992.2696              1024.0888              1070.1446
 Red. masses --      1.2809                 6.2480                 1.4846
 Frc consts  --      0.7431                 3.8607                 1.0017
 IR Inten    --      1.1791                 0.3040                 2.7140

                     46                     47                     48
                      A                      A                      A
 Frequencies --   1075.9060              1088.2205              1098.7955
 Red. masses --      2.5089                 1.9694                 1.6582
 Frc consts  --      1.7111                 1.3741                 1.1796
 IR Inten    --      6.4445                26.0421                 9.7269

                     49                     50                     51
                      A                      A                      A
 Frequencies --   1115.7057              1126.7542              1176.1666
 Red. masses --      1.5742                 1.5131                 2.4899
 Frc consts  --      1.1545                 1.1318                 2.0294
 IR Inten    --      2.6045                14.9083                 4.1174

                     52                     53                     54
                      A                      A                      A
 Frequencies --   1190.2630              1207.1716              1258.9185
 Red. masses --      1.5902                 1.4464                 1.6502
 Frc consts  --      1.3274                 1.2419                 1.5409
 IR Inten    --     24.9976                 0.0420                 6.1914

                     55                     56                     57
                      A                      A                      A
 Frequencies --   1304.9602              1346.6894              1370.9056
 Red. masses --      1.8196                 2.5673                 6.9419
 Frc consts  --      1.8256                 2.7433                 7.6867
 IR Inten    --     32.0437                 7.0675                 3.5008

                     58                     59                     60
                      A                      A                      A
 Frequencies --   1382.4059              1399.2423              1452.8187
 Red. masses --      5.0525                 3.9442                 3.4908
 Frc consts  --      5.6889                 4.5499                 4.3411
 IR Inten    --    456.9233               196.4076                42.1200

                     61                     62                     63
                      A                      A                      A
 Frequencies --   1475.6077              1495.5757              1533.2847
 Red. masses --      2.1987                 3.8680                 2.6975
 Frc consts  --      2.8207                 5.0974                 3.7364
 IR Inten    --      8.2171                54.1887                34.0873

                     64                     65                     66
                      A                      A                      A
 Frequencies --   1558.0384              1565.9039              1615.9215
 Red. masses --      5.0586                 2.4108                 3.8378
 Frc consts  --      7.2350                 3.4829                 5.9043
 IR Inten    --    153.7998               343.0580                44.8419

                     67                     68                     69
                      A                      A                      A
 Frequencies --   1642.1829              1662.0382              1663.0122
 Red. masses --      5.9347                 5.6746                 1.6477
 Frc consts  --      9.4295                 9.2357                 2.6848
 IR Inten    --    230.3416                 8.9473               326.5053

                     70                     71                     72
                      A                      A                      A
 Frequencies --   1686.8550              1689.0571              1701.7977
 Red. masses --      2.2926                 2.0291                 1.7935
 Frc consts  --      3.8435                 3.4107                 3.0603
 IR Inten    --    209.0723                93.7088               717.3841

                     73                     74                     75
                      A                      A                      A
 Frequencies --   3195.2593              3225.0840              3234.4799
 Red. masses --      1.0886                 1.0925                 1.0927
 Frc consts  --      6.5482                 6.6953                 6.7354
 IR Inten    --     17.2077                 1.5563                 4.4569

                     76                     77                     78
                      A                      A                      A
 Frequencies --   3248.7642              3272.1510              3273.9709
 Red. masses --      1.0929                 1.0905                 1.1002
 Frc consts  --      6.7962                 6.8792                 6.9479
 IR Inten    --     11.9411                 3.8372                 4.9173

                     79                     80                     81
                      A                      A                      A
 Frequencies --   3418.6076              3515.6334              3572.7344
 Red. masses --      1.0600                 1.0500                 1.0471
 Frc consts  --      7.2986                 7.6463                 7.8750
 IR Inten    --    156.3905                 8.4960                32.6165

                     82                     83                     84
                      A                      A                      A
 Frequencies --   3619.0030              3657.9360              3685.6762
 Red. masses --      1.0951                 1.0912                 1.1010
 Frc consts  --      8.4504                 8.6025                 8.8120
 IR Inten    --     16.8613                65.7697                28.2906

 - Thermochemistry -
 -------------------
 Temperature   298.150 Kelvin.  Pressure   1.00000 Atm.
 Atom     1 has atomic number  6 and mass  12.00000

 Molecular mass:   244.10726 amu.
 Principal axes and moments of inertia in atomic units:
                           1         2         3
     Eigenvalues --  2315.798928095.20557**********
           X            0.99995   0.00969   0.00334
           Y           -0.00969   0.99995   0.00178
           Z           -0.00333  -0.00181   0.99999
 This molecule is an asymmetric top.
 Rotational symmetry number  1.
 Warning -- assumption of classical behavior for rotation
           may cause significant error
 Rotational temperatures (Kelvin)      0.03740     0.01070     0.00859
 Rotational constants (GHZ):           0.77932     0.22294     0.17891
 Zero-point vibrational energy     620095.1 (Joules/Mol)
                                  148.20630 (Kcal/Mol)
 Warning -- explicit consideration of  24 degrees of freedom as
           vibrations may cause significant error
 Vibrational temperatures:     48.08    59.18    91.23    98.77   145.33
          (Kelvin)            204.43   217.70   287.30   337.86   374.71
                              406.70   440.98   464.75   504.53   527.75
                              565.43   629.38   639.61   651.72   689.69
                              745.52   783.76   816.81   837.30   928.48
                              951.09   968.62  1006.99  1028.14  1031.26
                             1051.84  1093.51  1115.09  1142.36  1159.11
                             1209.04  1258.66  1319.73  1352.63  1367.71
                             1377.28  1409.11  1427.65  1473.44  1539.70
                             1547.99  1565.71  1580.92  1605.25  1621.15
                             1692.24  1712.52  1736.85  1811.30  1877.55
                             1937.59  1972.43  1988.97  2013.20  2090.28
                             2123.07  2151.80  2206.05  2241.67  2252.99
                             2324.95  2362.73  2391.30  2392.70  2427.01
                             2430.18  2448.51  4597.27  4640.18  4653.70
                             4674.25  4707.90  4710.51  4918.61  5058.21
                             5140.37  5206.94  5262.95  5302.87

 Zero-point correction=                           0.236182 (Hartree/Particle)
 Thermal correction to Energy=                    0.251858
 Thermal correction to Enthalpy=                  0.252802
 Thermal correction to Gibbs Free Energy=         0.192201
 Sum of electronic and zero-point Energies=           -829.955799
 Sum of electronic and thermal Energies=              -829.940122
 Sum of electronic and thermal Enthalpies=            -829.939178
 Sum of electronic and thermal Free Energies=         -829.999780

                     E (Thermal)             CV                S
                      KCal/Mol        Cal/Mol-Kelvin    Cal/Mol-Kelvin
 Total                  158.043             61.061            127.547
 Electronic               0.000              0.000              0.000
 Translational            0.889              2.981             42.378
 Rotational               0.889              2.981             33.602
 Vibrational            156.266             55.099             51.566
 Vibration     1          0.594              1.983              5.616
 Vibration     2          0.594              1.981              5.204
 Vibration     3          0.597              1.972              4.348
 Vibration     4          0.598              1.969              4.192
 Vibration     5          0.604              1.948              3.435
 Vibration     6          0.616              1.911              2.776
 Vibration     7          0.619              1.901              2.656
 Vibration     8          0.638              1.840              2.136
 Vibration     9          0.655              1.788              1.842
 Vibration    10          0.668              1.745              1.659
 Vibration    11          0.682              1.706              1.517
 Vibration    12          0.697              1.661              1.381
 Vibration    13          0.708              1.629              1.295
 Vibration    14          0.728              1.574              1.163
 Vibration    15          0.740              1.541              1.093
 Vibration    16          0.760              1.485              0.989
 Vibration    17          0.798              1.389              0.835
 Vibration    18          0.804              1.373              0.812
 Vibration    19          0.812              1.354              0.787
 Vibration    20          0.836              1.296              0.712
 Vibration    21          0.873              1.210              0.614
 Vibration    22          0.900              1.151              0.555
 Vibration    23          0.924              1.101              0.509
 Vibration    24          0.939              1.070              0.482

                           ! Non-Optimized Parameters !
 Normal termination of Gaussian 16 at Fri Dec 11 21:10:20 2020.

 ----------------------------------------------------------------------
 # B3LYP/6-311++G(d,p) empiricaldispersion=gd3bj scf=xqc pop=npa geom=c
 heck
 ----------------------------------------------------------------------

 --------------------------------------
 CID_18945278_JID_8648_Energie_neutraal
 --------------------------------------
 Structure from the checkpoint file:  "JID_8648.chk"
 Charge =  0 Multiplicity = 1

 SCF Done:  E(RB3LYP) =  -830.435685082     A.U. after   16 cycles
 Normal termination of Gaussian 16 at Fri Dec 11 21:15:42 2020.

 ----------------------------------------------------------------------
 # B3LYP/6-311++G(d,p) empiricaldispersion=gd3bj scf=xqc pop=npa geom=c
 heck
 ----------------------------------------------------------------------

 ------------------------------------
 CID_18945278_JID_8648_Energie_kation
 ------------------------------------
 Structure from the checkpoint file:  "JID_8648.chk"
 Charge =  1 Multiplicity = 2

 SCF Done:  E(UB3LYP) =  -830.153768728     A.U. after   30 cycles
 Normal termination of Gaussian 16 at Fri Dec 11 21:30:22 2020.
 Gaussian 16:  ES64L-G16RevA.03 25-Dec-2016

 ----------------------------------------------------------------------
 # B3LYP/6-311++G(d,p) empiricaldispersion=gd3bj scf=xqc pop=npa geom=c
 heck
 ----------------------------------------------------------------------

 -----------------------------------
 CID_18945278_JID_8648_Energie_anion
 -----------------------------------
 Structure from the checkpoint file:  "JID_8648.chk"
 Charge = -1 Multiplicity = 2

                         Standard orientation:
 ---------------------------------------------------------------------
 Center     Atomic      Atomic             Coordinates (Angstroms)
 Number     Number       Type             X           Y           Z
 ---------------------------------------------------------------------
      1          6           0        0.699775    2.838830   -0.310125
      2          6           0       -0.628422    2.439396   -0.208573
      3          6           0       -0.942878    1.076288   -0.120188
      4          6           0        0.077879    0.123569   -0.115157
      5          6           0        1.409819    0.533013   -0.208768
      6          6           0        1.726245    1.891975   -0.323460
      7          7           0        2.430997   -0.449782   -0.204634
      8          6           0        3.660064   -0.402939    0.403321
      9          6           0        4.265824   -1.626284    0.172006
     10          6           0        3.312885   -2.356118   -0.574863
     11          7           0        2.202564   -1.669276   -0.799679
     12          7           0        4.130862    0.730871    1.067026
     13          6           0       -2.383379    0.673369   -0.020407
     14          8           0       -3.261544    1.556679   -0.008965
     15          7           0       -2.583251   -0.682011    0.045269
     16          6           0       -3.806093   -1.160225    0.173183
     17          7           0       -4.949567   -0.438336    0.147370
     18          7           0       -3.927599   -2.514161    0.356969
     19          1           0        0.946824    3.892906   -0.398456
     20          1           0       -1.438916    3.159213   -0.203227
     21          1           0       -0.161455   -0.928572   -0.050320
     22          1           0        2.759372    2.198796   -0.442948
     23          1           0        5.245939   -1.937366    0.503200
     24          1           0        3.399255   -3.364098   -0.960325
     25          1           0        3.403884    1.234818    1.566763
     26          1           0        4.892388    0.502397    1.696092
     27          1           0       -5.800785   -0.826675    0.527165
     28          1           0       -4.793808    0.571876    0.145321
     29          1           0       -3.069330   -3.018524    0.177194
     30          1           0       -4.769364   -2.964591    0.023198
 ---------------------------------------------------------------------

 SCF Done:  E(UB3LYP) =  -830.442359022     A.U. after   33 cycles
 SCF Done:  E(UB3LYP) =  -830.442359022     a.u. after    1 cycles

 The electronic state is 2-A.
 Alpha  occ. eigenvalues --  -18.93608 -14.28118 -14.23895 -14.21679 -14.21088
 Alpha  occ. eigenvalues --  -14.20535 -14.14546 -10.14909 -10.14552 -10.10357
 Alpha  occ. eigenvalues --  -10.08956 -10.08836 -10.06242 -10.04959 -10.04408
 Alpha  occ. eigenvalues --  -10.03773 -10.03387 -10.03335  -0.94293  -0.89062
 Alpha  occ. eigenvalues --   -0.85311  -0.82939  -0.76274  -0.75498  -0.73414
 Alpha  occ. eigenvalues --   -0.70437  -0.66566  -0.62643  -0.61042  -0.53540
 Alpha  occ. eigenvalues --   -0.51440  -0.51088  -0.48398  -0.46488  -0.45998
 Alpha  occ. eigenvalues --   -0.43684  -0.42340  -0.41059  -0.38395  -0.37169
 Alpha  occ. eigenvalues --   -0.35903  -0.35559  -0.34769  -0.33737  -0.32168
 Alpha  occ. eigenvalues --   -0.31348  -0.30798  -0.30095  -0.29579  -0.29019
 Alpha  occ. eigenvalues --   -0.26057  -0.24412  -0.23241  -0.22493  -0.22414
 Alpha  occ. eigenvalues --   -0.18657  -0.17386  -0.16424  -0.15020  -0.13236
 Alpha  occ. eigenvalues --   -0.12057  -0.11734  -0.11094  -0.10560   0.03915
 Alpha virt. eigenvalues --    0.05619   0.06124   0.07918   0.09074   0.09294
 Alpha virt. eigenvalues --    0.09610   0.10148   0.11262   0.11642   0.11822
 Alpha virt. eigenvalues --    0.12389   0.13113   0.13605   0.14196   0.14562

  Beta  occ. eigenvalues --  -18.93303 -14.28123 -14.23878 -14.21670 -14.21014
  Beta  occ. eigenvalues --  -14.20487 -14.14648 -10.14674 -10.14543 -10.10103
  Beta  occ. eigenvalues --  -10.08949 -10.08833 -10.06241 -10.05011 -10.04178
  Beta  occ. eigenvalues --  -10.03708 -10.03285 -10.03210  -0.94284  -0.88633
  Beta  occ. eigenvalues --   -0.84952  -0.82906  -0.76144  -0.75372  -0.73307
  Beta  occ. eigenvalues --   -0.70298  -0.66536  -0.62303  -0.60848  -0.53055
  Beta  occ. eigenvalues --   -0.51370  -0.50929  -0.48134  -0.46439  -0.45909
  Beta  occ. eigenvalues --   -0.43537  -0.42236  -0.41025  -0.38277  -0.36974
  Beta  occ. eigenvalues --   -0.35814  -0.35501  -0.34695  -0.33594  -0.32033
  Beta  occ. eigenvalues --   -0.31286  -0.30353  -0.29889  -0.29272  -0.28721
  Beta  occ. eigenvalues --   -0.25285  -0.24157  -0.22732  -0.22320  -0.21880
  Beta  occ. eigenvalues --   -0.18638  -0.17143  -0.16072  -0.14921  -0.12224
  Beta  occ. eigenvalues --   -0.11912  -0.11339  -0.10532  -0.10277
  Beta virt. eigenvalues --    0.05775   0.06926   0.07837   0.08616   0.09039
  Beta virt. eigenvalues --    0.09521   0.09894   0.10227   0.11209   0.11748
  Beta virt. eigenvalues --    0.12041   0.12783   0.13350   0.13646   0.14441

 Mulliken charges and spin densities:
               1          2
     1  C   -0.339762  -0.054905
     2  C   -0.675205   0.110862
     3  C    0.790091   0.037125
     4  C   -0.425670   0.073813
     5  C   -0.354833   0.006062
     6  C    0.183005   0.220537
     7  N    0.326108   0.001182
     8  C   -0.126978  -0.082535
     9  C    0.030175   0.001133
    10  C   -0.298297  -0.009241
    11  N   -0.166038   0.003463
    12  N   -0.342389  -0.015883
    13  C   -0.657867  -0.035697
    14  O   -0.426169   0.111030
    15  N   -0.113536  -0.115501
    16  C    0.643143  -0.123956
    17  N   -0.466513   0.046966
    18  N   -0.350583   0.048701
    19  H    0.131157   0.003640
    20  H    0.164588  -0.006613
    21  H    0.285682   0.005717
    22  H    0.185398  -0.015107
    23  H    0.099916   0.042888
    24  H    0.114907   0.000820
    25  H    0.239052   0.024185
    26  H    0.139627   0.102792
    27  H    0.173042   0.056947
    28  H    0.301763   0.001561
    29  H    0.240918   0.009347
    30  H   -0.304731   0.550662
 Sum of Mulliken charges =  -1.00000   1.00000

 Dipole moment (field-independent basis, Debye):
    X=              5.9477    Y=             -0.0623    Z=              2.6079  Tot=              6.4946
 Quadrupole moment (field-independent basis, Debye-Ang):
   XX=           -154.9353   YY=           -131.1672   ZZ=           -117.1116
   XY=             -4.5714   XZ=              2.8297   YZ=              0.1779

 Summary of Natural Population Analysis:

                                       Natural Population
                Natural  -----------------------------------------------
    Atom  No    Charge         Core      Valence    Rydberg      Total
 -----------------------------------------------------------------------
      C    1   -0.11957      0.99958     2.11095    0.00904     3.11957
      C    2   -0.06032      0.99954     2.05192    0.00887     3.06032
      C    3   -0.03761      0.99947     2.02833    0.00981     3.03761
      C    4   -0.06937      0.99950     2.06265    0.00723     3.06937
      C    5    0.06083      0.99947     1.92964    0.01006     2.93917
      C    6   -0.07875      0.99954     2.07110    0.00811     3.07875
      N    7   -0.12018      0.99958     2.60698    0.01362     3.62018
      C    8    0.18026      0.99953     1.80646    0.01375     2.81974
      C    9   -0.19982      0.99952     2.19269    0.00762     3.19982
      C   10   -0.00986      0.99966     1.99591    0.01429     3.00986
      N   11   -0.15193      0.99974     2.64159    0.01061     3.65193
      N   12   -0.40463      0.99972     2.89545    0.00946     3.90463
      C   13    0.36225      0.99963     1.61659    0.02153     2.63775
      O   14   -0.32321      0.99987     3.31810    0.00523     4.32321
      N   15   -0.35776      0.99964     2.84962    0.00849     3.85776
      C   16    0.35728      0.99968     1.62740    0.01565     2.64272
      N   17   -0.40586      0.99968     2.89783    0.00834     3.90586
      N   18   -0.39787      0.99970     2.88888    0.00929     3.89787
      H   19    0.09223      0.00000     0.40675    0.00102     0.40777
      H   20    0.10724      0.00000     0.39164    0.00113     0.39276
      H   21    0.12061      0.00000     0.37808    0.00131     0.37939
      H   22    0.10005      0.00000     0.39858    0.00137     0.39995
      H   23    0.10216      0.00000     0.39685    0.00099     0.39784
      H   24    0.09254      0.00000     0.40659    0.00088     0.40746
      H   25    0.19347      0.00000     0.30479    0.00174     0.30653
      H   26    0.18331      0.00000     0.31493    0.00176     0.31669
      H   27    0.18462      0.00000     0.31387    0.00151     0.31538
      H   28    0.21790      0.00000     0.27981    0.00229     0.28210
      H   29    0.19514      0.00000     0.30272    0.00214     0.30486
      H   30    0.18685      0.00000     0.30722    0.00593     0.31315
 =======================================================================
   * Total *   -0.00000     17.99305    45.79390    0.21305    64.00000

 Normal termination of Gaussian 16 at Fri Dec 11 21:46:42 2020.
