 Gaussian 16, Revision A.03,

 -----------------------------------------------------------
 # opt freq B3LYP/6-31G(d) empiricaldispersion=gd3bj scf=xqc
 -----------------------------------------------------------

 ------------------------------
 CID_64793375_JID_8153_neutraal
 ------------------------------
 Symbolic Z-matrix:
 Charge =  0 Multiplicity = 1

 SCF Done:  E(RB3LYP) =  -801.932107699     A.U. after   15 cycles
 SCF Done:  E(RB3LYP) =  -801.934801567     A.U. after   13 cycles
 SCF Done:  E(RB3LYP) =  -801.934649568     A.U. after   14 cycles
 SCF Done:  E(RB3LYP) =  -801.936654748     A.U. after   11 cycles
 SCF Done:  E(RB3LYP) =  -801.937356420     A.U. after   12 cycles
 SCF Done:  E(RB3LYP) =  -801.938636451     A.U. after   15 cycles
 SCF Done:  E(RB3LYP) =  -801.939121837     A.U. after   12 cycles
 SCF Done:  E(RB3LYP) =  -801.939627143     A.U. after   12 cycles
 SCF Done:  E(RB3LYP) =  -801.939974553     A.U. after   12 cycles
 SCF Done:  E(RB3LYP) =  -801.940106075     A.U. after   11 cycles
 SCF Done:  E(RB3LYP) =  -801.940585944     A.U. after   10 cycles
 SCF Done:  E(RB3LYP) =  -801.940587809     A.U. after    9 cycles
 SCF Done:  E(RB3LYP) =  -801.940588301     A.U. after    9 cycles
 SCF Done:  E(RB3LYP) =  -801.940588479     A.U. after    7 cycles
 SCF Done:  E(RB3LYP) =  -801.940588536     A.U. after    7 cycles
 Optimization completed.
    -- Stationary point found.
 Normal termination of Gaussian 16 at Sun Dec 13 12:36:04 2020.

 --------------------------------------------------------------------
 #N Geom=AllCheck Guess=TCheck SCRF=Check GenChk RB3LYP/6-31G(d) Freq
 --------------------------------------------------------------------

 Structure from the checkpoint file:  "JID_8153.chk"
 ------------------------------
 CID_64793375_JID_8153_neutraal
 ------------------------------
 Charge =  0 Multiplicity = 1

 SCF Done:  E(RB3LYP) =  -801.940588536     A.U. after    1 cycles

  Exact polarizability: 205.175  -3.337 172.684  23.960   3.302 111.406
 Approx polarizability: 285.850 -18.330 285.584  58.573   6.150 195.446

 ******    1 imaginary frequencies (negative Signs) ******

                      1                      2                      3
                      A                      A                      A
 Frequencies --    -50.2548                25.8986                38.5203
 Red. masses --      1.0260                 5.2456                 4.0108
 Frc consts  --      0.0015                 0.0021                 0.0035
 IR Inten    --      0.1877                 2.1041                 2.0899

                      4                      5                      6
                      A                      A                      A
 Frequencies --     49.3020                63.7781                94.1117
 Red. masses --      4.7122                 3.5145                 4.8916
 Frc consts  --      0.0067                 0.0084                 0.0255
 IR Inten    --      2.3045                 0.7956                 0.1495

                      7                      8                      9
                      A                      A                      A
 Frequencies --     99.1131               141.5820               173.5859
 Red. masses --      5.8723                 3.8809                 4.8864
 Frc consts  --      0.0340                 0.0458                 0.0867
 IR Inten    --      1.4947                 0.2502                 0.7439

                     10                     11                     12
                      A                      A                      A
 Frequencies --    216.9757               240.2064               297.2340
 Red. masses --      4.4463                 4.0091                 4.3357
 Frc consts  --      0.1233                 0.1363                 0.2257
 IR Inten    --      5.3701                 2.9544                12.4296

                     13                     14                     15
                      A                      A                      A
 Frequencies --    333.9003               354.1312               358.3279
 Red. masses --      6.7289                 1.8559                 3.0072
 Frc consts  --      0.4420                 0.1371                 0.2275
 IR Inten    --      2.1764                93.7732                 1.4848

                     16                     17                     18
                      A                      A                      A
 Frequencies --    392.8232               411.6763               420.9126
 Red. masses --      2.6219                 2.9604                 3.4292
 Frc consts  --      0.2384                 0.2956                 0.3580
 IR Inten    --     28.1121                44.8207                 0.3258

                     19                     20                     21
                      A                      A                      A
 Frequencies --    426.4823               469.7850               511.6810
 Red. masses --      3.0874                 3.2816                 3.4428
 Frc consts  --      0.3309                 0.4267                 0.5311
 IR Inten    --      0.2476                41.3726                 6.1926

                     22                     23                     24
                      A                      A                      A
 Frequencies --    529.2776               556.4119               599.3558
 Red. masses --      3.6216                 1.4044                 4.3082
 Frc consts  --      0.5978                 0.2562                 0.9118
 IR Inten    --      2.9918                87.5834                24.7778

                     25                     26                     27
                      A                      A                      A
 Frequencies --    637.7022               655.2235               661.1825
 Red. masses --      4.8846                 7.3985                 5.7402
 Frc consts  --      1.1704                 1.8714                 1.4785
 IR Inten    --      4.4737                 1.2206                 0.0763

                     28                     29                     30
                      A                      A                      A
 Frequencies --    693.4335               732.3330               736.0903
 Red. masses --      4.8543                 4.8265                 4.1130
 Frc consts  --      1.3753                 1.5251                 1.3130
 IR Inten    --     16.0482                 7.1545                 7.2852

                     31                     32                     33
                      A                      A                      A
 Frequencies --    770.1168               799.2276               847.4601
 Red. masses --      3.1965                 3.0169                 1.4390
 Frc consts  --      1.1169                 1.1354                 0.6089
 IR Inten    --     42.6447                 6.6292                13.8493

                     34                     35                     36
                      A                      A                      A
 Frequencies --    848.4512               854.4813               860.0632
 Red. masses --      4.0520                 1.5609                 1.6525
 Frc consts  --      1.7186                 0.6715                 0.7202
 IR Inten    --      2.5568                 6.1925                17.6508

                     37                     38                     39
                      A                      A                      A
 Frequencies --    915.4510               961.0183               969.8606
 Red. masses --      4.1130                 1.3122                 1.4219
 Frc consts  --      2.0308                 0.7140                 0.7880
 IR Inten    --     21.3090                 2.2518                 2.3458

                     40                     41                     42
                      A                      A                      A
 Frequencies --    970.6136               993.0330               998.4944
 Red. masses --      1.3399                 1.3206                 1.5413
 Frc consts  --      0.7438                 0.7673                 0.9054
 IR Inten    --      1.4400                 4.1642                35.3912

                     43                     44                     45
                      A                      A                      A
 Frequencies --   1010.8275              1039.8387              1045.6237
 Red. masses --      1.4446                 2.8678                 3.5020
 Frc consts  --      0.8697                 1.8269                 2.2559
 IR Inten    --      7.6103                 8.3130                30.3237

                     46                     47                     48
                      A                      A                      A
 Frequencies --   1073.1249              1077.2454              1144.7990
 Red. masses --      1.5866                 5.4161                 1.6588
 Frc consts  --      1.0765                 3.7031                 1.2808
 IR Inten    --      6.4326                83.3598                12.6853

                     49                     50                     51
                      A                      A                      A
 Frequencies --   1155.6716              1177.4118              1210.8162
 Red. masses --      2.2336                 1.3427                 1.1839
 Frc consts  --      1.7576                 1.0967                 1.0226
 IR Inten    --     10.8832                11.3588                 7.5153

                     52                     53                     54
                      A                      A                      A
 Frequencies --   1215.6016              1239.4935              1269.3612
 Red. masses --      1.1382                 2.4270                 2.7701
 Frc consts  --      0.9910                 2.1969                 2.6298
 IR Inten    --      9.8141                 6.2101                34.4561

                     55                     56                     57
                      A                      A                      A
 Frequencies --   1274.6009              1314.4164              1332.8453
 Red. masses --      2.5493                 7.0216                 1.7326
 Frc consts  --      2.4402                 7.1475                 1.8135
 IR Inten    --      4.8826                 3.5944                33.4880

                     58                     59                     60
                      A                      A                      A
 Frequencies --   1334.4145              1347.0940              1365.3502
 Red. masses --      1.5606                 2.6600                 3.4480
 Frc consts  --      1.6373                 2.8440                 3.7871
 IR Inten    --     29.3552                48.0615               425.8612

                     61                     62                     63
                      A                      A                      A
 Frequencies --   1397.5157              1426.8909              1431.6110
 Red. masses --      1.4441                 2.9024                 1.4093
 Frc consts  --      1.6618                 3.4816                 1.7018
 IR Inten    --      1.2662                38.8507                57.3118

                     64                     65                     66
                      A                      A                      A
 Frequencies --   1432.6733              1445.7806              1495.2806
 Red. masses --      1.3075                 1.8959                 2.1191
 Frc consts  --      1.5811                 2.3350                 2.7915
 IR Inten    --      7.1043                48.0555                16.7470

                     67                     68                     69
                      A                      A                      A
 Frequencies --   1504.7956              1515.3641              1530.1881
 Red. masses --      1.1835                 1.0451                 1.0938
 Frc consts  --      1.5789                 1.4140                 1.5090
 IR Inten    --     19.2078                 6.9252                 2.6232

                     70                     71                     72
                      A                      A                      A
 Frequencies --   1540.7538              1565.9242              1614.7521
 Red. masses --      2.4026                 2.6087                 5.3620
 Frc consts  --      3.3605                 3.7689                 8.2374
 IR Inten    --     15.6325                79.3403                11.6150

                     73                     74                     75
                      A                      A                      A
 Frequencies --   1637.2606              1656.8286              1674.9788
 Red. masses --      6.2685                 5.8235                 5.8319
 Frc consts  --      9.9003                 9.4187                 9.6400
 IR Inten    --      9.2090               111.3921                31.1870

                     76                     77                     78
                      A                      A                      A
 Frequencies --   1768.9707              3001.7139              3050.1451
 Red. masses --      8.6848                 1.0706                 1.0392
 Frc consts  --     16.0122                 5.6835                 5.6964
 IR Inten    --    417.2060                58.2117                16.4515

                     79                     80                     81
                      A                      A                      A
 Frequencies --   3076.8960              3101.6435              3162.7409
 Red. masses --      1.0927                 1.1005                 1.0997
 Frc consts  --      6.0953                 6.2375                 6.4810
 IR Inten    --     25.4282                15.4099                 7.5545

                     82                     83                     84
                      A                      A                      A
 Frequencies --   3181.5322              3191.2340              3196.2743
 Red. masses --      1.0892                 1.0889                 1.0896
 Frc consts  --      6.4955                 6.5335                 6.5585
 IR Inten    --     14.4130                 6.9503                12.9263

                     85                     86                     87
                      A                      A                      A
 Frequencies --   3200.4026              3214.2405              3223.5239
 Red. masses --      1.0909                 1.0929                 1.0938
 Frc consts  --      6.5830                 6.6526                 6.6966
 IR Inten    --      3.4123                 7.1560                 4.4227

                     88                     89                     90
                      A                      A                      A
 Frequencies --   3224.9568              3576.6291              3731.5108
 Red. masses --      1.0929                 1.0752                 1.0660
 Frc consts  --      6.6968                 8.1039                 8.7456
 IR Inten    --      8.4794                36.3001                12.4125

 - Thermochemistry -
 -------------------
 Temperature   298.150 Kelvin.  Pressure   1.00000 Atm.
 Atom     1 has atomic number  6 and mass  12.00000

 Molecular mass:   242.10553 amu.
 Principal axes and moments of inertia in atomic units:
                           1         2         3
     Eigenvalues --  2580.149147924.882119782.11038
           X            0.99987   0.01582  -0.00156
           Y           -0.01581   0.99987   0.00310
           Z            0.00160  -0.00307   0.99999
 This molecule is an asymmetric top.
 Rotational symmetry number  1.
 Warning -- assumption of classical behavior for rotation
           may cause significant error
 Rotational temperatures (Kelvin)      0.03357     0.01093     0.00885
 Rotational constants (GHZ):           0.69947     0.22773     0.18449
    1 imaginary frequencies ignored.
 Zero-point vibrational energy     676553.2 (Joules/Mol)
                                  161.70009 (Kcal/Mol)
 Warning -- explicit consideration of  23 degrees of freedom as
           vibrations may cause significant error
 Vibrational temperatures:     37.26    55.42    70.93    91.76   135.41
          (Kelvin)            142.60   203.70   249.75   312.18   345.60
                              427.65   480.41   509.52   515.55   565.18
                              592.31   605.60   613.61   675.92   736.19
                              761.51   800.55   862.34   917.51   942.72
                              951.29   997.70  1053.66  1059.07  1108.03
                             1149.91  1219.31  1220.73  1229.41  1237.44
                             1317.13  1382.69  1395.41  1396.50  1428.75
                             1436.61  1454.36  1496.10  1504.42  1543.99
                             1549.92  1647.11  1662.75  1694.03  1742.09
                             1748.98  1783.35  1826.33  1833.87  1891.15
                             1917.67  1919.92  1938.17  1964.43  2010.71
                             2052.98  2059.77  2061.30  2080.16  2151.38
                             2165.07  2180.27  2201.60  2216.80  2253.02
                             2323.27  2355.65  2383.81  2409.92  2545.15
                             4318.80  4388.48  4426.97  4462.57  4550.48
                             4577.52  4591.47  4598.73  4604.67  4624.58
                             4637.93  4639.99  5145.97  5368.81

 Zero-point correction=                           0.257685 (Hartree/Particle)
 Thermal correction to Energy=                    0.273193
 Thermal correction to Enthalpy=                  0.274137
 Thermal correction to Gibbs Free Energy=         0.212879
 Sum of electronic and zero-point Energies=           -801.682903
 Sum of electronic and thermal Energies=              -801.667396
 Sum of electronic and thermal Enthalpies=            -801.666452
 Sum of electronic and thermal Free Energies=         -801.727709

                     E (Thermal)             CV                S
                      KCal/Mol        Cal/Mol-Kelvin    Cal/Mol-Kelvin
 Total                  171.431             59.474            128.927
 Electronic               0.000              0.000              0.000
 Translational            0.889              2.981             42.354
 Rotational               0.889              2.981             33.658
 Vibrational            169.654             53.512             52.916
 Vibration     1          0.593              1.985              6.121
 Vibration     2          0.594              1.981              5.334
 Vibration     3          0.595              1.978              4.845
 Vibration     4          0.597              1.972              4.337
 Vibration     5          0.603              1.953              3.573
 Vibration     6          0.604              1.950              3.472
 Vibration     7          0.615              1.912              2.782
 Vibration     8          0.627              1.875              2.396
 Vibration     9          0.646              1.815              1.984
 Vibration    10          0.657              1.779              1.801
 Vibration    11          0.691              1.679              1.432
 Vibration    12          0.715              1.608              1.241
 Vibration    13          0.730              1.567              1.148
 Vibration    14          0.733              1.558              1.129
 Vibration    15          0.760              1.486              0.989
 Vibration    16          0.776              1.445              0.921
 Vibration    17          0.783              1.425              0.889
 Vibration    18          0.788              1.413              0.870
 Vibration    19          0.827              1.317              0.738
 Vibration    20          0.867              1.224              0.630
 Vibration    21          0.884              1.185              0.589
 Vibration    22          0.912              1.126              0.531
 Vibration    23          0.957              1.033              0.451

                           ! Non-Optimized Parameters !
 Normal termination of Gaussian 16 at Sun Dec 13 12:47:51 2020.

 ----------------------------------------------------------------------
 # B3LYP/6-311++G(d,p) empiricaldispersion=gd3bj scf=xqc pop=npa geom=c
 heck
 ----------------------------------------------------------------------

 --------------------------------------
 CID_64793375_JID_8153_Energie_neutraal
 --------------------------------------
 Structure from the checkpoint file:  "JID_8153.chk"
 Charge =  0 Multiplicity = 1

 SCF Done:  E(RB3LYP) =  -802.167478895     A.U. after   17 cycles
 Normal termination of Gaussian 16 at Sun Dec 13 12:54:15 2020.

 ----------------------------------------------------------------------
 # B3LYP/6-311++G(d,p) empiricaldispersion=gd3bj scf=xqc pop=npa geom=c
 heck
 ----------------------------------------------------------------------

 ------------------------------------
 CID_64793375_JID_8153_Energie_kation
 ------------------------------------
 Structure from the checkpoint file:  "JID_8153.chk"
 Charge =  1 Multiplicity = 2

 SCF Done:  E(UB3LYP) =  -801.864585845     A.U. after   27 cycles
 Normal termination of Gaussian 16 at Sun Dec 13 13:08:43 2020.
 Gaussian 16:  ES64L-G16RevA.03 25-Dec-2016

 ----------------------------------------------------------------------
 # B3LYP/6-311++G(d,p) empiricaldispersion=gd3bj scf=xqc pop=npa geom=c
 heck
 ----------------------------------------------------------------------

 -----------------------------------
 CID_64793375_JID_8153_Energie_anion
 -----------------------------------
 Structure from the checkpoint file:  "JID_8153.chk"
 Charge = -1 Multiplicity = 2

                         Standard orientation:
 ---------------------------------------------------------------------
 Center     Atomic      Atomic             Coordinates (Angstroms)
 Number     Number       Type             X           Y           Z
 ---------------------------------------------------------------------
      1          6           0       -4.166302   -2.869933    0.171724
      2          6           0       -3.369737   -1.591323    0.154866
      3          7           0       -3.783080   -0.626731   -0.683495
      4          6           0       -3.097012    0.519520   -0.710993
      5          6           0       -1.955725    0.768313    0.057868
      6          6           0       -1.534517   -0.237943    0.936050
      7          6           0       -2.252577   -1.423843    0.987716
      8          6           0       -1.320377    2.116547   -0.040711
      9          8           0       -1.985586    3.120894   -0.263277
     10          7           0        0.040319    2.219887    0.189853
     11          6           0        1.055259    1.242331    0.046998
     12          6           0        2.167801    1.294345    0.895685
     13          6           0        3.193711    0.362592    0.767627
     14          6           0        3.125517   -0.649050   -0.196849
     15          6           0        2.016023   -0.686961   -1.047165
     16          6           0        0.993629    0.251868   -0.941117
     17          6           0        4.225940   -1.683677   -0.301061
     18          8           0        5.514916   -1.169996    0.008786
     19          1           0       -4.591812   -3.056381    1.165326
     20          1           0       -4.980150   -2.804853   -0.552744
     21          1           0       -3.536503   -3.732577   -0.077495
     22          1           0       -3.463453    1.293781   -1.380225
     23          1           0       -0.668332   -0.090315    1.571904
     24          1           0       -1.957323   -2.219074    1.666081
     25          1           0        0.340088    3.186929    0.246166
     26          1           0        2.215936    2.063143    1.662140
     27          1           0        4.058711    0.409076    1.421850
     28          1           0        1.957547   -1.449323   -1.820521
     29          1           0        0.154271    0.226045   -1.626640
     30          1           0        4.062662   -2.488028    0.425910
     31          1           0        4.204309   -2.147255   -1.300223
     32          1           0        5.678945   -0.427166   -0.593932
 ---------------------------------------------------------------------

 SCF Done:  E(UB3LYP) =  -802.178086292     A.U. after   33 cycles
 SCF Done:  E(UB3LYP) =  -802.178086292     a.u. after    1 cycles

 The electronic state is 2-A.
 Alpha  occ. eigenvalues --  -19.03527 -18.94073 -14.21363 -14.17252 -10.12580
 Alpha  occ. eigenvalues --  -10.12090 -10.09630 -10.06856 -10.06694 -10.06689
 Alpha  occ. eigenvalues --  -10.06420 -10.06401 -10.06356 -10.06098 -10.05298
 Alpha  occ. eigenvalues --  -10.05264 -10.04740 -10.03897  -0.93618  -0.89891
 Alpha  occ. eigenvalues --   -0.80796  -0.80660  -0.73997  -0.67375  -0.65566
 Alpha  occ. eigenvalues --   -0.65177  -0.64063  -0.58664  -0.57642  -0.51819
 Alpha  occ. eigenvalues --   -0.50205  -0.49420  -0.48644  -0.45059  -0.42979
 Alpha  occ. eigenvalues --   -0.41367  -0.38212  -0.37579  -0.35660  -0.34955
 Alpha  occ. eigenvalues --   -0.34634  -0.33715  -0.32775  -0.31691  -0.31426
 Alpha  occ. eigenvalues --   -0.30723  -0.29029  -0.28881  -0.28243  -0.27441
 Alpha  occ. eigenvalues --   -0.26431  -0.25539  -0.25003  -0.24018  -0.23478
 Alpha  occ. eigenvalues --   -0.23347  -0.19621  -0.17491  -0.16144  -0.14814
 Alpha  occ. eigenvalues --   -0.13742  -0.12578  -0.11493  -0.10871   0.03991
 Alpha virt. eigenvalues --    0.06510   0.07868   0.08382   0.08461   0.08607
 Alpha virt. eigenvalues --    0.08821   0.10072   0.10549   0.10788   0.10920
 Alpha virt. eigenvalues --    0.11300   0.11492   0.12265   0.13119   0.13948

  Beta  occ. eigenvalues --  -19.03502 -18.93734 -14.21427 -14.17318 -10.12585
  Beta  occ. eigenvalues --  -10.11842 -10.09475 -10.06701 -10.06676 -10.06494
  Beta  occ. eigenvalues --  -10.06321 -10.06292 -10.06260 -10.06091 -10.05293
  Beta  occ. eigenvalues --  -10.05173 -10.04808 -10.03784  -0.93553  -0.89341
  Beta  occ. eigenvalues --   -0.80572  -0.80460  -0.73852  -0.67111  -0.65231
  Beta  occ. eigenvalues --   -0.64966  -0.63958  -0.58435  -0.57538  -0.51609
  Beta  occ. eigenvalues --   -0.50020  -0.49215  -0.48281  -0.44833  -0.42913
  Beta  occ. eigenvalues --   -0.41293  -0.38069  -0.37477  -0.35468  -0.34813
  Beta  occ. eigenvalues --   -0.34414  -0.33559  -0.32645  -0.31610  -0.31022
  Beta  occ. eigenvalues --   -0.30516  -0.28898  -0.28749  -0.27651  -0.27051
  Beta  occ. eigenvalues --   -0.25949  -0.25358  -0.24865  -0.23469  -0.23316
  Beta  occ. eigenvalues --   -0.23146  -0.19476  -0.16823  -0.15577  -0.14442
  Beta  occ. eigenvalues --   -0.13390  -0.12102  -0.10653  -0.10357
  Beta virt. eigenvalues --    0.06520   0.07819   0.08201   0.08446   0.08696
  Beta virt. eigenvalues --    0.08829   0.09587   0.10366   0.10640   0.10799
  Beta virt. eigenvalues --    0.11020   0.11271   0.11867   0.12240   0.13046

 Mulliken charges and spin densities:
               1          2
     1  C   -0.573417  -0.049256
     2  C   -0.244580   0.210986
     3  N   -0.029418  -0.035913
     4  C   -0.265141   0.133804
     5  C    0.287309   0.047497
     6  C    0.409222   0.136734
     7  C   -0.481657  -0.033385
     8  C   -0.399105   0.095508
     9  O   -0.386628   0.121470
    10  N   -0.191895  -0.034084
    11  C   -0.288348  -0.028539
    12  C   -0.407484   0.109616
    13  C   -0.271940   0.207309
    14  C    0.237282   0.188651
    15  C   -0.392906  -0.171514
    16  C    0.193573   0.085701
    17  C   -0.118182  -0.326793
    18  O   -0.236407  -0.003790
    19  H    0.115384   0.016916
    20  H    0.135829   0.002280
    21  H    0.101241   0.036959
    22  H    0.204147  -0.005698
    23  H    0.202973  -0.003115
    24  H    0.151935   0.005507
    25  H    0.269849   0.038722
    26  H    0.141098   0.003645
    27  H    0.143886   0.026950
    28  H    0.132392   0.002335
    29  H    0.221952   0.001418
    30  H    0.049161   0.118001
    31  H    0.136214   0.030614
    32  H    0.153662   0.071463
 Sum of Mulliken charges =  -1.00000   1.00000

 Dipole moment (field-independent basis, Debye):
    X=              4.5604    Y=             -2.4021    Z=              0.3412  Tot=              5.1656
 Quadrupole moment (field-independent basis, Debye-Ang):
   XX=           -178.9020   YY=           -135.5629   ZZ=           -113.1687
   XY=             16.0686   XZ=             -8.4349   YZ=              2.7190

 Summary of Natural Population Analysis:

                                       Natural Population
                Natural  -----------------------------------------------
    Atom  No    Charge         Core      Valence    Rydberg      Total
 -----------------------------------------------------------------------
      C    1   -0.30107      0.99964     2.29722    0.00421     3.30107
      C    2    0.16394      0.99956     1.82408    0.01242     2.83606
      N    3   -0.26280      0.99969     2.75208    0.01103     3.76280
      C    4    0.07316      0.99956     1.91443    0.01286     2.92684
      C    5   -0.08205      0.99946     2.06901    0.01358     3.08205
      C    6   -0.04641      0.99954     2.03779    0.00908     3.04641
      C    7   -0.14728      0.99952     2.13824    0.00953     3.14728
      C    8    0.36843      0.99963     1.61086    0.02107     2.63157
      O    9   -0.29248      0.99988     3.28697    0.00564     4.29248
      N   10   -0.32935      0.99965     2.81903    0.01068     3.82935
      C   11    0.09963      0.99947     1.88977    0.01113     2.90037
      C   12   -0.10815      0.99953     2.09863    0.01000     3.10815
      C   13   -0.10389      0.99953     2.09531    0.00906     3.10389
      C   14   -0.02981      0.99950     2.02146    0.00886     3.02981
      C   15   -0.09604      0.99953     2.08693    0.00958     3.09604
      C   16   -0.10438      0.99952     2.09641    0.00844     3.10438
      C   17   -0.01204      0.99956     2.00042    0.01206     3.01204
      O   18   -0.36794      0.99990     3.36142    0.00662     4.36794
      H   19    0.09905      0.00000     0.40006    0.00089     0.40095
      H   20    0.10500      0.00000     0.39390    0.00110     0.39500
      H   21    0.09954      0.00000     0.39958    0.00088     0.40046
      H   22    0.09185      0.00000     0.40693    0.00122     0.40815
      H   23    0.10074      0.00000     0.39812    0.00114     0.39926
      H   24    0.09523      0.00000     0.40389    0.00087     0.40477
      H   25    0.19413      0.00000     0.30415    0.00172     0.30587
      H   26    0.09716      0.00000     0.40161    0.00123     0.40284
      H   27    0.10230      0.00000     0.39653    0.00117     0.39770
      H   28    0.09556      0.00000     0.40316    0.00128     0.40444
      H   29    0.10881      0.00000     0.39011    0.00108     0.39119
      H   30    0.08872      0.00000     0.40945    0.00183     0.41128
      H   31    0.07524      0.00000     0.42306    0.00170     0.42476
      H   32    0.22522      0.00000     0.27142    0.00336     0.27478
 =======================================================================
   * Total *    0.00000     17.99266    45.80201    0.20533    64.00000

 Normal termination of Gaussian 16 at Sun Dec 13 13:26:41 2020.
