 Gaussian 16, Revision A.03,

 -----------------------------------------------------------
 # opt freq B3LYP/6-31G(d) empiricaldispersion=gd3bj scf=xqc
 -----------------------------------------------------------

 -------------------------------
 CID_141840324_JID_3869_neutraal
 -------------------------------
 Symbolic Z-matrix:
 Charge =  0 Multiplicity = 1

 SCF Done:  E(RB3LYP) =  -877.563840624     A.U. after   16 cycles
 SCF Done:  E(RB3LYP) =  -877.570473609     A.U. after   12 cycles
 SCF Done:  E(RB3LYP) =  -877.570894714     A.U. after   12 cycles
 SCF Done:  E(RB3LYP) =  -877.571050646     A.U. after   11 cycles
 SCF Done:  E(RB3LYP) =  -877.571168316     A.U. after   11 cycles
 SCF Done:  E(RB3LYP) =  -877.571233632     A.U. after   11 cycles
 SCF Done:  E(RB3LYP) =  -877.571243099     A.U. after   11 cycles
 SCF Done:  E(RB3LYP) =  -877.571244756     A.U. after    9 cycles
 SCF Done:  E(RB3LYP) =  -877.571245107     A.U. after    8 cycles
 SCF Done:  E(RB3LYP) =  -877.571245191     A.U. after    7 cycles
 SCF Done:  E(RB3LYP) =  -877.571245212     A.U. after    6 cycles
 Optimization completed.
    -- Stationary point found.
 Normal termination of Gaussian 16 at Mon Dec 14 16:28:49 2020.

 --------------------------------------------------------------------
 #N Geom=AllCheck Guess=TCheck SCRF=Check GenChk RB3LYP/6-31G(d) Freq
 --------------------------------------------------------------------

 Structure from the checkpoint file:  "JID_3869.chk"
 -------------------------------
 CID_141840324_JID_3869_neutraal
 -------------------------------
 Charge =  0 Multiplicity = 1

 SCF Done:  E(RB3LYP) =  -877.571245212     A.U. after    1 cycles

  Exact polarizability: 183.285   2.567 172.907  -1.717  -0.355  53.279
 Approx polarizability: 320.760   2.208 313.924  -9.717  -0.377  85.623

                      1                      2                      3
                      A                      A                      A
 Frequencies --     63.9061               156.4495               166.3671
 Red. masses --      3.5010                 2.1668                 2.4492
 Frc consts  --      0.0084                 0.0312                 0.0399
 IR Inten    --      4.5849                 1.7671                 1.0185

                      4                      5                      6
                      A                      A                      A
 Frequencies --    200.1646               225.4196               276.8445
 Red. masses --      2.1881                 4.2742                 2.5194
 Frc consts  --      0.0517                 0.1280                 0.1138
 IR Inten    --      6.8800                 1.3695                 0.7953

                      7                      8                      9
                      A                      A                      A
 Frequencies --    299.3591               390.1453               430.4129
 Red. masses --      4.7890                 5.6102                 7.9876
 Frc consts  --      0.2529                 0.5031                 0.8718
 IR Inten    --     12.3281                 7.9142                 3.0114

                     10                     11                     12
                      A                      A                      A
 Frequencies --    458.4406               477.2084               482.5225
 Red. masses --      7.8210                 3.6653                 4.7640
 Frc consts  --      0.9685                 0.4918                 0.6535
 IR Inten    --      3.6925                 0.7647                 3.8751

                     13                     14                     15
                      A                      A                      A
 Frequencies --    520.5470               568.0300               580.4952
 Red. masses --      5.9584                 5.9833                 8.0553
 Frc consts  --      0.9513                 1.1375                 1.5993
 IR Inten    --      0.5152                 4.2914                 4.3678

                     16                     17                     18
                      A                      A                      A
 Frequencies --    607.4075               640.9501               707.1691
 Red. masses --      4.3500                 3.8057                 5.6840
 Frc consts  --      0.9456                 0.9211                 1.6748
 IR Inten    --      1.2295                 3.3603                 3.4595

                     19                     20                     21
                      A                      A                      A
 Frequencies --    752.5280               772.3443               804.5065
 Red. masses --      1.2439                 1.6118                 4.3484
 Frc consts  --      0.4150                 0.5665                 1.6582
 IR Inten    --      4.9725                45.4174                 6.2489

                     22                     23                     24
                      A                      A                      A
 Frequencies --    811.3269               816.8094               840.1660
 Red. masses --      3.5964                 3.9836                 1.3929
 Frc consts  --      1.3948                 1.5659                 0.5793
 IR Inten    --     24.6495                12.9785                 0.3889

                     25                     26                     27
                      A                      A                      A
 Frequencies --    872.0231               953.4683               958.3900
 Red. masses --      1.5186                 5.4020                 1.2763
 Frc consts  --      0.6804                 2.8934                 0.6907
 IR Inten    --      3.4019                12.6262                 0.1959

                     28                     29                     30
                      A                      A                      A
 Frequencies --    968.3208              1022.8100              1081.1586
 Red. masses --      1.2788                 5.3275                 2.2503
 Frc consts  --      0.7065                 3.2837                 1.5497
 IR Inten    --      0.8255                 6.5471                13.3891

                     31                     32                     33
                      A                      A                      A
 Frequencies --   1088.0189              1145.6419              1179.1896
 Red. masses --      1.9112                 1.3974                 1.6969
 Frc consts  --      1.3330                 1.0806                 1.3902
 IR Inten    --      4.1372                51.9123                12.6025

                     34                     35                     36
                      A                      A                      A
 Frequencies --   1188.8423              1197.6647              1228.4733
 Red. masses --      1.2872                 1.5943                 1.9542
 Frc consts  --      1.0719                 1.3474                 1.7376
 IR Inten    --      7.1637                 2.3459                 4.8108

                     37                     38                     39
                      A                      A                      A
 Frequencies --   1242.9047              1262.4674              1337.5252
 Red. masses --      1.7116                 1.9836                 3.0921
 Frc consts  --      1.5579                 1.8627                 3.2592
 IR Inten    --      3.3628                 2.9251                63.1978

                     40                     41                     42
                      A                      A                      A
 Frequencies --   1389.2724              1404.6671              1453.2020
 Red. masses --      3.9819                 3.4246                 5.3423
 Frc consts  --      4.5281                 3.9812                 6.6470
 IR Inten    --      9.8194                90.0746                18.6477

                     43                     44                     45
                      A                      A                      A
 Frequencies --   1471.5617              1482.3339              1496.6778
 Red. masses --      1.7089                 1.3734                 2.4047
 Frc consts  --      2.1804                 1.7780                 3.1736
 IR Inten    --      7.1091                 1.1732                 9.5917

                     46                     47                     48
                      A                      A                      A
 Frequencies --   1520.8332              1526.1470              1548.0320
 Red. masses --      1.0644                 1.0766                 3.5326
 Frc consts  --      1.4505                 1.4774                 4.9877
 IR Inten    --     24.9578                 4.2794                 5.8690

                     49                     50                     51
                      A                      A                      A
 Frequencies --   1623.5873              1647.5957              1665.3460
 Red. masses --      6.1696                 6.0267                 7.0845
 Frc consts  --      9.5821                 9.6390                11.5762
 IR Inten    --    167.7467                10.3877                43.6431

                     52                     53                     54
                      A                      A                      A
 Frequencies --   3021.4877              3115.8598              3149.3955
 Red. masses --      1.0480                 1.0871                 1.1044
 Frc consts  --      5.6369                 6.2183                 6.4538
 IR Inten    --     77.9562                21.0297                 8.8813

                     55                     56                     57
                      A                      A                      A
 Frequencies --   3184.5608              3185.4563              3201.3096
 Red. masses --      1.0861                 1.0861                 1.0930
 Frc consts  --      6.4897                 6.4933                 6.5996
 IR Inten    --      8.8895                 1.8378                 9.8609

                     58                     59                     60
                      A                      A                      A
 Frequencies --   3203.5801              3215.9130              3219.4938
 Red. masses --      1.0926                 1.0940                 1.0927
 Frc consts  --      6.6068                 6.6664                 6.6732
 IR Inten    --     43.2620                15.8865                15.2449

 - Thermochemistry -
 -------------------
 Temperature   298.150 Kelvin.  Pressure   1.00000 Atm.
 Atom     1 has atomic number  6 and mass  12.00000

 Molecular mass:   187.04557 amu.
 Principal axes and moments of inertia in atomic units:
                           1         2         3
     Eigenvalues --  1698.181902191.007223850.46234
           X            0.99694   0.07805   0.00535
           Y           -0.07805   0.99695  -0.00010
           Z           -0.00534  -0.00032   0.99999
 This molecule is an asymmetric top.
 Rotational symmetry number  1.
 Warning -- assumption of classical behavior for rotation
           may cause significant error
 Rotational temperatures (Kelvin)      0.05100     0.03953     0.02249
 Rotational constants (GHZ):           1.06275     0.82370     0.46871
 Zero-point vibrational energy     451606.6 (Joules/Mol)
                                  107.93657 (Kcal/Mol)
 Warning -- explicit consideration of  16 degrees of freedom as
           vibrations may cause significant error
 Vibrational temperatures:     91.95   225.10   239.37   287.99   324.33
          (Kelvin)            398.32   430.71   561.33   619.27   659.59
                              686.60   694.24   748.95   817.27   835.20
                              873.92   922.18  1017.46  1082.72  1111.23
                             1157.51  1167.32  1175.21  1208.81  1254.65
                             1371.83  1378.91  1393.20  1471.60  1555.55
                             1565.42  1648.32  1696.59  1710.48  1723.17
                             1767.50  1788.26  1816.41  1924.40  1998.85
                             2021.00  2090.83  2117.25  2132.75  2153.39
                             2188.14  2195.79  2227.27  2335.98  2370.52
                             2396.06  4347.25  4483.03  4531.28  4581.87
                             4583.16  4605.97  4609.24  4626.98  4632.13

 Zero-point correction=                           0.172008 (Hartree/Particle)
 Thermal correction to Energy=                    0.182078
 Thermal correction to Enthalpy=                  0.183023
 Thermal correction to Gibbs Free Energy=         0.136356
 Sum of electronic and zero-point Energies=           -877.399237
 Sum of electronic and thermal Energies=              -877.389167
 Sum of electronic and thermal Enthalpies=            -877.388223
 Sum of electronic and thermal Free Energies=         -877.434889

                     E (Thermal)             CV                S
                      KCal/Mol        Cal/Mol-Kelvin    Cal/Mol-Kelvin
 Total                  114.256             40.813             98.218
 Electronic               0.000              0.000              0.000
 Translational            0.889              2.981             41.585
 Rotational               0.889              2.981             31.039
 Vibrational            112.478             34.852             25.595
 Vibration     1          0.597              1.972              4.333
 Vibration     2          0.620              1.895              2.592
 Vibration     3          0.624              1.884              2.476
 Vibration     4          0.638              1.840              2.132
 Vibration     5          0.650              1.802              1.915
 Vibration     6          0.678              1.716              1.553
 Vibration     7          0.692              1.675              1.420
 Vibration     8          0.758              1.491              1.000
 Vibration     9          0.792              1.404              0.857
 Vibration    10          0.816              1.342              0.771
 Vibration    11          0.834              1.301              0.718
 Vibration    12          0.839              1.289              0.703
 Vibration    13          0.876              1.204              0.609
 Vibration    14          0.924              1.100              0.508
 Vibration    15          0.937              1.073              0.484
 Vibration    16          0.966              1.016              0.437

 Optimization completed.
    -- Stationary point found.
 Normal termination of Gaussian 16 at Mon Dec 14 16:34:16 2020.

 ----------------------------------------------------------------------
 # B3LYP/6-311++G(d,p) empiricaldispersion=gd3bj scf=xqc pop=npa geom=c
 heck
 ----------------------------------------------------------------------

 ---------------------------------------
 CID_141840324_JID_3869_Energie_neutraal
 ---------------------------------------
 Structure from the checkpoint file:  "JID_3869.chk"
 Charge =  0 Multiplicity = 1

 SCF Done:  E(RB3LYP) =  -877.715630440     A.U. after   17 cycles
 Normal termination of Gaussian 16 at Mon Dec 14 16:36:56 2020.

 ----------------------------------------------------------------------
 # B3LYP/6-311++G(d,p) empiricaldispersion=gd3bj scf=xqc pop=npa geom=c
 heck
 ----------------------------------------------------------------------

 -------------------------------------
 CID_141840324_JID_3869_Energie_kation
 -------------------------------------
 Structure from the checkpoint file:  "JID_3869.chk"
 Charge =  1 Multiplicity = 2

 SCF Done:  E(UB3LYP) =  -877.469746716     A.U. after   23 cycles
 Normal termination of Gaussian 16 at Mon Dec 14 16:42:07 2020.
 Gaussian 16:  ES64L-G16RevA.03 25-Dec-2016

 ----------------------------------------------------------------------
 # B3LYP/6-311++G(d,p) empiricaldispersion=gd3bj scf=xqc pop=npa geom=c
 heck
 ----------------------------------------------------------------------

 ------------------------------------
 CID_141840324_JID_3869_Energie_anion
 ------------------------------------
 Structure from the checkpoint file:  "JID_3869.chk"
 Charge = -1 Multiplicity = 2

                         Standard orientation:
 ---------------------------------------------------------------------
 Center     Atomic      Atomic             Coordinates (Angstroms)
 Number     Number       Type             X           Y           Z
 ---------------------------------------------------------------------
      1          6           0        3.207436    0.340939    0.349474
      2          7           0        1.941755   -0.030604   -0.267169
      3          6           0        0.822861    0.796783   -0.132921
      4          6           0        0.783050    2.183158   -0.093134
      5          6           0       -0.483749    2.811139   -0.019903
      6          6           0       -1.673587    2.107020    0.022487
      7          6           0       -1.657111    0.686421    0.011046
      8          6           0       -0.386090    0.066840   -0.055168
      9          6           0       -0.230826   -1.336375   -0.021221
     10          6           0       -1.334952   -2.163392    0.042791
     11          6           0       -2.612684   -1.551503    0.086034
     12          6           0       -2.782823   -0.179427    0.075356
     13         16           0        1.489301   -1.737836   -0.091220
     14          1           0        3.498883    1.325462   -0.025613
     15          1           0        3.980179   -0.371532    0.050287
     16          1           0        3.150694    0.375036    1.447363
     17          1           0        1.686329    2.781560   -0.131485
     18          1           0       -0.512649    3.897329    0.002205
     19          1           0       -2.622810    2.631802    0.075977
     20          1           0       -1.242388   -3.243895    0.067849
     21          1           0       -3.487862   -2.193608    0.136661
     22          1           0       -3.780626    0.247833    0.117413
 ---------------------------------------------------------------------

 SCF Done:  E(UB3LYP) =  -877.705784890     A.U. after   33 cycles
 SCF Done:  E(UB3LYP) =  -877.705784890     a.u. after    1 cycles

 The electronic state is 2-A.
 Alpha  occ. eigenvalues --  -88.76237 -14.23231 -10.08448 -10.08164 -10.07442
 Alpha  occ. eigenvalues --  -10.05834 -10.05404 -10.05140 -10.04883 -10.04816
 Alpha  occ. eigenvalues --  -10.04055 -10.03647 -10.03364  -7.84648  -5.81161
 Alpha  occ. eigenvalues --   -5.80646  -5.79959  -0.84265  -0.74456  -0.70242
 Alpha  occ. eigenvalues --   -0.66353  -0.62488  -0.61769  -0.58430  -0.54133
 Alpha  occ. eigenvalues --   -0.49321  -0.48033  -0.46294  -0.39422  -0.38092
 Alpha  occ. eigenvalues --   -0.36745  -0.35975  -0.33728  -0.33330  -0.30873
 Alpha  occ. eigenvalues --   -0.29166  -0.28952  -0.28067  -0.27595  -0.25748
 Alpha  occ. eigenvalues --   -0.24179  -0.22028  -0.21525  -0.21383  -0.21140
 Alpha  occ. eigenvalues --   -0.14351  -0.13480  -0.12515  -0.05744   0.05206
 Alpha virt. eigenvalues --    0.07560   0.08034   0.08701   0.08974   0.10147
 Alpha virt. eigenvalues --    0.10409   0.10538   0.11124   0.12131   0.12693
 Alpha virt. eigenvalues --    0.13166   0.14410   0.14855   0.15359   0.15757

  Beta  occ. eigenvalues --  -88.76228 -14.23192 -10.08365 -10.07970 -10.07175
  Beta  occ. eigenvalues --  -10.05865 -10.05460 -10.05088 -10.04879 -10.04750
  Beta  occ. eigenvalues --  -10.04052 -10.03472 -10.03242  -7.84638  -5.81154
  Beta  occ. eigenvalues --   -5.80648  -5.79931  -0.84123  -0.74282  -0.69996
  Beta  occ. eigenvalues --   -0.66103  -0.62292  -0.61600  -0.58240  -0.53956
  Beta  occ. eigenvalues --   -0.49248  -0.47752  -0.46099  -0.39235  -0.37965
  Beta  occ. eigenvalues --   -0.36644  -0.35851  -0.33518  -0.33236  -0.30781
  Beta  occ. eigenvalues --   -0.29053  -0.28829  -0.27879  -0.27264  -0.25644
  Beta  occ. eigenvalues --   -0.24073  -0.21848  -0.21315  -0.20839  -0.20803
  Beta  occ. eigenvalues --   -0.13598  -0.12924  -0.12154  -0.05055
  Beta virt. eigenvalues --    0.07937   0.08226   0.08763   0.09081   0.09461
  Beta virt. eigenvalues --    0.10353   0.10503   0.10712   0.11849   0.12372
  Beta virt. eigenvalues --    0.12876   0.13738   0.14363   0.14929   0.15458

 Mulliken charges and spin densities:
               1          2
     1  C    1.354115  -1.712344
     2  N    0.034364   0.204738
     3  C   -2.021279   0.554164
     4  C    0.293384  -0.864461
     5  C   -0.019208  -0.217233
     6  C   -0.291855  -0.110827
     7  C    0.269979  -0.103841
     8  C    0.406336   0.431428
     9  C   -0.199837   0.201401
    10  C    0.406615   0.258546
    11  C   -0.169825   0.044259
    12  C   -0.137846   0.066658
    13  S    0.136320   0.111635
    14  H   -0.552824   0.692278
    15  H   -0.507351   0.649769
    16  H   -0.327417   0.475098
    17  H   -0.087720   0.211812
    18  H    0.022955   0.105142
    19  H    0.086427  -0.011410
    20  H    0.109611   0.019427
    21  H    0.117493  -0.004781
    22  H    0.077564  -0.001459
 Sum of Mulliken charges =  -1.00000   1.00000

 Dipole moment (field-independent basis, Debye):
    X=             -5.2129    Y=             -1.6116    Z=             -0.7917  Tot=              5.5135
 Quadrupole moment (field-independent basis, Debye-Ang):
   XX=           -134.8397   YY=           -107.6885   ZZ=           -104.7735
   XY=             -4.4616   XZ=             -3.9417   YZ=              1.5465

 Summary of Natural Population Analysis:

                                       Natural Population
                Natural  -----------------------------------------------
    Atom  No    Charge         Core      Valence    Rydberg      Total
 -----------------------------------------------------------------------
      C    1   -0.17251      0.99963     2.16277    0.01011     3.17251
      N    2   -0.28920      0.99966     2.77669    0.01285     3.78920
      C    3    0.13123      0.99943     1.85695    0.01239     2.86877
      C    4   -0.14649      0.99952     2.13737    0.00960     3.14649
      C    5   -0.07904      0.99959     2.07003    0.00942     3.07904
      C    6   -0.10543      0.99954     2.09675    0.00914     3.10543
      C    7   -0.02167      0.99949     2.01422    0.00796     3.02167
      C    8   -0.05035      0.99941     2.04175    0.00920     3.05035
      C    9   -0.03421      0.99937     2.02306    0.01178     3.03421
      C   10   -0.13755      0.99950     2.12780    0.01025     3.13755
      C   11   -0.08577      0.99958     2.07728    0.00891     3.08577
      C   12   -0.08491      0.99954     2.07645    0.00892     3.08491
      S   13    0.22215      4.99949     2.75942    0.01894     7.77785
      H   14    0.10087      0.00000     0.39727    0.00186     0.39913
      H   15    0.09781      0.00000     0.40076    0.00142     0.40219
      H   16    0.09199      0.00000     0.40427    0.00374     0.40801
      H   17    0.10104      0.00000     0.39793    0.00104     0.39896
      H   18    0.09276      0.00000     0.40648    0.00076     0.40724
      H   19    0.09104      0.00000     0.40751    0.00145     0.40896
      H   20    0.09679      0.00000     0.40220    0.00101     0.40321
      H   21    0.09120      0.00000     0.40791    0.00089     0.40880
      H   22    0.09026      0.00000     0.40837    0.00138     0.40974
 =======================================================================
   * Total *    0.00000     16.99374    31.85324    0.15301    49.00000

 Normal termination of Gaussian 16 at Mon Dec 14 16:49:05 2020.
