 Gaussian 16, Revision A.03,

 -----------------------------------------------------------
 # opt freq B3LYP/6-31G(d) empiricaldispersion=gd3bj scf=xqc
 -----------------------------------------------------------

 -------------------------------
 CID_117670191_JID_4609_neutraal
 -------------------------------
 Symbolic Z-matrix:
 Charge =  0 Multiplicity = 1

 SCF Done:  E(RB3LYP) =  -644.413501579     A.U. after   15 cycles
 SCF Done:  E(RB3LYP) =  -644.421149934     A.U. after   12 cycles
 SCF Done:  E(RB3LYP) =  -644.421526686     A.U. after   11 cycles
 SCF Done:  E(RB3LYP) =  -644.421597304     A.U. after   11 cycles
 SCF Done:  E(RB3LYP) =  -644.421646311     A.U. after   10 cycles
 SCF Done:  E(RB3LYP) =  -644.421703500     A.U. after   10 cycles
 SCF Done:  E(RB3LYP) =  -644.421729028     A.U. after   12 cycles
 SCF Done:  E(RB3LYP) =  -644.422025644     A.U. after   11 cycles
 SCF Done:  E(RB3LYP) =  -644.422777136     A.U. after   14 cycles
 SCF Done:  E(RB3LYP) =  -644.422954097     A.U. after   12 cycles
 SCF Done:  E(RB3LYP) =  -644.423797784     A.U. after   10 cycles
 SCF Done:  E(RB3LYP) =  -644.423805611     A.U. after    9 cycles
 SCF Done:  E(RB3LYP) =  -644.423813551     A.U. after    9 cycles
 SCF Done:  E(RB3LYP) =  -644.423815837     A.U. after    8 cycles
 SCF Done:  E(RB3LYP) =  -644.423815938     A.U. after    7 cycles
 Optimization completed.
    -- Stationary point found.
 Normal termination of Gaussian 16 at Thu Dec 10 10:18:12 2020.

 --------------------------------------------------------------------
 #N Geom=AllCheck Guess=TCheck SCRF=Check GenChk RB3LYP/6-31G(d) Freq
 --------------------------------------------------------------------

 Structure from the checkpoint file:  "JID_4609.chk"
 -------------------------------
 CID_117670191_JID_4609_neutraal
 -------------------------------
 Charge =  0 Multiplicity = 1

 SCF Done:  E(RB3LYP) =  -644.423815938     A.U. after    1 cycles

  Exact polarizability: 199.460  -3.412 114.594  -1.635  -1.436  65.099
 Approx polarizability: 248.584  -7.771 200.073  -3.426  -2.311  98.812

                      1                      2                      3
                      A                      A                      A
 Frequencies --     40.0420                50.0806                57.4461
 Red. masses --      4.2528                 2.2668                 1.3466
 Frc consts  --      0.0040                 0.0033                 0.0026
 IR Inten    --      0.9468                 1.3097                 0.3449

                      4                      5                      6
                      A                      A                      A
 Frequencies --     82.4403               101.9545               126.5365
 Red. masses --      4.5166                 3.0005                 1.0824
 Frc consts  --      0.0181                 0.0184                 0.0102
 IR Inten    --      2.7503                 6.6814                 0.6025

                      7                      8                      9
                      A                      A                      A
 Frequencies --    180.3147               205.3058               215.9589
 Red. masses --      3.1632                 3.3446                 3.2253
 Frc consts  --      0.0606                 0.0831                 0.0886
 IR Inten    --      1.9931                 1.8765                 5.4607

                     10                     11                     12
                      A                      A                      A
 Frequencies --    247.0420               259.3285               306.7799
 Red. masses --      2.2725                 2.1403                 3.1767
 Frc consts  --      0.0817                 0.0848                 0.1762
 IR Inten    --     11.2132                24.2336                 8.5418

                     13                     14                     15
                      A                      A                      A
 Frequencies --    316.9555               362.2452               386.2612
 Red. masses --      2.2690                 4.4992                 5.9609
 Frc consts  --      0.1343                 0.3479                 0.5240
 IR Inten    --     22.1447                 1.8720                 2.3327

                     16                     17                     18
                      A                      A                      A
 Frequencies --    492.8242               561.0954               631.7206
 Red. masses --      4.5870                 4.4178                 4.1021
 Frc consts  --      0.6564                 0.8195                 0.9645
 IR Inten    --      6.5920                 3.1895                 4.9781

                     19                     20                     21
                      A                      A                      A
 Frequencies --    639.0446               654.7004               689.6160
 Red. masses --      4.0568                 4.5471                 4.5930
 Frc consts  --      0.9761                 1.1483                 1.2869
 IR Inten    --      1.1226                 4.8831                13.5854

                     22                     23                     24
                      A                      A                      A
 Frequencies --    698.3605               747.2844               758.8964
 Red. masses --      4.2815                 1.9039                 2.4627
 Frc consts  --      1.2303                 0.6264                 0.8356
 IR Inten    --      9.3252                27.2048                 0.4174

                     25                     26                     27
                      A                      A                      A
 Frequencies --    781.9437               812.9895               883.9062
 Red. masses --      3.9732                 1.4577                 1.2851
 Frc consts  --      1.4313                 0.5677                 0.5916
 IR Inten    --      1.6663                20.1455               109.8834

                     28                     29                     30
                      A                      A                      A
 Frequencies --    938.9029               998.9459              1003.3583
 Red. masses --      6.9639                 3.0028                 2.3714
 Frc consts  --      3.6170                 1.7655                 1.4066
 IR Inten    --     25.0001                19.3749                 8.9563

                     31                     32                     33
                      A                      A                      A
 Frequencies --   1019.7988              1036.2630              1058.8820
 Red. masses --      2.3936                 2.5327                 1.8783
 Frc consts  --      1.4667                 1.6024                 1.2408
 IR Inten    --      5.9863                21.7528                41.4125

                     34                     35                     36
                      A                      A                      A
 Frequencies --   1077.4370              1082.4370              1132.6715
 Red. masses --      1.4521                 2.3711                 3.5703
 Frc consts  --      0.9932                 1.6368                 2.6988
 IR Inten    --      1.8596                 6.1963                22.6696

                     37                     38                     39
                      A                      A                      A
 Frequencies --   1142.8386              1157.6289              1191.3737
 Red. masses --      1.9931                 1.3002                 1.2501
 Frc consts  --      1.5337                 1.0266                 1.0454
 IR Inten    --      0.7371                 0.0680                 1.5086

                     40                     41                     42
                      A                      A                      A
 Frequencies --   1201.9916              1227.8317              1267.6051
 Red. masses --      2.5617                 2.4743                 2.8024
 Frc consts  --      2.1806                 2.1977                 2.6531
 IR Inten    --      8.9742                 7.1288                10.6412

                     43                     44                     45
                      A                      A                      A
 Frequencies --   1299.4084              1344.0624              1356.8605
 Red. masses --      2.2970                 3.1791                 2.0352
 Frc consts  --      2.2851                 3.3838                 2.2076
 IR Inten    --     47.3936                15.3445                 1.2942

                     46                     47                     48
                      A                      A                      A
 Frequencies --   1406.8081              1442.1456              1446.3504
 Red. masses --      7.6251                 2.1281                 1.3917
 Frc consts  --      8.8913                 2.6077                 1.7153
 IR Inten    --    102.1109                36.2019                 1.6489

                     49                     50                     51
                      A                      A                      A
 Frequencies --   1457.2624              1477.0745              1497.3614
 Red. masses --      1.8830                 1.4824                 3.7969
 Frc consts  --      2.3561                 1.9055                 5.0157
 IR Inten    --     20.5011                 8.6851                 3.8854

                     52                     53                     54
                      A                      A                      A
 Frequencies --   1507.4035              1519.0824              1523.5189
 Red. masses --      1.0428                 1.0420                 1.2083
 Frc consts  --      1.3960                 1.4167                 1.6525
 IR Inten    --      0.1058                18.7867                 4.9290

                     55                     56                     57
                      A                      A                      A
 Frequencies --   1533.0680              1538.0520              1609.7218
 Red. masses --      1.0951                 1.2024                 5.6888
 Frc consts  --      1.5165                 1.6759                 8.6850
 IR Inten    --      1.4442                 6.6973                30.7150

                     58                     59                     60
                      A                      A                      A
 Frequencies --   1636.1650              1656.3406              1695.6907
 Red. masses --      5.3916                 9.9449                 1.1345
 Frc consts  --      8.5040                16.0750                 1.9220
 IR Inten    --      9.0000                28.7884                43.7626

                     61                     62                     63
                      A                      A                      A
 Frequencies --   2984.7494              3041.4407              3053.2157
 Red. masses --      1.0719                 1.0398                 1.0894
 Frc consts  --      5.6261                 5.6671                 5.9837
 IR Inten    --     56.7641                30.0389                29.8486

                     64                     65                     66
                      A                      A                      A
 Frequencies --   3058.1429              3088.9740              3115.1207
 Red. masses --      1.0363                 1.1013                 1.1058
 Frc consts  --      5.7104                 6.1913                 6.3221
 IR Inten    --     63.2981                18.0158                20.9160

                     67                     68                     69
                      A                      A                      A
 Frequencies --   3145.6981              3191.2950              3286.6376
 Red. masses --      1.0979                 1.1000                 1.0976
 Frc consts  --      6.4012                 6.6004                 6.9852
 IR Inten    --     10.2668                 1.4423                 0.3928

                     70                     71                     72
                      A                      A                      A
 Frequencies --   3332.7700              3470.6815              3558.7843
 Red. masses --      1.0995                 1.0502                 1.0923
 Frc consts  --      7.1955                 7.4532                 8.1506
 IR Inten    --      0.8592                 1.6014                 0.8685

 - Thermochemistry -
 -------------------
 Temperature   298.150 Kelvin.  Pressure   1.00000 Atm.
 Atom     1 has atomic number  6 and mass  12.00000

 Molecular mass:   192.10111 amu.
 Principal axes and moments of inertia in atomic units:
                           1         2         3
     Eigenvalues --   759.359706108.442556810.16740
           X            0.99999   0.00444   0.00129
           Y           -0.00443   0.99999  -0.00197
           Z           -0.00130   0.00196   1.00000
 This molecule is an asymmetric top.
 Rotational symmetry number  1.
 Warning -- assumption of classical behavior for rotation
           may cause significant error
 Rotational temperatures (Kelvin)      0.11406     0.01418     0.01272
 Rotational constants (GHZ):           2.37666     0.29545     0.26501
 Zero-point vibrational energy     556879.2 (Joules/Mol)
                                  133.09731 (Kcal/Mol)
 Warning -- explicit consideration of  17 degrees of freedom as
           vibrations may cause significant error
 Vibrational temperatures:     57.61    72.05    82.65   118.61   146.69
          (Kelvin)            182.06   259.43   295.39   310.72   355.44
                              373.12   441.39   456.03   521.19   555.74
                              709.06   807.29   908.91   919.44   941.97
                              992.20  1004.79  1075.18  1091.88  1125.04
                             1169.71  1271.74  1350.87  1437.26  1443.61
                             1467.26  1490.95  1523.50  1550.19  1557.39
                             1629.66  1644.29  1665.57  1714.12  1729.40
                             1766.58  1823.80  1869.56  1933.81  1952.22
                             2024.08  2074.93  2080.98  2096.68  2125.18
                             2154.37  2168.82  2185.62  2192.00  2205.74
                             2212.91  2316.03  2354.08  2383.10  2439.72
                             4294.39  4375.95  4392.90  4399.99  4444.34
                             4481.96  4525.96  4591.56  4728.74  4795.11
                             4993.54  5120.30

 Zero-point correction=                           0.212104 (Hartree/Particle)
 Thermal correction to Energy=                    0.225710
 Thermal correction to Enthalpy=                  0.226654
 Thermal correction to Gibbs Free Energy=         0.170461
 Sum of electronic and zero-point Energies=           -644.211712
 Sum of electronic and thermal Energies=              -644.198106
 Sum of electronic and thermal Enthalpies=            -644.197162
 Sum of electronic and thermal Free Energies=         -644.253355

                     E (Thermal)             CV                S
                      KCal/Mol        Cal/Mol-Kelvin    Cal/Mol-Kelvin
 Total                  141.635             49.062            118.270
 Electronic               0.000              0.000              0.000
 Translational            0.889              2.981             41.664
 Rotational               0.889              2.981             31.824
 Vibrational            139.858             43.100             44.781
 Vibration     1          0.594              1.981              5.257
 Vibration     2          0.595              1.978              4.814
 Vibration     3          0.596              1.975              4.543
 Vibration     4          0.600              1.961              3.832
 Vibration     5          0.604              1.948              3.417
 Vibration     6          0.611              1.927              2.998
 Vibration     7          0.629              1.866              2.325
 Vibration     8          0.640              1.832              2.085
 Vibration     9          0.645              1.817              1.993
 Vibration    10          0.661              1.768              1.752
 Vibration    11          0.668              1.747              1.666
 Vibration    12          0.697              1.661              1.380
 Vibration    13          0.704              1.641              1.326
 Vibration    14          0.736              1.550              1.112
 Vibration    15          0.755              1.500              1.015
 Vibration    16          0.849              1.266              0.676
 Vibration    17          0.917              1.115              0.522

                           ! Non-Optimized Parameters !
 Normal termination of Gaussian 16 at Thu Dec 10 10:24:22 2020.

 ----------------------------------------------------------------------
 # B3LYP/6-311++G(d,p) empiricaldispersion=gd3bj scf=xqc pop=npa geom=c
 heck
 ----------------------------------------------------------------------

 ---------------------------------------
 CID_117670191_JID_4609_Energie_neutraal
 ---------------------------------------
 Structure from the checkpoint file:  "JID_4609.chk"
 Charge =  0 Multiplicity = 1

 SCF Done:  E(RB3LYP) =  -644.603847361     A.U. after   15 cycles
 Normal termination of Gaussian 16 at Thu Dec 10 10:27:25 2020.

 ----------------------------------------------------------------------
 # B3LYP/6-311++G(d,p) empiricaldispersion=gd3bj scf=xqc pop=npa geom=c
 heck
 ----------------------------------------------------------------------

 -------------------------------------
 CID_117670191_JID_4609_Energie_kation
 -------------------------------------
 Structure from the checkpoint file:  "JID_4609.chk"
 Charge =  1 Multiplicity = 2

 SCF Done:  E(UB3LYP) =  -644.323274408     A.U. after   23 cycles
 Normal termination of Gaussian 16 at Thu Dec 10 10:34:09 2020.
 Gaussian 16:  ES64L-G16RevA.03 25-Dec-2016

 ----------------------------------------------------------------------
 # B3LYP/6-311++G(d,p) empiricaldispersion=gd3bj scf=xqc pop=npa geom=c
 heck
 ----------------------------------------------------------------------

 ------------------------------------
 CID_117670191_JID_4609_Energie_anion
 ------------------------------------
 Structure from the checkpoint file:  "JID_4609.chk"
 Charge = -1 Multiplicity = 2

                         Standard orientation:
 ---------------------------------------------------------------------
 Center     Atomic      Atomic             Coordinates (Angstroms)
 Number     Number       Type             X           Y           Z
 ---------------------------------------------------------------------
      1          6           0       -4.330243   -1.215122    0.055417
      2          6           0       -2.966492   -0.607723    0.025999
      3          6           0       -1.708759   -1.178557   -0.003627
      4          6           0       -0.807983   -0.084265   -0.022264
      5          7           0       -1.457830    1.086356   -0.005250
      6          7           0       -2.763319    0.745634    0.024048
      7          6           0       -3.770108    1.786810    0.046734
      8          6           0        0.640427   -0.144275   -0.055968
      9          7           0        1.519734    0.817419   -0.074596
     10          6           0        2.751852    0.173735   -0.105221
     11          6           0        2.551658   -1.170468   -0.100083
     12          8           0        1.195991   -1.394206   -0.066463
     13          6           0        4.041612    0.931079   -0.138680
     14          7           0        5.150782    0.055183    0.256905
     15          1           0       -4.251919   -2.304902    0.050507
     16          1           0       -4.889224   -0.922641    0.953352
     17          1           0       -4.929475   -0.917597   -0.814439
     18          1           0       -1.466657   -2.230510   -0.011388
     19          1           0       -4.417868    1.722538   -0.834213
     20          1           0       -4.387353    1.712669    0.948497
     21          1           0       -3.243871    2.740610    0.042843
     22          1           0        3.194029   -2.033901   -0.120019
     23          1           0        4.235680    1.275811   -1.163140
     24          1           0        3.923103    1.840599    0.473931
     25          1           0        6.034477    0.544741    0.132742
     26          1           0        5.073789   -0.153197    1.251441
 ---------------------------------------------------------------------

 SCF Done:  E(UB3LYP) =  -644.593717891     A.U. after   33 cycles
 SCF Done:  E(UB3LYP) =  -644.593717891     a.u. after    1 cycles

 The electronic state is 2-A.
 Alpha  occ. eigenvalues --  -19.10565 -14.30034 -14.23870 -14.21446 -14.21002
 Alpha  occ. eigenvalues --  -10.17236 -10.13085 -10.12302 -10.11683 -10.11414
 Alpha  occ. eigenvalues --  -10.11213 -10.11170 -10.08469 -10.07553  -1.03936
 Alpha  occ. eigenvalues --   -0.96200  -0.83302  -0.79891  -0.76252  -0.71555
 Alpha  occ. eigenvalues --   -0.68623  -0.62261  -0.61466  -0.59226  -0.53934
 Alpha  occ. eigenvalues --   -0.51551  -0.48415  -0.45918  -0.42581  -0.41084
 Alpha  occ. eigenvalues --   -0.39999  -0.39389  -0.38095  -0.36917  -0.36043
 Alpha  occ. eigenvalues --   -0.34401  -0.33116  -0.32672  -0.32001  -0.31244
 Alpha  occ. eigenvalues --   -0.30564  -0.30139  -0.29538  -0.28705  -0.22834
 Alpha  occ. eigenvalues --   -0.20749  -0.19714  -0.19033  -0.16359  -0.15535
 Alpha  occ. eigenvalues --   -0.12827   0.03832
 Alpha virt. eigenvalues --    0.04777   0.05849   0.07147   0.07999   0.08396
 Alpha virt. eigenvalues --    0.08692   0.09147   0.09711   0.10305   0.10919
 Alpha virt. eigenvalues --    0.11342   0.12069   0.12351   0.13284   0.13386

  Beta  occ. eigenvalues --  -19.10563 -14.30033 -14.23866 -14.21445 -14.20956
  Beta  occ. eigenvalues --  -10.17236 -10.13076 -10.12300 -10.11630 -10.11400
  Beta  occ. eigenvalues --  -10.11212 -10.11171 -10.08404 -10.07547  -1.03933
  Beta  occ. eigenvalues --   -0.96193  -0.83295  -0.79822  -0.76236  -0.71533
  Beta  occ. eigenvalues --   -0.68598  -0.62201  -0.61391  -0.59173  -0.53918
  Beta  occ. eigenvalues --   -0.51530  -0.48382  -0.45893  -0.42543  -0.41034
  Beta  occ. eigenvalues --   -0.39968  -0.39358  -0.38075  -0.36877  -0.36015
  Beta  occ. eigenvalues --   -0.34371  -0.33066  -0.32613  -0.31957  -0.31201
  Beta  occ. eigenvalues --   -0.30530  -0.30103  -0.29506  -0.28674  -0.22827
  Beta  occ. eigenvalues --   -0.20737  -0.19708  -0.19018  -0.16317  -0.15523
  Beta  occ. eigenvalues --   -0.12813
  Beta virt. eigenvalues --    0.05849   0.05920   0.06459   0.07695   0.08320
  Beta virt. eigenvalues --    0.08641   0.09373   0.09971   0.10252   0.10507
  Beta virt. eigenvalues --    0.11249   0.11517   0.12359   0.12589   0.13601

 Mulliken charges and spin densities:
               1          2
     1  C    1.589715  -2.100992
     2  C   -1.342047   1.489083
     3  C    0.199202  -0.675378
     4  C    0.265617  -0.435763
     5  N   -0.479162   0.258038
     6  N    0.217987   0.081314
     7  C    0.724446  -1.039569
     8  C   -0.082696  -0.126029
     9  N   -0.025954   0.024733
    10  C   -0.148123   0.339141
    11  C    0.390581  -0.376065
    12  O   -0.081655   0.003402
    13  C    0.222193  -0.715703
    14  N   -0.361913  -0.026355
    15  H   -0.407004   0.570831
    16  H   -0.426758   0.600113
    17  H   -0.397894   0.570597
    18  H    0.029224   0.157205
    19  H   -0.392390   0.565269
    20  H   -0.384005   0.556229
    21  H    0.044274   0.134283
    22  H    0.095579   0.102446
    23  H   -0.016899   0.199244
    24  H   -0.025472   0.180503
    25  H   -0.209188   0.452724
    26  H    0.002342   0.210700
 Sum of Mulliken charges =  -1.00000   1.00000

 Dipole moment (field-independent basis, Debye):
    X=              3.7593    Y=             -1.5115    Z=             -0.2835  Tot=              4.0617
 Quadrupole moment (field-independent basis, Debye-Ang):
   XX=           -219.2481   YY=           -112.3080   ZZ=           -108.0975
   XY=             -4.2916   XZ=             -0.3337   YZ=             -0.6158

 Summary of Natural Population Analysis:

                                       Natural Population
                Natural  -----------------------------------------------
    Atom  No    Charge         Core      Valence    Rydberg      Total
 -----------------------------------------------------------------------
      C    1   -0.30448      0.99964     2.29918    0.00566     3.30448
      C    2    0.09151      0.99953     1.89658    0.01238     2.90849
      C    3   -0.16053      0.99952     2.14809    0.01293     3.16053
      C    4    0.09023      0.99954     1.89710    0.01313     2.90977
      N    5   -0.14865      0.99974     2.63132    0.01760     3.64865
      N    6   -0.10544      0.99963     2.59044    0.01537     3.60544
      C    7   -0.17587      0.99964     2.16827    0.00797     3.17587
      C    8    0.23977      0.99961     1.73621    0.02441     2.76023
      N    9   -0.24208      0.99968     2.73370    0.00871     3.74208
      C   10    0.03966      0.99953     1.94705    0.01376     2.96034
      C   11    0.03635      0.99943     1.95116    0.01306     2.96365
      O   12   -0.23671      0.99987     3.22997    0.00687     4.23671
      C   13   -0.10187      0.99960     2.08961    0.01266     3.10187
      N   14   -0.42095      0.99978     2.91040    0.01077     3.92095
      H   15    0.11022      0.00000     0.38871    0.00107     0.38978
      H   16    0.11189      0.00000     0.38540    0.00271     0.38811
      H   17    0.11176      0.00000     0.38560    0.00263     0.38824
      H   18    0.11198      0.00000     0.38655    0.00147     0.38802
      H   19    0.10229      0.00000     0.39582    0.00188     0.39771
      H   20    0.10236      0.00000     0.39577    0.00186     0.39764
      H   21    0.11059      0.00000     0.38802    0.00139     0.38941
      H   22    0.10392      0.00000     0.39495    0.00112     0.39608
      H   23    0.09814      0.00000     0.40049    0.00137     0.40186
      H   24    0.08982      0.00000     0.40821    0.00196     0.41018
      H   25    0.17856      0.00000     0.31777    0.00366     0.32144
      H   26    0.17372      0.00000     0.32409    0.00219     0.32628
 =======================================================================
   * Total *    0.00618     13.99471    36.80050    0.19861    50.99382

 Normal termination of Gaussian 16 at Thu Dec 10 10:44:09 2020.
