 Gaussian 16, Revision A.03,

 -----------------------------------------------------------
 # opt freq B3LYP/6-31G(d) empiricaldispersion=gd3bj scf=xqc
 -----------------------------------------------------------

 -------------------------------
 CID_117623527_JID_1050_neutraal
 -------------------------------
 Symbolic Z-matrix:
 Charge =  0 Multiplicity = 1

 SCF Done:  E(RB3LYP) =  -458.521269629     A.U. after   14 cycles
 SCF Done:  E(RB3LYP) =  -458.523295879     A.U. after   12 cycles
 SCF Done:  E(RB3LYP) =  -458.523532910     A.U. after   11 cycles
 SCF Done:  E(RB3LYP) =  -458.523610545     A.U. after   11 cycles
 SCF Done:  E(RB3LYP) =  -458.523629823     A.U. after   10 cycles
 SCF Done:  E(RB3LYP) =  -458.523639152     A.U. after    9 cycles
 SCF Done:  E(RB3LYP) =  -458.523640128     A.U. after    8 cycles
 SCF Done:  E(RB3LYP) =  -458.523640910     A.U. after    8 cycles
 SCF Done:  E(RB3LYP) =  -458.523641316     A.U. after    8 cycles
 SCF Done:  E(RB3LYP) =  -458.523642736     A.U. after    8 cycles
 SCF Done:  E(RB3LYP) =  -458.523652789     A.U. after    9 cycles
 SCF Done:  E(RB3LYP) =  -458.523657872     A.U. after   10 cycles
 SCF Done:  E(RB3LYP) =  -458.523662024     A.U. after    9 cycles
 SCF Done:  E(RB3LYP) =  -458.523664030     A.U. after    9 cycles
 SCF Done:  E(RB3LYP) =  -458.523664221     A.U. after    8 cycles
 Optimization completed.
    -- Stationary point found.

 1\1\GINC-NODE308\FOpt\RB3LYP\6-31G(d)\C9H10N2\VSC10255\08-Dec-2020\0\\
 # opt freq B3LYP/6-31G(d) empiricaldispersion=gd3bj scf=xqc\\CID_11762
 3527_JID_1050_neutraal\\0,1\C,0.9552374192,-0.0643121595,0.0192182478\
 C,0.4766182171,-0.7074415872,1.2905782073\N,-0.0236925752,0.090180928,
 2.2437153355\C,-0.4263364613,-0.5083278612,3.3711020779\C,-0.343782401
 2,-1.8843054939,3.574674624\C,-0.7478445326,-2.5642786401,4.8034819231
 \C,-0.3928306448,-3.8373590085,5.0355994754\C,0.4413106255,-4.61298607
 94,4.0440933844\C,0.2106017315,-4.1326314038,2.6023540181\C,0.18037841

 Normal termination of Gaussian 16 at Tue Dec  8 19:11:34 2020.

 --------------------------------------------------------------------
 #N Geom=AllCheck Guess=TCheck SCRF=Check GenChk RB3LYP/6-31G(d) Freq
 --------------------------------------------------------------------

 Structure from the checkpoint file:  "JID_1050.chk"
 -------------------------------
 CID_117623527_JID_1050_neutraal
 -------------------------------
 Charge =  0 Multiplicity = 1

 SCF Done:  E(RB3LYP) =  -458.523664221     A.U. after    1 cycles

  Exact polarizability: 151.947   1.380 104.224  -0.121  -1.065  54.554
 Approx polarizability: 228.745   9.749 175.540   0.233  -1.982  84.322

                      1                      2                      3
                      A                      A                      A
 Frequencies --     45.4271                98.4208               136.5205
 Red. masses --      1.0423                 3.0084                 3.0933
 Frc consts  --      0.0013                 0.0172                 0.0340
 IR Inten    --      0.5605                 0.5086                 0.1907

                      4                      5                      6
                      A                      A                      A
 Frequencies --    225.9383               264.9070               279.7428
 Red. masses --      2.9820                 3.0534                 2.7754
 Frc consts  --      0.0897                 0.1262                 0.1280
 IR Inten    --      2.4521                 0.9134                 1.9312

                      7                      8                      9
                      A                      A                      A
 Frequencies --    413.4235               427.9489               437.0489
 Red. masses --      3.0634                 3.0084                 3.2179
 Frc consts  --      0.3085                 0.3246                 0.3621
 IR Inten    --      0.6867                 1.2834                 3.2711

                     10                     11                     12
                      A                      A                      A
 Frequencies --    487.8991               509.0357               585.9972
 Red. masses --      4.3791                 5.0367                 3.2442
 Frc consts  --      0.6142                 0.7689                 0.6564
 IR Inten    --      1.6502                 0.1029                 3.1168

                     13                     14                     15
                      A                      A                      A
 Frequencies --    630.5342               691.9218               739.5400
 Red. masses --      4.0125                 2.6835                 2.0420
 Frc consts  --      0.9399                 0.7570                 0.6580
 IR Inten    --      1.3362                 2.9163                26.9512

                     16                     17                     18
                      A                      A                      A
 Frequencies --    748.7923               784.6215               823.0883
 Red. masses --      3.1219                 4.4902                 2.3416
 Frc consts  --      1.0313                 1.6287                 0.9347
 IR Inten    --     10.1215                 3.4618                 4.2961

                     19                     20                     21
                      A                      A                      A
 Frequencies --    894.7091               919.1713               958.7641
 Red. masses --      2.8103                 3.0033                 2.1771
 Frc consts  --      1.3255                 1.4950                 1.1791
 IR Inten    --      7.0432                 0.6302                 2.0430

                     22                     23                     24
                      A                      A                      A
 Frequencies --    966.3850               991.2474              1031.8202
 Red. masses --      2.0498                 1.2919                 1.6617
 Frc consts  --      1.1279                 0.7479                 1.0423
 IR Inten    --      3.3305                 0.9548                13.0205

                     25                     26                     27
                      A                      A                      A
 Frequencies --   1050.4470              1052.8524              1078.1013
 Red. masses --      1.9481                 2.1694                 1.6324
 Frc consts  --      1.2665                 1.4169                 1.1179
 IR Inten    --      1.0152                 4.9440                 5.7943

                     28                     29                     30
                      A                      A                      A
 Frequencies --   1179.8270              1198.3610              1215.0332
 Red. masses --      1.3255                 1.3166                 2.1981
 Frc consts  --      1.0871                 1.1140                 1.9120
 IR Inten    --      0.7030                 0.0561                 7.0416

                     31                     32                     33
                      A                      A                      A
 Frequencies --   1259.6251              1275.7715              1294.1628
 Red. masses --      1.9511                 2.2155                 1.7765
 Frc consts  --      1.8240                 2.1246                 1.7531
 IR Inten    --      7.8723                 1.0048                 3.6657

                     34                     35                     36
                      A                      A                      A
 Frequencies --   1319.3496              1355.0706              1376.0499
 Red. masses --      3.0445                 1.5694                 1.6214
 Frc consts  --      3.1224                 1.6978                 1.8088
 IR Inten    --      3.5573                 4.2640                 5.4779

                     37                     38                     39
                      A                      A                      A
 Frequencies --   1416.7678              1442.1425              1455.8792
 Red. masses --      1.5880                 1.6962                 2.7124
 Frc consts  --      1.8780                 2.0785                 3.3873
 IR Inten    --     16.1981                 7.4667                16.1728

                     40                     41                     42
                      A                      A                      A
 Frequencies --   1484.1959              1496.2920              1508.1948
 Red. masses --      2.3405                 1.1694                 1.1893
 Frc consts  --      3.0376                 1.5426                 1.5939
 IR Inten    --     83.2938                24.7945                26.2630

                     43                     44                     45
                      A                      A                      A
 Frequencies --   1508.5287              1510.8676              1593.4348
 Red. masses --      1.1162                 1.1027                 5.9023
 Frc consts  --      1.4966                 1.4831                 8.8295
 IR Inten    --     17.0327                 5.2251                79.7934

                     46                     47                     48
                      A                      A                      A
 Frequencies --   1638.2990              1708.3923              3003.5508
 Red. masses --      6.5923                 6.4638                 1.0732
 Frc consts  --     10.4250                11.1151                 5.7044
 IR Inten    --     80.1267                 4.5056                22.7474

                     49                     50                     51
                      A                      A                      A
 Frequencies --   3022.0165              3060.2373              3086.0005
 Red. masses --      1.0697                 1.0382                 1.0902
 Frc consts  --      5.7558                 5.7285                 6.1169
 IR Inten    --     26.2755                13.0912                30.4942

                     52                     53                     54
                      A                      A                      A
 Frequencies --   3114.6887              3120.5557              3155.7609
 Red. masses --      1.1000                 1.0917                 1.0907
 Frc consts  --      6.2872                 6.2635                 6.4000
 IR Inten    --     12.2894                13.2381                26.5149

                     55                     56                     57
                      A                      A                      A
 Frequencies --   3168.9816              3173.3103              3195.3917
 Red. masses --      1.1017                 1.0856                 1.0969
 Frc consts  --      6.5184                 6.4412                 6.5989
 IR Inten    --      9.8218                 6.4723                33.4604

 - Thermochemistry -
 -------------------
 Temperature   298.150 Kelvin.  Pressure   1.00000 Atm.
 Atom     1 has atomic number  6 and mass  12.00000

 Molecular mass:   146.08440 amu.
 Principal axes and moments of inertia in atomic units:
                           1         2         3
     Eigenvalues --   670.698922168.095382773.80016
           X            0.99999  -0.00511  -0.00019
           Y            0.00511   0.99998  -0.00222
           Z            0.00020   0.00222   1.00000
 This molecule is an asymmetric top.
 Rotational symmetry number  1.
 Warning -- assumption of classical behavior for rotation
           may cause significant error
 Rotational temperatures (Kelvin)      0.12914     0.03995     0.03123
 Rotational constants (GHZ):           2.69084     0.83241     0.65064
 Zero-point vibrational energy     458235.8 (Joules/Mol)
                                  109.52099 (Kcal/Mol)
 Warning -- explicit consideration of  12 degrees of freedom as
           vibrations may cause significant error
 Vibrational temperatures:     65.36   141.61   196.42   325.07   381.14
          (Kelvin)            402.49   594.82   615.72   628.82   701.98
                              732.39   843.12   907.20   995.52  1064.03
                             1077.35  1128.90  1184.24  1287.29  1322.48
                             1379.45  1390.41  1426.18  1484.56  1511.36
                             1514.82  1551.15  1697.51  1724.17  1748.16
                             1812.32  1835.55  1862.01  1898.25  1949.64
                             1979.83  2038.41  2074.92  2094.69  2135.43
                             2152.83  2169.96  2170.44  2173.80  2292.60
                             2357.15  2458.00  4321.44  4348.01  4403.00
                             4440.07  4481.34  4489.78  4540.44  4559.46
                             4565.69  4597.46

 Zero-point correction=                           0.174533 (Hartree/Particle)
 Thermal correction to Energy=                    0.183644
 Thermal correction to Enthalpy=                  0.184588
 Thermal correction to Gibbs Free Energy=         0.139736
 Sum of electronic and zero-point Energies=           -458.349131
 Sum of electronic and thermal Energies=              -458.340021
 Sum of electronic and thermal Enthalpies=            -458.339076
 Sum of electronic and thermal Free Energies=         -458.383928

                     E (Thermal)             CV                S
                      KCal/Mol        Cal/Mol-Kelvin    Cal/Mol-Kelvin
 Total                  115.238             35.227             94.399
 Electronic               0.000              0.000              0.000
 Translational            0.889              2.981             40.848
 Rotational               0.889              2.981             29.779
 Vibrational            113.461             29.266             23.772
 Vibration     1          0.595              1.979              5.007
 Vibration     2          0.604              1.950              3.485
 Vibration     3          0.614              1.917              2.852
 Vibration     4          0.650              1.802              1.911
 Vibration     5          0.671              1.737              1.629
 Vibration     6          0.680              1.711              1.535
 Vibration     7          0.777              1.441              0.915
 Vibration     8          0.789              1.409              0.865
 Vibration     9          0.797              1.389              0.836
 Vibration    10          0.844              1.277              0.689
 Vibration    11          0.864              1.230              0.636
 Vibration    12          0.943              1.062              0.474

 Optimization completed.
    -- Stationary point found.

 1\1\GINC-NODE308\Freq\RB3LYP\6-31G(d)\C9H10N2\VSC10255\08-Dec-2020\0\\
 #N Geom=AllCheck Guess=TCheck SCRF=Check GenChk RB3LYP/6-31G(d) Freq\\
 CID_117623527_JID_1050_neutraal\\0,1\C,0.9552374192,-0.0643121595,0.01
 92182478\C,0.4766182171,-0.7074415872,1.2905782073\N,-0.0236925752,0.0
 90180928,2.2437153355\C,-0.4263364613,-0.5083278612,3.3711020779\C,-0.
 3437824012,-1.8843054939,3.574674624\C,-0.7478445326,-2.5642786401,4.8
 034819231\C,-0.3928306448,-3.8373590085,5.0355994754\C,0.4413106255,-4
 .6129860794,4.0440933844\C,0.2106017315,-4.1326314038,2.6023540181\C,0

 Normal termination of Gaussian 16 at Tue Dec  8 19:15:14 2020.

 ----------------------------------------------------------------------
 # B3LYP/6-311++G(d,p) empiricaldispersion=gd3bj scf=xqc pop=npa geom=c
 heck
 ----------------------------------------------------------------------

 ---------------------------------------
 CID_117623527_JID_1050_Energie_neutraal
 ---------------------------------------
 Structure from the checkpoint file:  "JID_1050.chk"
 Charge =  0 Multiplicity = 1

 SCF Done:  E(RB3LYP) =  -458.640870409     A.U. after   15 cycles
 Normal termination of Gaussian 16 at Tue Dec  8 19:16:29 2020.

 ----------------------------------------------------------------------
 # B3LYP/6-311++G(d,p) empiricaldispersion=gd3bj scf=xqc pop=npa geom=c
 heck
 ----------------------------------------------------------------------

 -------------------------------------
 CID_117623527_JID_1050_Energie_kation
 -------------------------------------
 Structure from the checkpoint file:  "JID_1050.chk"
 Charge =  1 Multiplicity = 2

 SCF Done:  E(UB3LYP) =  -458.335682153     A.U. after   22 cycles
 Normal termination of Gaussian 16 at Tue Dec  8 19:18:56 2020.
 Gaussian 16:  ES64L-G16RevA.03 25-Dec-2016

 ------------------------------------
 CID_117623527_JID_1050_Energie_anion
 ------------------------------------
 Structure from the checkpoint file:  "JID_1050.chk"
 Charge = -1 Multiplicity = 2

                         Standard orientation:
 ---------------------------------------------------------------------
 Center     Atomic      Atomic             Coordinates (Angstroms)
 Number     Number       Type             X           Y           Z
 ---------------------------------------------------------------------
      1          6           0        3.457727   -0.703850    0.111174
      2          6           0        2.065524   -0.143214    0.030497
      3          7           0        1.926702    1.189122    0.054792
      4          6           0        0.674796    1.659118   -0.001538
      5          6           0       -0.445686    0.834719   -0.081894
      6          6           0       -1.825344    1.315318   -0.116056
      7          6           0       -2.853063    0.475240    0.080691
      8          6           0       -2.626086   -0.992934    0.351652
      9          6           0       -1.334374   -1.503537   -0.306637
     10          6           0       -0.180019   -0.550252   -0.121062
     11          7           0        1.058477   -1.034792   -0.062288
     12          1           0        4.189230    0.104951    0.149028
     13          1           0        3.661433   -1.343948   -0.754313
     14          1           0        3.563108   -1.331530    1.003553
     15          1           0        0.562859    2.743353    0.022247
     16          1           0       -1.990249    2.380305   -0.263844
     17          1           0       -3.872390    0.852766    0.100545
     18          1           0       -3.477620   -1.585581   -0.000114
     19          1           0       -2.579390   -1.148210    1.441681
     20          1           0       -1.502427   -1.603227   -1.390043
     21          1           0       -1.051654   -2.492845    0.062767
 ---------------------------------------------------------------------

 SCF Done:  E(UB3LYP) =  -458.633510049     A.U. after   33 cycles
 SCF Done:  E(UB3LYP) =  -458.633510049     a.u. after    2 cycles

 The electronic state is 2-A.
 Alpha  occ. eigenvalues --  -14.15802 -14.15453 -10.06937 -10.06792 -10.05050
 Alpha  occ. eigenvalues --  -10.04044 -10.03933 -10.03173 -10.02110 -10.01752
 Alpha  occ. eigenvalues --  -10.01205  -0.82728  -0.73396  -0.69390  -0.63322
 Alpha  occ. eigenvalues --   -0.60840  -0.57014  -0.51467  -0.47574  -0.46384
 Alpha  occ. eigenvalues --   -0.39454  -0.37620  -0.34817  -0.32444  -0.30591
 Alpha  occ. eigenvalues --   -0.29979  -0.28240  -0.27021  -0.25905  -0.25375
 Alpha  occ. eigenvalues --   -0.24532  -0.23475  -0.21207  -0.19943  -0.16464
 Alpha  occ. eigenvalues --   -0.15733  -0.14975  -0.09783  -0.08343   0.05980
 Alpha virt. eigenvalues --    0.08499   0.09302   0.09746   0.10409   0.10794
 Alpha virt. eigenvalues --    0.11608   0.11995   0.12903   0.13123   0.13696
 Alpha virt. eigenvalues --    0.13881   0.16091   0.16574   0.17164   0.18706

  Beta  occ. eigenvalues --  -14.15918 -14.15432 -10.06903 -10.06372 -10.04817
  Beta  occ. eigenvalues --  -10.04057 -10.03918 -10.03207 -10.01948 -10.01711
  Beta  occ. eigenvalues --  -10.00856  -0.82453  -0.73269  -0.69028  -0.62938
  Beta  occ. eigenvalues --   -0.60579  -0.56776  -0.51285  -0.47211  -0.46050
  Beta  occ. eigenvalues --   -0.39184  -0.37346  -0.34587  -0.32205  -0.30376
  Beta  occ. eigenvalues --   -0.29438  -0.28037  -0.26906  -0.25775  -0.25067
  Beta  occ. eigenvalues --   -0.24349  -0.23027  -0.21091  -0.19764  -0.15336
  Beta  occ. eigenvalues --   -0.15170  -0.14919  -0.09768  -0.06783
  Beta virt. eigenvalues --    0.08634   0.09310   0.09855   0.10593   0.10929
  Beta virt. eigenvalues --    0.11302   0.11903   0.12042   0.13046   0.13200
  Beta virt. eigenvalues --    0.13689   0.13974   0.16087   0.16689   0.17883

 Mulliken charges and spin densities:
               1          2
     1  C   -0.229770  -0.187801
     2  C    0.004230   0.178288
     3  N   -0.087817  -0.053069
     4  C   -0.196755   0.121661
     5  C    1.445645  -0.238898
     6  C   -0.734486  -0.270012
     7  C    0.183895   0.100777
     8  C   -0.057526  -0.443980
     9  C   -0.597254   0.259151
    10  C   -0.744245   0.296404
    11  N   -0.019868   0.021342
    12  H    0.114063   0.004541
    13  H    0.069517   0.069613
    14  H    0.130517   0.008645
    15  H    0.044673   0.078418
    16  H   -0.053536   0.140777
    17  H   -0.346838   0.472052
    18  H   -0.098798   0.222373
    19  H    0.034511   0.084969
    20  H    0.032972   0.100906
    21  H    0.106870   0.033844
 Sum of Mulliken charges =  -1.00000   1.00000

 Dipole moment (field-independent basis, Debye):
    X=              1.5514    Y=             -0.9968    Z=              0.7070  Tot=              1.9749
 Quadrupole moment (field-independent basis, Debye-Ang):
   XX=           -110.7337   YY=            -85.2546   ZZ=            -77.1603
   XY=              1.1899   XZ=             -2.0952   YZ=             -0.0896

 Summary of Natural Population Analysis:

                                       Natural Population
                Natural  -----------------------------------------------
    Atom  No    Charge         Core      Valence    Rydberg      Total
 -----------------------------------------------------------------------
      C    1   -0.30347      0.99964     2.29857    0.00526     3.30347
      C    2    0.27436      0.99963     1.70972    0.01628     2.72564
      N    3   -0.28399      0.99969     2.77356    0.01074     3.78399
      C    4    0.08823      0.99955     1.89868    0.01354     2.91177
      C    5   -0.05762      0.99945     2.04949    0.00867     3.05762
      C    6   -0.11435      0.99952     2.10438    0.01045     3.11435
      C    7   -0.02138      0.99955     2.01133    0.01051     3.02138
      C    8   -0.20879      0.99963     2.19831    0.01085     3.20879
      C    9   -0.20142      0.99960     2.19299    0.00883     3.20142
      C   10    0.14520      0.99950     1.84233    0.01296     2.85480
      N   11   -0.27011      0.99965     2.75945    0.01101     3.77011
      H   12    0.09977      0.00000     0.39914    0.00109     0.40023
      H   13    0.10138      0.00000     0.39724    0.00138     0.39862
      H   14    0.10097      0.00000     0.39805    0.00098     0.39903
      H   15    0.07581      0.00000     0.42219    0.00200     0.42419
      H   16    0.09090      0.00000     0.40720    0.00190     0.40910
      H   17    0.08701      0.00000     0.41186    0.00112     0.41299
      H   18    0.09672      0.00000     0.40213    0.00116     0.40328
      H   19    0.09791      0.00000     0.40081    0.00128     0.40209
      H   20    0.10033      0.00000     0.39807    0.00161     0.39967
      H   21    0.10255      0.00000     0.39545    0.00200     0.39745
 =======================================================================
   * Total *   -0.00000     10.99543    27.87096    0.13361    39.00000

 Normal termination of Gaussian 16 at Tue Dec  8 19:27:34 2020.
