 Gaussian 16, Revision A.03,

 -----------------------------------------------------------
 # opt freq B3LYP/6-31G(d) empiricaldispersion=gd3bj scf=xqc
 -----------------------------------------------------------

 ------------------------------
 CID_87394731_JID_1584_neutraal
 ------------------------------
 Symbolic Z-matrix:
 Charge =  0 Multiplicity = 1

 SCF Done:  E(RB3LYP) =  -511.623073213     A.U. after   14 cycles
 SCF Done:  E(RB3LYP) =  -511.630864153     A.U. after   13 cycles
 SCF Done:  E(RB3LYP) =  -511.632854866     A.U. after   13 cycles
 SCF Done:  E(RB3LYP) =  -511.636495693     A.U. after   14 cycles
 SCF Done:  E(RB3LYP) =  -511.639079790     A.U. after   13 cycles
 SCF Done:  E(RB3LYP) =  -511.641578103     A.U. after   13 cycles
 SCF Done:  E(RB3LYP) =  -511.642480009     A.U. after   12 cycles
 SCF Done:  E(RB3LYP) =  -511.642780294     A.U. after   11 cycles
 SCF Done:  E(RB3LYP) =  -511.642897806     A.U. after   11 cycles
 SCF Done:  E(RB3LYP) =  -511.642926165     A.U. after   10 cycles
 SCF Done:  E(RB3LYP) =  -511.642945148     A.U. after   10 cycles
 SCF Done:  E(RB3LYP) =  -511.642951939     A.U. after    9 cycles
 SCF Done:  E(RB3LYP) =  -511.642954275     A.U. after    8 cycles
 SCF Done:  E(RB3LYP) =  -511.642954943     A.U. after    8 cycles
 SCF Done:  E(RB3LYP) =  -511.642955067     A.U. after    7 cycles
 Optimization completed.
    -- Stationary point found.
 Normal termination of Gaussian 16 at Tue Dec  8 20:26:48 2020.

 --------------------------------------------------------------------
 #N Geom=AllCheck Guess=TCheck SCRF=Check GenChk RB3LYP/6-31G(d) Freq
 --------------------------------------------------------------------

 Structure from the checkpoint file:  "JID_1584.chk"
 ------------------------------
 CID_87394731_JID_1584_neutraal
 ------------------------------
 Charge =  0 Multiplicity = 1

 SCF Done:  E(RB3LYP) =  -511.642955067     A.U. after    1 cycles

  Exact polarizability: 124.519  -0.728 101.476  -8.274  -3.205  53.948
 Approx polarizability: 185.574   6.347 168.970 -23.437  -8.968  84.444

                      1                      2                      3
                      A                      A                      A
 Frequencies --     53.6035               109.1149               140.3665
 Red. masses --      4.0234                 4.3434                 4.2357
 Frc consts  --      0.0068                 0.0305                 0.0492
 IR Inten    --      1.5889                 1.3989                 1.0531

                      4                      5                      6
                      A                      A                      A
 Frequencies --    160.7260               222.7790               231.9933
 Red. masses --      3.7024                 1.2600                 3.3526
 Frc consts  --      0.0564                 0.0368                 0.1063
 IR Inten    --      2.4834                 0.3713                 2.2083

                      7                      8                      9
                      A                      A                      A
 Frequencies --    368.0442               378.9828               442.2701
 Red. masses --      3.4519                 2.7740                 3.4997
 Frc consts  --      0.2755                 0.2347                 0.4033
 IR Inten    --      1.2784                 2.4822                 9.3083

                     10                     11                     12
                      A                      A                      A
 Frequencies --    452.7448               493.3230               580.0362
 Red. masses --      3.3854                 4.7835                 4.2650
 Frc consts  --      0.4089                 0.6859                 0.8454
 IR Inten    --      3.9637                 5.7059                 0.9143

                     13                     14                     15
                      A                      A                      A
 Frequencies --    595.3942               647.8204               716.6109
 Red. masses --      6.9429                 1.3528                 3.3091
 Frc consts  --      1.4501                 0.3345                 1.0012
 IR Inten    --      2.9126                42.4646                 8.2911

                     16                     17                     18
                      A                      A                      A
 Frequencies --    727.0241               776.7679               785.3474
 Red. masses --      4.9156                 1.3205                11.8647
 Frc consts  --      1.5308                 0.4694                 4.3115
 IR Inten    --     11.1051                43.1514                39.1753

                     19                     20                     21
                      A                      A                      A
 Frequencies --    822.7952               853.7889               925.2710
 Red. masses --      3.1945                 5.2234                 1.1897
 Frc consts  --      1.2742                 2.2434                 0.6001
 IR Inten    --      7.2345                24.9848                 4.9871

                     22                     23                     24
                      A                      A                      A
 Frequencies --    953.1366               999.2076              1021.0718
 Red. masses --      3.9863                 1.4262                 3.5856
 Frc consts  --      2.1337                 0.8390                 2.2026
 IR Inten    --     15.3563                 0.5583                 6.6766

                     25                     26                     27
                      A                      A                      A
 Frequencies --   1043.3654              1055.7635              1083.1879
 Red. masses --      3.0757                 1.1813                 2.5760
 Frc consts  --      1.9727                 0.7758                 1.7807
 IR Inten    --      3.1141                 4.3206                 0.9144

                     28                     29                     30
                      A                      A                      A
 Frequencies --   1132.5092              1144.7600              1147.9302
 Red. masses --      1.3196                 1.8219                 1.8531
 Frc consts  --      0.9972                 1.4067                 1.4387
 IR Inten    --      0.2739                39.6514                 4.4456

                     31                     32                     33
                      A                      A                      A
 Frequencies --   1170.9897              1204.4635              1226.7747
 Red. masses --      1.5616                 1.7120                 1.9976
 Frc consts  --      1.2616                 1.4633                 1.7713
 IR Inten    --     17.0318                 2.3141                20.7306

                     34                     35                     36
                      A                      A                      A
 Frequencies --   1366.3319              1399.4208              1418.4861
 Red. masses --      1.4051                 1.6016                 2.9729
 Frc consts  --      1.5455                 1.8480                 3.5244
 IR Inten    --     66.1702                 6.3887               106.4625

                     37                     38                     39
                      A                      A                      A
 Frequencies --   1426.9958              1454.3679              1500.4348
 Red. masses --      1.5542                 1.4551                 3.5132
 Frc consts  --      1.8646                 1.8133                 4.6600
 IR Inten    --     29.9410                17.2861                38.1338

                     40                     41                     42
                      A                      A                      A
 Frequencies --   1511.8028              1525.3566              1537.7499
 Red. masses --      1.0498                 1.0480                 1.3429
 Frc consts  --      1.4137                 1.4367                 1.8710
 IR Inten    --      3.3071                16.9032                46.4347

                     43                     44                     45
                      A                      A                      A
 Frequencies --   1606.2422              1662.6467              1818.8260
 Red. masses --      4.4932                 6.3129                10.1033
 Frc consts  --      6.8300                10.2820                19.6923
 IR Inten    --    714.4105               152.3079               658.7213

                     46                     47                     48
                      A                      A                      A
 Frequencies --   3061.9840              3122.6040              3128.2549
 Red. masses --      1.0356                 1.0535                 1.1022
 Frc consts  --      5.7208                 6.0524                 6.3553
 IR Inten    --     10.5722                14.1208                16.3030

                     49                     50                     51
                      A                      A                      A
 Frequencies --   3135.4148              3145.5943              3158.9395
 Red. masses --      1.1001                 1.0899                 1.0920
 Frc consts  --      6.3721                 6.3539                 6.4204
 IR Inten    --      4.6348                39.8770                36.1989

                     52                     53                     54
                      A                      A                      A
 Frequencies --   3214.5130              3258.3803              3597.4458
 Red. masses --      1.1185                 1.0933                 1.0774
 Frc consts  --      6.8096                 6.8391                 8.2152
 IR Inten    --     16.6809                 1.7606                34.9642

 - Thermochemistry -
 -------------------
 Temperature   298.150 Kelvin.  Pressure   1.00000 Atm.
 Atom     1 has atomic number  6 and mass  12.00000

 Molecular mass:   151.07456 amu.
 Principal axes and moments of inertia in atomic units:
                           1         2         3
     Eigenvalues --   780.785652346.175822833.56755
           X            0.99989  -0.00528   0.01377
           Y            0.00513   0.99993   0.01096
           Z           -0.01383  -0.01089   0.99985
 This molecule is an asymmetric top.
 Rotational symmetry number  1.
 Warning -- assumption of classical behavior for rotation
           may cause significant error
 Rotational temperatures (Kelvin)      0.11093     0.03692     0.03057
 Rotational constants (GHZ):           2.31144     0.76923     0.63691
 Zero-point vibrational energy     422998.1 (Joules/Mol)
                                  101.09897 (Kcal/Mol)
 Warning -- explicit consideration of  13 degrees of freedom as
           vibrations may cause significant error
 Vibrational temperatures:     77.12   156.99   201.96   231.25   320.53
          (Kelvin)            333.79   529.53   545.27   636.33   651.40
                              709.78   834.54   856.64   932.07  1031.04
                             1046.03  1117.60  1129.94  1183.82  1228.41
                             1331.26  1371.35  1437.64  1469.09  1501.17
                             1519.01  1558.47  1629.43  1647.05  1651.62
                             1684.79  1732.95  1765.06  1965.85  2013.45
                             2040.89  2053.13  2092.51  2158.79  2175.15
                             2194.65  2212.48  2311.02  2392.18  2616.89
                             4405.51  4492.73  4500.86  4511.16  4525.81
                             4545.01  4624.97  4688.08  5175.92

 Zero-point correction=                           0.161111 (Hartree/Particle)
 Thermal correction to Energy=                    0.170653
 Thermal correction to Enthalpy=                  0.171597
 Thermal correction to Gibbs Free Energy=         0.125868
 Sum of electronic and zero-point Energies=           -511.481844
 Sum of electronic and thermal Energies=              -511.472302
 Sum of electronic and thermal Enthalpies=            -511.471358
 Sum of electronic and thermal Free Energies=         -511.517087

                     E (Thermal)             CV                S
                      KCal/Mol        Cal/Mol-Kelvin    Cal/Mol-Kelvin
 Total                  107.086             36.339             96.246
 Electronic               0.000              0.000              0.000
 Translational            0.889              2.981             40.948
 Rotational               0.889              2.981             30.030
 Vibrational            105.309             30.378             25.268
 Vibration     1          0.596              1.976              4.680
 Vibration     2          0.606              1.942              3.285
 Vibration     3          0.615              1.913              2.799
 Vibration     4          0.622              1.891              2.541
 Vibration     5          0.648              1.806              1.936
 Vibration     6          0.653              1.792              1.863
 Vibration     7          0.741              1.538              1.088
 Vibration     8          0.749              1.515              1.043
 Vibration     9          0.802              1.378              0.820
 Vibration    10          0.811              1.355              0.788
 Vibration    11          0.849              1.265              0.675
 Vibration    12          0.937              1.074              0.485
 Vibration    13          0.953              1.042              0.458

 Optimization completed.
    -- Stationary point found.
 Normal termination of Gaussian 16 at Tue Dec  8 20:30:47 2020.

 ----------------------------------------------------------------------
 # B3LYP/6-311++G(d,p) empiricaldispersion=gd3bj scf=xqc pop=npa geom=c
 heck
 ----------------------------------------------------------------------

 --------------------------------------
 CID_87394731_JID_1584_Energie_neutraal
 --------------------------------------
 Structure from the checkpoint file:  "JID_1584.chk"
 Charge =  0 Multiplicity = 1

 SCF Done:  E(RB3LYP) =  -511.786916142     A.U. after   14 cycles
 Normal termination of Gaussian 16 at Tue Dec  8 20:32:40 2020.

 ----------------------------------------------------------------------
 # B3LYP/6-311++G(d,p) empiricaldispersion=gd3bj scf=xqc pop=npa geom=c
 heck
 ----------------------------------------------------------------------

 ------------------------------------
 CID_87394731_JID_1584_Energie_kation
 ------------------------------------
 Structure from the checkpoint file:  "JID_1584.chk"
 Charge =  1 Multiplicity = 2

 SCF Done:  E(UB3LYP) =  -511.483031355     A.U. after   22 cycles
 Normal termination of Gaussian 16 at Tue Dec  8 20:36:08 2020.
 Gaussian 16:  ES64L-G16RevA.03 25-Dec-2016

 ----------------------------------------------------------------------
 # B3LYP/6-311++G(d,p) empiricaldispersion=gd3bj scf=xqc pop=npa geom=c
 heck
 ----------------------------------------------------------------------

 -----------------------------------
 CID_87394731_JID_1584_Energie_anion
 -----------------------------------
 Structure from the checkpoint file:  "JID_1584.chk"
 Charge = -1 Multiplicity = 2

                         Standard orientation:
 ---------------------------------------------------------------------
 Center     Atomic      Atomic             Coordinates (Angstroms)
 Number     Number       Type             X           Y           Z
 ---------------------------------------------------------------------
      1          6           0        2.678112    0.844659    1.043907
      2          6           0        2.660818   -0.061262   -0.163629
      3          6           0        2.116881   -1.452277   -0.050832
      4          7           0        1.404286   -0.435283   -0.817575
      5          6           0        0.167052    0.059481   -0.453169
      6          6           0       -0.183281    1.394175   -0.484667
      7          6           0       -1.524307    1.698921   -0.161252
      8          7           0       -2.469441    0.842316    0.157987
      9          6           0       -2.157368   -0.502150    0.182830
     10          8           0       -2.924743   -1.411281    0.443971
     11          7           0       -0.798440   -0.835694   -0.119873
     12          1           0        1.857128    0.615248    1.729630
     13          1           0        2.590295    1.896949    0.755152
     14          1           0        3.624197    0.718234    1.581200
     15          1           0        3.466923    0.101322   -0.877264
     16          1           0        2.541522   -2.265796   -0.633400
     17          1           0        1.702552   -1.739970    0.915484
     18          1           0        0.533567    2.156060   -0.756951
     19          1           0       -1.825848    2.747695   -0.169461
     20          1           0       -0.594674   -1.828143   -0.119064
 ---------------------------------------------------------------------

 SCF Done:  E(UB3LYP) =  -511.787428700     A.U. after   32 cycles

 The electronic state is 2-A.
 Alpha  occ. eigenvalues --  -18.95410 -14.23501 -14.23165 -14.15836 -10.16122
 Alpha  occ. eigenvalues --  -10.13369 -10.11718 -10.10830 -10.08042 -10.06944
 Alpha  occ. eigenvalues --  -10.04506  -0.92350  -0.89494  -0.83049  -0.77145
 Alpha  occ. eigenvalues --   -0.67418  -0.63934  -0.59099  -0.53086  -0.51793
 Alpha  occ. eigenvalues --   -0.47982  -0.43079  -0.40886  -0.40342  -0.38509
 Alpha  occ. eigenvalues --   -0.33600  -0.32840  -0.31962  -0.31276  -0.30183
 Alpha  occ. eigenvalues --   -0.28084  -0.27444  -0.24527  -0.24148  -0.23633
 Alpha  occ. eigenvalues --   -0.20536  -0.15812  -0.14661  -0.12953  -0.09979
 Alpha  occ. eigenvalues --    0.04217
 Alpha virt. eigenvalues --    0.06460   0.08017   0.08605   0.08995   0.10940
 Alpha virt. eigenvalues --    0.11044   0.11913   0.12476   0.12753   0.13569
 Alpha virt. eigenvalues --    0.15454   0.15902   0.16709   0.16901   0.17450

  Beta  occ. eigenvalues --  -18.95397 -14.23362 -14.23141 -14.15695 -10.16113
  Beta  occ. eigenvalues --  -10.13055 -10.11667 -10.10773 -10.07791 -10.06909
  Beta  occ. eigenvalues --  -10.04602  -0.92220  -0.89371  -0.82835  -0.76774
  Beta  occ. eigenvalues --   -0.67127  -0.63844  -0.58898  -0.52834  -0.51554
  Beta  occ. eigenvalues --   -0.47849  -0.42937  -0.40745  -0.40140  -0.38314
  Beta  occ. eigenvalues --   -0.33419  -0.32588  -0.31576  -0.31212  -0.30126
  Beta  occ. eigenvalues --   -0.27995  -0.27357  -0.24071  -0.23974  -0.23370
  Beta  occ. eigenvalues --   -0.19466  -0.15373  -0.14553  -0.12812  -0.09550
  Beta virt. eigenvalues --    0.07156   0.08464   0.08949   0.09275   0.09434
  Beta virt. eigenvalues --    0.11185   0.11393   0.12155   0.12713   0.12991
  Beta virt. eigenvalues --    0.13849   0.15566   0.15993   0.16812   0.16992

 Mulliken charges and spin densities:
               1          2
     1  C    0.926849  -1.484295
     2  C   -0.536449   0.710939
     3  C    0.876727  -1.387154
     4  N   -0.015055   0.085404
     5  C    0.269889  -0.533299
     6  C   -0.134936   0.572673
     7  C   -0.086754  -0.080300
     8  N   -0.273488   0.064339
     9  C    0.153109   0.068228
    10  O   -0.397750   0.006413
    11  N   -0.458144   0.095491
    12  H    0.024579   0.125051
    13  H    0.150160  -0.020823
    14  H   -0.484209   0.631316
    15  H   -0.986015   1.199015
    16  H   -0.293071   0.464655
    17  H   -0.042614   0.187065
    18  H   -0.080986   0.253430
    19  H    0.141509  -0.013089
    20  H    0.246649   0.054939
 Sum of Mulliken charges =  -1.00000   1.00000

 Dipole moment (field-independent basis, Debye):
    X=              0.0479    Y=              1.3521    Z=              0.2827  Tot=              1.3822
 Quadrupole moment (field-independent basis, Debye-Ang):
   XX=           -145.5255   YY=            -84.7012   ZZ=            -84.5744
   XY=             -0.2474   XZ=              4.9801   YZ=              0.4244

 Summary of Natural Population Analysis:

                                       Natural Population
                Natural  -----------------------------------------------
    Atom  No    Charge         Core      Valence    Rydberg      Total
 -----------------------------------------------------------------------
      C    1   -0.29669      0.99965     2.29067    0.00638     3.29669
      C    2   -0.00318      0.99961     1.99035    0.01322     3.00318
      C    3   -0.09654      0.99960     2.08481    0.01213     3.09654
      N    4   -0.24221      0.99966     2.72952    0.01303     3.74221
      C    5    0.27249      0.99949     1.71496    0.01306     2.72751
      C    6   -0.21985      0.99951     2.21112    0.00921     3.21985
      C    7    0.10378      0.99963     1.88151    0.01508     2.89622
      N    8   -0.27777      0.99967     2.76602    0.01208     3.77777
      C    9    0.39095      0.99970     1.58396    0.02538     2.60905
      O   10   -0.33562      0.99987     3.32972    0.00603     4.33562
      N   11   -0.28725      0.99963     2.77951    0.00811     3.78725
      H   12    0.10422      0.00000     0.39479    0.00099     0.39578
      H   13    0.10260      0.00000     0.39638    0.00102     0.39740
      H   14    0.10689      0.00000     0.39176    0.00135     0.39311
      H   15    0.10073      0.00000     0.39619    0.00308     0.39927
      H   16    0.10020      0.00000     0.39842    0.00137     0.39980
      H   17    0.09467      0.00000     0.40404    0.00129     0.40533
      H   18    0.10644      0.00000     0.39252    0.00104     0.39356
      H   19    0.07847      0.00000     0.42016    0.00136     0.42153
      H   20    0.19766      0.00000     0.29952    0.00281     0.30234
 =======================================================================
   * Total *   -0.00000     10.99603    28.85594    0.14803    40.00000

 Normal termination of Gaussian 16 at Tue Dec  8 20:41:56 2020.
