 Gaussian 16, Revision A.03,

 -----------------------------------------------------------
 # opt freq B3LYP/6-31G(d) empiricaldispersion=gd3bj scf=xqc
 -----------------------------------------------------------

 ------------------------------
 CID_66437754_JID_9652_neutraal
 ------------------------------
 Symbolic Z-matrix:
 Charge =  0 Multiplicity = 1

 SCF Done:  E(RB3LYP) =  -1291.69291319     A.U. after   16 cycles
 SCF Done:  E(RB3LYP) =  -1291.69844589     A.U. after   15 cycles
 SCF Done:  E(RB3LYP) =  -1291.68719182     A.U. after   17 cycles
 SCF Done:  E(RB3LYP) =  -1291.70125151     A.U. after   15 cycles
 SCF Done:  E(RB3LYP) =  -1291.70203196     A.U. after   15 cycles
 SCF Done:  E(RB3LYP) =  -1291.70269631     A.U. after   15 cycles
 SCF Done:  E(RB3LYP) =  -1291.70315768     A.U. after   15 cycles
 SCF Done:  E(RB3LYP) =  -1291.70365011     A.U. after   14 cycles
 SCF Done:  E(RB3LYP) =  -1291.70368767     A.U. after   14 cycles
 SCF Done:  E(RB3LYP) =  -1291.70397126     A.U. after   13 cycles
 SCF Done:  E(RB3LYP) =  -1291.70402181     A.U. after   13 cycles
 SCF Done:  E(RB3LYP) =  -1291.70402385     A.U. after   12 cycles
 SCF Done:  E(RB3LYP) =  -1291.70402663     A.U. after   10 cycles
 SCF Done:  E(RB3LYP) =  -1291.70402675     A.U. after    8 cycles
 SCF Done:  E(RB3LYP) =  -1291.70402676     A.U. after    7 cycles
 Optimization completed.
    -- Stationary point found.
 Normal termination of Gaussian 16 at Sun Dec 13 12:39:27 2020.

 --------------------------------------------------------------------
 #N Geom=AllCheck Guess=TCheck SCRF=Check GenChk RB3LYP/6-31G(d) Freq
 --------------------------------------------------------------------

 Structure from the checkpoint file:  "JID_9652.chk"
 ------------------------------
 CID_66437754_JID_9652_neutraal
 ------------------------------
 Charge =  0 Multiplicity = 1

 SCF Done:  E(RB3LYP) =  -1291.70402676     A.U. after    1 cycles

  Exact polarizability: 163.866  24.002 139.847  -8.837  -0.915 154.482
 Approx polarizability: 244.199  59.967 236.664  -7.440  -1.917 319.571

                      1                      2                      3
                      A                      A                      A
 Frequencies --     17.0538                30.2450                47.0379
 Red. masses --      7.2501                 7.7530                 9.0407
 Frc consts  --      0.0012                 0.0042                 0.0118
 IR Inten    --      0.1922                 1.5237                 0.3797

                      4                      5                      6
                      A                      A                      A
 Frequencies --     73.6482                75.1156               100.0953
 Red. masses --     12.7902                12.5986                 8.6426
 Frc consts  --      0.0409                 0.0419                 0.0510
 IR Inten    --      0.3598                 0.9421                 0.4070

                      7                      8                      9
                      A                      A                      A
 Frequencies --    113.1738               139.1346               172.1820
 Red. masses --      5.5056                 5.4272                 7.9901
 Frc consts  --      0.0415                 0.0619                 0.1396
 IR Inten    --      0.5537                 1.1084                 0.9114

                     10                     11                     12
                      A                      A                      A
 Frequencies --    183.6211               255.1798               275.0929
 Red. masses --      7.5015                 5.3530                 6.6021
 Frc consts  --      0.1490                 0.2054                 0.2944
 IR Inten    --      2.0223                 7.4642                 2.3317

                     13                     14                     15
                      A                      A                      A
 Frequencies --    342.8361               358.7129               381.3757
 Red. masses --      4.0565                10.7127                 4.5431
 Frc consts  --      0.2809                 0.8122                 0.3893
 IR Inten    --      3.4592                 0.4008                 1.4016

                     16                     17                     18
                      A                      A                      A
 Frequencies --    400.8691               407.4896               430.0784
 Red. masses --      5.8764                 6.3738                 3.5371
 Frc consts  --      0.5564                 0.6236                 0.3855
 IR Inten    --      4.0761                 7.9491                 0.8755

                     19                     20                     21
                      A                      A                      A
 Frequencies --    464.8977               478.6172               515.5762
 Red. masses --      4.2592                 7.9326                 5.0340
 Frc consts  --      0.5424                 1.0706                 0.7884
 IR Inten    --      8.0269                 3.3973                 5.2598

                     22                     23                     24
                      A                      A                      A
 Frequencies --    555.6436               578.1816               591.1678
 Red. masses --      6.3159                 4.1486                 1.3848
 Frc consts  --      1.1489                 0.8171                 0.2851
 IR Inten    --      6.3328                 6.0508                77.6794

                     25                     26                     27
                      A                      A                      A
 Frequencies --    616.2916               661.8915               678.4083
 Red. masses --      4.1605                 4.3442                 4.0164
 Frc consts  --      0.9310                 1.1213                 1.0891
 IR Inten    --      4.3360                61.4193                13.6645

                     28                     29                     30
                      A                      A                      A
 Frequencies --    685.8220               720.9494               748.6872
 Red. masses --      3.6873                 5.2364                 3.8882
 Frc consts  --      1.0218                 1.6036                 1.2841
 IR Inten    --     15.3574                15.5437                19.8160

                     31                     32                     33
                      A                      A                      A
 Frequencies --    752.1917               755.7075               802.2301
 Red. masses --      4.4191                 2.1471                 2.2288
 Frc consts  --      1.4731                 0.7224                 0.8451
 IR Inten    --     16.2337                35.9665                13.6913

                     34                     35                     36
                      A                      A                      A
 Frequencies --    807.6206               830.0397               871.8065
 Red. masses --      1.6972                 4.4477                 1.9221
 Frc consts  --      0.6522                 1.8055                 0.8607
 IR Inten    --     25.7431                35.1693                13.7606

                     37                     38                     39
                      A                      A                      A
 Frequencies --    876.9974               880.3667               892.6070
 Red. masses --      3.0842                 3.7970                 1.5992
 Frc consts  --      1.3976                 1.7339                 0.7507
 IR Inten    --      2.9209                26.1210                 2.1581

                     40                     41                     42
                      A                      A                      A
 Frequencies --    957.8700               964.6686               997.8113
 Red. masses --      2.4549                 2.0127                 1.2933
 Frc consts  --      1.3271                 1.1035                 0.7587
 IR Inten    --     12.5594                 3.9489                 0.5276

                     43                     44                     45
                      A                      A                      A
 Frequencies --   1022.9805              1046.9365              1058.8976
 Red. masses --      2.1416                 2.8104                 7.5944
 Frc consts  --      1.3204                 1.8149                 5.0171
 IR Inten    --     20.4869               104.5812                88.2919

                     46                     47                     48
                      A                      A                      A
 Frequencies --   1078.6099              1113.6547              1180.1906
 Red. masses --      2.3099                 3.5979                 1.7038
 Frc consts  --      1.5833                 2.6290                 1.3982
 IR Inten    --      1.7835                 2.0349               108.8716

                     49                     50                     51
                      A                      A                      A
 Frequencies --   1182.0373              1199.3134              1218.6903
 Red. masses --      1.8438                 1.1008                 1.5380
 Frc consts  --      1.5179                 0.9329                 1.3458
 IR Inten    --     61.6895                 0.8168               119.3941

                     52                     53                     54
                      A                      A                      A
 Frequencies --   1235.8025              1241.7147              1282.1505
 Red. masses --      2.7293                 1.8921                 1.2952
 Frc consts  --      2.4558                 1.7188                 1.2545
 IR Inten    --     16.3534               113.7040                 8.1119

                     55                     56                     57
                      A                      A                      A
 Frequencies --   1328.6954              1366.8749              1391.4426
 Red. masses --      1.3061                 4.6242                 3.2944
 Frc consts  --      1.3586                 5.0903                 3.7580
 IR Inten    --      0.7500                11.1484                65.7254

                     58                     59                     60
                      A                      A                      A
 Frequencies --   1403.5685              1417.2132              1432.0776
 Red. masses --      1.8877                12.1768                 2.8797
 Frc consts  --      2.1910                14.4097                 3.4796
 IR Inten    --     78.0865               176.3632                 9.8983

                     61                     62                     63
                      A                      A                      A
 Frequencies --   1488.4393              1498.1312              1519.8468
 Red. masses --      3.6724                 2.4406                 1.2905
 Frc consts  --      4.7936                 3.2273                 1.7563
 IR Inten    --    154.1034                42.3604                27.0718

                     64                     65                     66
                      A                      A                      A
 Frequencies --   1534.7137              1607.9474              1632.6561
 Red. masses --      2.2246                 6.4611                 8.8199
 Frc consts  --      3.0871                 9.8424                13.8516
 IR Inten    --      6.3279                43.4754               142.9171

                     67                     68                     69
                      A                      A                      A
 Frequencies --   1645.3965              1673.3316              1814.8553
 Red. masses --      6.4905                 7.4003                 9.8044
 Frc consts  --     10.3530                12.2086                19.0263
 IR Inten    --     50.6409                28.4113               344.0653

                     70                     71                     72
                      A                      A                      A
 Frequencies --   3053.0210              3167.9288              3194.7357
 Red. masses --      1.0707                 1.0942                 1.0876
 Frc consts  --      5.8799                 6.4701                 6.5404
 IR Inten    --     33.8112                 4.9481                 2.6714

                     73                     74                     75
                      A                      A                      A
 Frequencies --   3208.0813              3220.9093              3240.4685
 Red. masses --      1.0902                 1.0951                 1.0940
 Frc consts  --      6.6107                 6.6937                 6.7683
 IR Inten    --      7.5857                11.7824                 1.2932

                     76                     77                     78
                      A                      A                      A
 Frequencies --   3249.8929              3276.1952              3700.5963
 Red. masses --      1.0938                 1.0946                 1.0642
 Frc consts  --      6.8065                 6.9225                 8.5863
 IR Inten    --      0.2876                 6.6284                84.9536

 - Thermochemistry -
 -------------------
 Temperature   298.150 Kelvin.  Pressure   1.00000 Atm.
 Atom     1 has atomic number  6 and mass  12.00000

 Molecular mass:   279.02014 amu.
 Principal axes and moments of inertia in atomic units:
                           1         2         3
     Eigenvalues --  2951.838698266.221978781.40692
           X            0.99993  -0.00727  -0.00953
           Y            0.00737   0.99992   0.00995
           Z            0.00945  -0.01002   0.99991
 This molecule is an asymmetric top.
 Rotational symmetry number  1.
 Warning -- assumption of classical behavior for rotation
           may cause significant error
 Rotational temperatures (Kelvin)      0.02934     0.01048     0.00986
 Rotational constants (GHZ):           0.61140     0.21833     0.20552
 Zero-point vibrational energy     522869.7 (Joules/Mol)
                                  124.96886 (Kcal/Mol)
 Warning -- explicit consideration of  25 degrees of freedom as
           vibrations may cause significant error
 Vibrational temperatures:     24.54    43.52    67.68   105.96   108.07
          (Kelvin)            144.01   162.83   200.18   247.73   264.19
                              367.15   395.80   493.26   516.11   548.71
                              576.76   586.29   618.79   668.88   688.62
                              741.80   799.45   831.87   850.56   886.71
                              952.31   976.08   986.74  1037.29  1077.19
                             1082.24  1087.29  1154.23  1161.99  1194.24
                             1254.34  1261.80  1266.65  1284.26  1378.16
                             1387.94  1435.63  1471.84  1506.31  1523.52
                             1551.88  1602.30  1698.03  1700.69  1725.54
                             1753.42  1778.04  1786.55  1844.73  1911.70
                             1966.63  2001.98  2019.42  2039.05  2060.44
                             2141.53  2155.48  2186.72  2208.11  2313.48
                             2349.03  2367.36  2407.55  2611.17  4392.62
                             4557.94  4596.51  4615.71  4634.17  4662.31
                             4675.87  4713.71  5324.33

 Zero-point correction=                           0.199151 (Hartree/Particle)
 Thermal correction to Energy=                    0.215392
 Thermal correction to Enthalpy=                  0.216336
 Thermal correction to Gibbs Free Energy=         0.152576
 Sum of electronic and zero-point Energies=          -1291.504876
 Sum of electronic and thermal Energies=             -1291.488635
 Sum of electronic and thermal Enthalpies=           -1291.487690
 Sum of electronic and thermal Free Energies=        -1291.551451

                     E (Thermal)             CV                S
                      KCal/Mol        Cal/Mol-Kelvin    Cal/Mol-Kelvin
 Total                  135.161             60.850            134.196
 Electronic               0.000              0.000              0.000
 Translational            0.889              2.981             42.777
 Rotational               0.889              2.981             33.726
 Vibrational            133.383             54.889             57.693
 Vibration     1          0.593              1.986              6.951
 Vibration     2          0.594              1.984              5.813
 Vibration     3          0.595              1.979              4.938
 Vibration     4          0.599              1.966              4.053
 Vibration     5          0.599              1.966              4.015
 Vibration     6          0.604              1.949              3.452
 Vibration     7          0.607              1.939              3.214
 Vibration     8          0.615              1.914              2.816
 Vibration     9          0.626              1.877              2.412
 Vibration    10          0.631              1.862              2.291
 Vibration    11          0.666              1.754              1.695
 Vibration    12          0.677              1.719              1.564
 Vibration    13          0.722              1.590              1.199
 Vibration    14          0.734              1.557              1.128
 Vibration    15          0.751              1.510              1.034
 Vibration    16          0.767              1.468              0.959
 Vibration    17          0.772              1.454              0.936
 Vibration    18          0.791              1.405              0.858
 Vibration    19          0.822              1.328              0.752
 Vibration    20          0.835              1.297              0.714
 Vibration    21          0.871              1.215              0.620
 Vibration    22          0.911              1.127              0.533
 Vibration    23          0.935              1.078              0.489
 Vibration    24          0.949              1.051              0.465
 Vibration    25          0.976              0.997              0.422

 Optimization completed.
    -- Stationary point found.
 Normal termination of Gaussian 16 at Sun Dec 13 12:54:00 2020.

 ----------------------------------------------------------------------
 # B3LYP/6-311++G(d,p) empiricaldispersion=gd3bj scf=xqc pop=npa geom=c
 heck
 ----------------------------------------------------------------------

 --------------------------------------
 CID_66437754_JID_9652_Energie_neutraal
 --------------------------------------
 Structure from the checkpoint file:  "JID_9652.chk"
 Charge =  0 Multiplicity = 1

 SCF Done:  E(RB3LYP) =  -1291.98930920     A.U. after   17 cycles
 Normal termination of Gaussian 16 at Sun Dec 13 13:00:36 2020.

 ----------------------------------------------------------------------
 # B3LYP/6-311++G(d,p) empiricaldispersion=gd3bj scf=xqc pop=npa geom=c
 heck
 ----------------------------------------------------------------------

 ------------------------------------
 CID_66437754_JID_9652_Energie_kation
 ------------------------------------
 Structure from the checkpoint file:  "JID_9652.chk"
 Charge =  1 Multiplicity = 2

 SCF Done:  E(UB3LYP) =  -1291.66850808     A.U. after   32 cycles
 Normal termination of Gaussian 16 at Sun Dec 13 13:17:49 2020.
 Gaussian 16:  ES64L-G16RevA.03 25-Dec-2016

 ----------------------------------------------------------------------
 # B3LYP/6-311++G(d,p) empiricaldispersion=gd3bj scf=xqc pop=npa geom=c
 heck
 ----------------------------------------------------------------------

 -----------------------------------
 CID_66437754_JID_9652_Energie_anion
 -----------------------------------
 Structure from the checkpoint file:  "JID_9652.chk"
 Charge = -1 Multiplicity = 2

                         Standard orientation:
 ---------------------------------------------------------------------
 Center     Atomic      Atomic             Coordinates (Angstroms)
 Number     Number       Type             X           Y           Z
 ---------------------------------------------------------------------
      1          6           0       -1.698519    2.909634    0.124438
      2          6           0       -2.489980    2.436888    1.170059
      3          6           0       -2.881689    1.099882    1.188517
      4          6           0       -2.502371    0.269495    0.139672
      5          6           0       -1.701594    0.709689   -0.922247
      6          6           0       -1.295983    2.045174   -0.895070
      7          6           0       -1.167208   -0.229961   -1.978486
      8          8           0       -0.500677   -1.357000   -1.386819
      9          6           0        0.551931   -1.031839   -0.568023
     10          6           0        0.536073   -1.283647    0.783760
     11         16           0        2.008728   -0.806244    1.545834
     12          6           0        2.649001   -0.239118    0.026519
     13          6           0        1.763986   -0.429702   -1.008544
     14          6           0        3.993939    0.334869   -0.002666
     15          8           0        4.722179    0.455706    0.963268
     16          8           0        4.354821    0.734918   -1.250547
     17          7           0       -2.973568   -1.122980    0.194613
     18          8           0       -2.936437   -1.683997    1.290708
     19          8           0       -3.402372   -1.624961   -0.839829
     20          1           0       -1.374231    3.945618    0.111573
     21          1           0       -2.792913    3.098634    1.975057
     22          1           0       -3.477406    0.693292    1.997185
     23          1           0       -0.639904    2.406774   -1.681684
     24          1           0       -1.965777   -0.663801   -2.579031
     25          1           0       -0.480424    0.318484   -2.635349
     26          1           0       -0.279516   -1.714223    1.348464
     27          1           0        1.982511   -0.161479   -2.034546
     28          1           0        5.257374    1.091955   -1.159126
 ---------------------------------------------------------------------

 SCF Done:  E(UB3LYP) =  -1292.03407778     A.U. after   24 cycles

 The electronic state is 2-A.
 Alpha  occ. eigenvalues --  -88.77048 -19.07662 -19.03038 -19.00881 -18.97807
 Alpha  occ. eigenvalues --  -18.97721 -14.35416 -10.20352 -10.12093 -10.11698
 Alpha  occ. eigenvalues --  -10.09944 -10.09186 -10.08452 -10.07733 -10.07224
 Alpha  occ. eigenvalues --  -10.06960 -10.06836 -10.06344 -10.06168  -7.85649
 Alpha  occ. eigenvalues --   -5.81935  -5.81576  -5.81253  -1.05649  -1.01299
 Alpha  occ. eigenvalues --   -0.94720  -0.92087  -0.88516  -0.77740  -0.75767
 Alpha  occ. eigenvalues --   -0.67090  -0.66187  -0.64688  -0.63104  -0.58593
 Alpha  occ. eigenvalues --   -0.55541  -0.54169  -0.49735  -0.47106  -0.46280
 Alpha  occ. eigenvalues --   -0.44119  -0.42315  -0.40724  -0.39060  -0.38249
 Alpha  occ. eigenvalues --   -0.37790  -0.36932  -0.36037  -0.35616  -0.35022
 Alpha  occ. eigenvalues --   -0.34266  -0.32734  -0.32340  -0.31326  -0.30362
 Alpha  occ. eigenvalues --   -0.29466  -0.28083  -0.26767  -0.25848  -0.25294
 Alpha  occ. eigenvalues --   -0.24592  -0.23452  -0.22803  -0.19081  -0.17986
 Alpha  occ. eigenvalues --   -0.16216  -0.16142  -0.15101  -0.14924  -0.14643
 Alpha  occ. eigenvalues --   -0.12637  -0.12446   0.01245
 Alpha virt. eigenvalues --    0.03768   0.06728   0.07843   0.08864   0.09105
 Alpha virt. eigenvalues --    0.09881   0.10664   0.11083   0.11517   0.11792
 Alpha virt. eigenvalues --    0.12497   0.12783   0.13768   0.13890   0.14230

  Beta  occ. eigenvalues --  -88.77029 -19.07642 -19.03022 -19.00789 -18.97438
  Beta  occ. eigenvalues --  -18.97336 -14.34864 -10.20261 -10.12132 -10.11707
  Beta  occ. eigenvalues --  -10.09902 -10.09131 -10.08349 -10.07649 -10.07113
  Beta  occ. eigenvalues --  -10.07012 -10.06865 -10.06247 -10.05974  -7.85632
  Beta  occ. eigenvalues --   -5.81927  -5.81568  -5.81190  -1.04775  -1.01200
  Beta  occ. eigenvalues --   -0.94686  -0.91954  -0.87802  -0.77631  -0.75548
  Beta  occ. eigenvalues --   -0.66851  -0.65820  -0.64483  -0.62982  -0.58369
  Beta  occ. eigenvalues --   -0.55072  -0.53877  -0.49605  -0.46844  -0.46129
  Beta  occ. eigenvalues --   -0.43928  -0.42187  -0.40376  -0.38897  -0.37623
  Beta  occ. eigenvalues --   -0.37441  -0.36452  -0.35479  -0.34996  -0.34474
  Beta  occ. eigenvalues --   -0.33871  -0.32405  -0.32045  -0.31249  -0.30291
  Beta  occ. eigenvalues --   -0.29370  -0.27928  -0.26541  -0.25342  -0.25187
  Beta  occ. eigenvalues --   -0.24500  -0.23229  -0.22553  -0.18992  -0.17860
  Beta  occ. eigenvalues --   -0.15595  -0.14670  -0.14456  -0.14330  -0.13481
  Beta  occ. eigenvalues --   -0.12257  -0.11798
  Beta virt. eigenvalues --    0.04857   0.06722   0.07348   0.07822   0.08946
  Beta virt. eigenvalues --    0.09251   0.09863   0.11080   0.11490   0.11800
  Beta virt. eigenvalues --    0.12474   0.12524   0.13121   0.13895   0.14119

 Mulliken charges and spin densities:
               1          2
     1  C   -0.599337   0.132131
     2  C   -0.329689  -0.025554
     3  C   -0.235005   0.116320
     4  C   -0.421505   0.015302
     5  C    1.511118   0.099305
     6  C   -0.366422  -0.061063
     7  C   -0.571684   0.006217
     8  O   -0.008480  -0.010305
     9  C   -1.372269  -0.009519
    10  C    0.418351   0.061000
    11  S   -0.396630   0.032295
    12  C   -0.593696  -0.018097
    13  C    1.141537   0.076628
    14  C    0.213879   0.066315
    15  O   -0.346591   0.031411
    16  O   -0.204412   0.004010
    17  N   -0.308668   0.181901
    18  O   -0.116365   0.141115
    19  O   -0.114735   0.138519
    20  H    0.132708  -0.011406
    21  H    0.137389   0.001147
    22  H    0.186360   0.008183
    23  H    0.117712   0.003390
    24  H    0.225441   0.011581
    25  H    0.096925   0.004163
    26  H    0.299052   0.013120
    27  H    0.230703  -0.008019
    28  H    0.274312  -0.000091
 Sum of Mulliken charges =  -1.00000   1.00000

 Dipole moment (field-independent basis, Debye):
    X=              4.1807    Y=              4.8837    Z=             -2.3579  Tot=              6.8476
 Quadrupole moment (field-independent basis, Debye-Ang):
   XX=           -173.3894   YY=           -136.4653   ZZ=           -125.5802
   XY=            -12.1269   XZ=            -11.9305   YZ=             -1.7521

 Summary of Natural Population Analysis:

                                       Natural Population
                Natural  -----------------------------------------------
    Atom  No    Charge         Core      Valence    Rydberg      Total
 -----------------------------------------------------------------------
      C    1   -0.06791      0.99958     2.05912    0.00921     3.06791
      C    2   -0.11215      0.99958     2.10386    0.00871     3.11215
      C    3   -0.07690      0.99952     2.06890    0.00848     3.07690
      C    4    0.06074      0.99934     1.92478    0.01513     2.93926
      C    5   -0.01553      0.99945     2.00529    0.01079     3.01553
      C    6   -0.10825      0.99953     2.10046    0.00825     3.10825
      C    7   -0.01512      0.99952     2.00473    0.01087     3.01512
      O    8   -0.27947      0.99986     3.27009    0.00952     4.27947
      C    9    0.11343      0.99933     1.87196    0.01528     2.88657
      C   10   -0.17493      0.99948     2.16536    0.01009     3.17493
      S   11    0.23083      4.99945     2.74760    0.02212     7.76917
      C   12   -0.15676      0.99945     2.14575    0.01156     3.15676
      C   13   -0.09740      0.99944     2.08917    0.00879     3.09740
      C   14    0.39136      0.99959     1.58455    0.02449     2.60864
      O   15   -0.31129      0.99987     3.30423    0.00718     4.31129
      O   16   -0.34825      0.99988     3.34264    0.00574     4.34825
      N   17    0.29898      0.99971     2.17324    0.02807     3.20102
      O   18   -0.19606      0.99990     3.18826    0.00790     4.19606
      O   19   -0.18789      0.99990     3.18015    0.00784     4.18789
      H   20    0.09233      0.00000     0.40666    0.00101     0.40767
      H   21    0.09523      0.00000     0.40383    0.00094     0.40477
      H   22    0.10965      0.00000     0.38924    0.00110     0.39035
      H   23    0.09604      0.00000     0.40289    0.00107     0.40396
      H   24    0.11021      0.00000     0.38872    0.00107     0.38979
      H   25    0.07761      0.00000     0.42091    0.00148     0.42239
      H   26    0.12570      0.00000     0.37311    0.00118     0.37430
      H   27    0.11045      0.00000     0.38848    0.00107     0.38955
      H   28    0.23534      0.00000     0.26178    0.00288     0.26466
 =======================================================================
   * Total *   -0.00000     22.99237    48.76579    0.24185    72.00000

 Normal termination of Gaussian 16 at Sun Dec 13 13:30:51 2020.
