 Gaussian 16, Revision A.03,

 -----------------------------------------------------------
 # opt freq B3LYP/6-31G(d) empiricaldispersion=gd3bj scf=xqc
 -----------------------------------------------------------

 ------------------------------
 CID_91080148_JID_2540_neutraal
 ------------------------------
 Symbolic Z-matrix:
 Charge =  0 Multiplicity = 1

 SCF Done:  E(RB3LYP) =  -471.807278730     A.U. after   12 cycles
 SCF Done:  E(RB3LYP) =  -471.809089093     A.U. after   10 cycles
 SCF Done:  E(RB3LYP) =  -471.809208405     A.U. after   10 cycles
 SCF Done:  E(RB3LYP) =  -471.809217238     A.U. after    9 cycles
 SCF Done:  E(RB3LYP) =  -471.809219707     A.U. after    8 cycles
 SCF Done:  E(RB3LYP) =  -471.809220869     A.U. after    7 cycles
 SCF Done:  E(RB3LYP) =  -471.809221869     A.U. after    7 cycles
 SCF Done:  E(RB3LYP) =  -471.809223110     A.U. after    8 cycles
 SCF Done:  E(RB3LYP) =  -471.809224010     A.U. after    8 cycles
 SCF Done:  E(RB3LYP) =  -471.809224524     A.U. after    7 cycles
 SCF Done:  E(RB3LYP) =  -471.809224577     A.U. after    6 cycles
 Optimization completed.
    -- Stationary point found.
 Normal termination of Gaussian 16 at Wed Dec  9 17:33:18 2020.

 --------------------------------------------------------------------
 #N Geom=AllCheck Guess=TCheck SCRF=Check GenChk RB3LYP/6-31G(d) Freq
 --------------------------------------------------------------------

 Structure from the checkpoint file:  "JID_2540.chk"
 ------------------------------
 CID_91080148_JID_2540_neutraal
 ------------------------------
 Charge =  0 Multiplicity = 1

 SCF Done:  E(RB3LYP) =  -471.809224577     A.U. after    1 cycles

  Exact polarizability: 139.941  -0.322 119.452   0.095  -0.023 111.080
 Approx polarizability: 168.967   0.081 166.560  -0.654  -0.791 166.745

                      1                      2                      3
                      A                      A                      A
 Frequencies --     29.9978                41.3056                50.7960
 Red. masses --      3.3559                 2.1481                 2.3416
 Frc consts  --      0.0018                 0.0022                 0.0036
 IR Inten    --      0.0001                 0.0032                 0.0005

                      4                      5                      6
                      A                      A                      A
 Frequencies --     73.3760               126.7368               146.1397
 Red. masses --      2.9685                 1.9987                 2.8937
 Frc consts  --      0.0094                 0.0189                 0.0364
 IR Inten    --      0.0010                 0.0252                 0.0029

                      7                      8                      9
                      A                      A                      A
 Frequencies --    182.6501               218.7604               241.2764
 Red. masses --      2.0661                 1.6065                 1.0700
 Frc consts  --      0.0406                 0.0453                 0.0367
 IR Inten    --      0.0149                 0.0333                 0.0018

                     10                     11                     12
                      A                      A                      A
 Frequencies --    251.9576               270.8263               292.2306
 Red. masses --      1.1365                 1.9066                 2.3536
 Frc consts  --      0.0425                 0.0824                 0.1184
 IR Inten    --      0.0431                 0.1627                 0.0194

                     13                     14                     15
                      A                      A                      A
 Frequencies --    308.9094               340.2982               394.6239
 Red. masses --      1.6223                 2.2140                 2.0307
 Frc consts  --      0.0912                 0.1511                 0.1863
 IR Inten    --      0.0034                 0.0533                 0.0423

                     16                     17                     18
                      A                      A                      A
 Frequencies --    410.0161               442.8466               462.3436
 Red. masses --      2.5424                 1.9336                 1.8744
 Frc consts  --      0.2518                 0.2234                 0.2361
 IR Inten    --      0.2078                 0.1541                 0.2354

                     19                     20                     21
                      A                      A                      A
 Frequencies --    527.7759               586.3925               684.0328
 Red. masses --      2.5894                 3.4633                 2.5904
 Frc consts  --      0.4250                 0.7017                 0.7141
 IR Inten    --      0.8802                 0.6743                 1.7723

                     22                     23                     24
                      A                      A                      A
 Frequencies --    752.1276               784.6102               828.9245
 Red. masses --      1.4817                 1.4167                 2.6355
 Frc consts  --      0.4939                 0.5139                 1.0669
 IR Inten    --      3.0654                 1.3697                 0.4927

                     25                     26                     27
                      A                      A                      A
 Frequencies --    835.3791               849.3183               866.5442
 Red. masses --      2.0950                 1.9770                 1.5956
 Frc consts  --      0.8614                 0.8402                 0.7059
 IR Inten    --      0.9228                 0.2713                 0.5257

                     28                     29                     30
                      A                      A                      A
 Frequencies --    899.5075               910.3941               920.8522
 Red. masses --      1.8991                 1.7573                 1.8303
 Frc consts  --      0.9053                 0.8581                 0.9144
 IR Inten    --      1.3739                 1.8118                 1.5128

                     31                     32                     33
                      A                      A                      A
 Frequencies --    945.1985               949.3316               988.2228
 Red. masses --      1.4531                 1.8962                 1.5741
 Frc consts  --      0.7649                 1.0069                 0.9057
 IR Inten    --      0.2998                 2.1142                 0.2611

                     34                     35                     36
                      A                      A                      A
 Frequencies --    993.2028              1024.6524              1027.3097
 Red. masses --      1.6749                 1.9750                 1.4905
 Frc consts  --      0.9734                 1.2217                 0.9268
 IR Inten    --      1.0147                 0.1441                 1.8391

                     37                     38                     39
                      A                      A                      A
 Frequencies --   1038.5926              1067.8162              1085.0938
 Red. masses --      1.5637                 1.4350                 2.5986
 Frc consts  --      0.9938                 0.9640                 1.8027
 IR Inten    --      0.8364                 0.8407                 0.7194

                     40                     41                     42
                      A                      A                      A
 Frequencies --   1089.0468              1108.6276              1131.7362
 Red. masses --      1.6425                 1.7208                 1.6328
 Frc consts  --      1.1478                 1.2461                 1.2322
 IR Inten    --      0.5531                 0.0223                 0.6013

                     43                     44                     45
                      A                      A                      A
 Frequencies --   1167.7530              1178.5478              1195.4812
 Red. masses --      1.9181                 2.1094                 1.9327
 Frc consts  --      1.5410                 1.7263                 1.6275
 IR Inten    --      2.3012                 0.0949                 5.3856

                     46                     47                     48
                      A                      A                      A
 Frequencies --   1211.5394              1217.8393              1260.2248
 Red. masses --      1.5180                 1.4681                 1.5358
 Frc consts  --      1.3128                 1.2828                 1.4371
 IR Inten    --      1.5728                 0.2605                 0.0380

                     49                     50                     51
                      A                      A                      A
 Frequencies --   1271.5746              1290.7013              1297.0123
 Red. masses --      1.4267                 1.2447                 1.2482
 Frc consts  --      1.3591                 1.2217                 1.2371
 IR Inten    --      1.0176                 1.9004                 0.5649

                     52                     53                     54
                      A                      A                      A
 Frequencies --   1316.8020              1326.1492              1340.6572
 Red. masses --      1.3320                 1.3066                 1.2604
 Frc consts  --      1.3608                 1.3539                 1.3348
 IR Inten    --      0.4331                 1.3593                 2.6853

                     55                     56                     57
                      A                      A                      A
 Frequencies --   1348.6444              1353.7442              1370.6354
 Red. masses --      1.3251                 1.3233                 1.3372
 Frc consts  --      1.4200                 1.4288                 1.4801
 IR Inten    --      1.2556                 2.5056                 1.2116

                     58                     59                     60
                      A                      A                      A
 Frequencies --   1373.2472              1391.7261              1400.9981
 Red. masses --      1.2742                 1.3861                 1.4052
 Frc consts  --      1.4157                 1.5818                 1.6251
 IR Inten    --      3.0386                 6.0706                 5.5669

                     61                     62                     63
                      A                      A                      A
 Frequencies --   1405.1091              1418.4759              1427.6924
 Red. masses --      1.4824                 1.4568                 1.4845
 Frc consts  --      1.7244                 1.7270                 1.7828
 IR Inten    --      0.0985                 0.8898                 2.3746

                     64                     65                     66
                      A                      A                      A
 Frequencies --   1439.0164              1439.4818              1443.3250
 Red. masses --      1.2523                 1.2415                 1.2700
 Frc consts  --      1.5278                 1.5157                 1.5587
 IR Inten    --      2.4073                 2.0875                 6.5613

                     67                     68                     69
                      A                      A                      A
 Frequencies --   1511.2273              1515.4777              1519.6154
 Red. masses --      1.0756                 1.0818                 1.0825
 Frc consts  --      1.4473                 1.4639                 1.4728
 IR Inten    --      0.4874                 1.6180                 1.0193

                     70                     71                     72
                      A                      A                      A
 Frequencies --   1522.0741              1524.5260              1527.1578
 Red. masses --      1.0662                 1.0834                 1.0544
 Frc consts  --      1.4554                 1.4835                 1.4489
 IR Inten    --      1.0236                 5.0074                 1.1502

                     73                     74                     75
                      A                      A                      A
 Frequencies --   1528.2390              1530.1895              1534.6442
 Red. masses --      1.0633                 1.0469                 1.0518
 Frc consts  --      1.4631                 1.4443                 1.4595
 IR Inten    --      5.6582                 5.4933                 3.3926

                     76                     77                     78
                      A                      A                      A
 Frequencies --   1534.8701              1543.3357              1545.4697
 Red. masses --      1.0432                 1.0939                 1.0717
 Frc consts  --      1.4479                 1.5351                 1.5081
 IR Inten    --      2.6645                 6.2795                 3.4871

                     79                     80                     81
                      A                      A                      A
 Frequencies --   3014.0707              3016.2310              3023.3930
 Red. masses --      1.0625                 1.0672                 1.0797
 Frc consts  --      5.6868                 5.7202                 5.8147
 IR Inten    --     16.0401                21.4833                 5.3937

                     82                     83                     84
                      A                      A                      A
 Frequencies --   3029.2839              3033.7813              3037.2872
 Red. masses --      1.0728                 1.0539                 1.0556
 Frc consts  --      5.8001                 5.7148                 5.7374
 IR Inten    --     12.1036                 6.0317                48.9516

                     85                     86                     87
                      A                      A                      A
 Frequencies --   3039.0251              3043.4118              3043.9535
 Red. masses --      1.0502                 1.0538                 1.0414
 Frc consts  --      5.7145                 5.7511                 5.6853
 IR Inten    --     32.2672                41.3487                23.8722

                     88                     89                     90
                      A                      A                      A
 Frequencies --   3045.7231              3050.4266              3060.1221
 Red. masses --      1.0754                 1.0748                 1.0959
 Frc consts  --      5.8774                 5.8926                 6.0466
 IR Inten    --     19.1719                 9.2295                66.4575

                     91                     92                     93
                      A                      A                      A
 Frequencies --   3061.1656              3072.7852              3078.6943
 Red. masses --      1.0724                 1.0890                 1.0939
 Frc consts  --      5.9207                 6.0582                 6.1090
 IR Inten    --     39.1380                53.8524                55.0225

                     94                     95                     96
                      A                      A                      A
 Frequencies --   3083.2092              3096.4900              3100.6339
 Red. masses --      1.1038                 1.0968                 1.1012
 Frc consts  --      6.1822                 6.1962                 6.2376
 IR Inten    --      2.8880                17.1469                29.3654

                     97                     98                     99
                      A                      A                      A
 Frequencies --   3102.5512              3104.5599              3107.1746
 Red. masses --      1.1007                 1.1022                 1.1026
 Frc consts  --      6.2423                 6.2591                 6.2719
 IR Inten    --     49.5434                41.4121                88.6311

                    100                    101                    102
                      A                      A                      A
 Frequencies --   3108.1094              3115.7682              3118.5205
 Red. masses --      1.1012                 1.1016                 1.1006
 Frc consts  --      6.2679                 6.3008                 6.3063
 IR Inten    --     56.4333                81.1683                28.0112

 - Thermochemistry -
 -------------------
 Temperature   298.150 Kelvin.  Pressure   1.00000 Atm.
 Atom     1 has atomic number  6 and mass  12.00000

 Molecular mass:   168.18780 amu.
 Principal axes and moments of inertia in atomic units:
                           1         2         3
     Eigenvalues --  1244.098534007.398844443.77443
           X            1.00000   0.00078  -0.00075
           Y           -0.00078   0.99997  -0.00726
           Z            0.00074   0.00726   0.99997
 This molecule is an asymmetric top.
 Rotational symmetry number  1.
 Warning -- assumption of classical behavior for rotation
           may cause significant error
 Rotational temperatures (Kelvin)      0.06962     0.02161     0.01949
 Rotational constants (GHZ):           1.45064     0.45035     0.40613
 Zero-point vibrational energy     897135.6 (Joules/Mol)
                                  214.42055 (Kcal/Mol)
 Warning -- explicit consideration of  20 degrees of freedom as
           vibrations may cause significant error
 Vibrational temperatures:     43.16    59.43    73.08   105.57   182.35
          (Kelvin)            210.26   262.79   314.75   347.14   362.51
                              389.66   420.45   444.45   489.61   567.78
                              589.92   637.16   665.21   759.35   843.69
                              984.17  1082.14  1128.88  1192.64  1201.92
                             1221.98  1246.76  1294.19  1309.85  1324.90
                             1359.93  1365.88  1421.83  1429.00  1474.25
                             1478.07  1494.30  1536.35  1561.21  1566.90
                             1595.07  1628.32  1680.14  1695.67  1720.03
                             1743.14  1752.20  1813.18  1829.51  1857.03
                             1866.11  1894.58  1908.03  1928.91  1940.40
                             1947.74  1972.04  1975.80  2002.38  2015.72
                             2021.64  2040.87  2054.13  2070.42  2071.09
                             2076.62  2174.32  2180.43  2186.39  2189.93
                             2193.45  2197.24  2198.80  2201.60  2208.01
                             2208.34  2220.52  2223.59  4336.58  4339.68
                             4349.99  4358.46  4364.93  4369.98  4372.48
                             4378.79  4379.57  4382.12  4388.88  4402.83
                             4404.33  4421.05  4429.55  4436.05  4455.16
                             4461.12  4463.88  4466.77  4470.53  4471.88
                             4482.90  4486.86

 Zero-point correction=                           0.341701 (Hartree/Particle)
 Thermal correction to Energy=                    0.355917
 Thermal correction to Enthalpy=                  0.356861
 Thermal correction to Gibbs Free Energy=         0.299881
 Sum of electronic and zero-point Energies=           -471.467524
 Sum of electronic and thermal Energies=              -471.453308
 Sum of electronic and thermal Enthalpies=            -471.452364
 Sum of electronic and thermal Free Energies=         -471.509343

                     E (Thermal)             CV                S
                      KCal/Mol        Cal/Mol-Kelvin    Cal/Mol-Kelvin
 Total                  223.341             53.800            119.924
 Electronic               0.000              0.000              0.000
 Translational            0.889              2.981             41.268
 Rotational               0.889              2.981             31.472
 Vibrational            221.564             47.839             47.184
 Vibration     1          0.594              1.984              5.830
 Vibration     2          0.594              1.981              5.195
 Vibration     3          0.595              1.977              4.786
 Vibration     4          0.599              1.967              4.061
 Vibration     5          0.611              1.926              2.995
 Vibration     6          0.617              1.907              2.722
 Vibration     7          0.630              1.863              2.301
 Vibration     8          0.647              1.812              1.969
 Vibration     9          0.658              1.777              1.793
 Vibration    10          0.664              1.759              1.717
 Vibration    11          0.675              1.727              1.591
 Vibration    12          0.688              1.688              1.461
 Vibration    13          0.698              1.657              1.368
 Vibration    14          0.720              1.595              1.211
 Vibration    15          0.762              1.482              0.983
 Vibration    16          0.774              1.448              0.927
 Vibration    17          0.802              1.377              0.818
 Vibration    18          0.820              1.334              0.759
 Vibration    19          0.883              1.189              0.592
 Vibration    20          0.943              1.061              0.474

 Optimization completed.
    -- Stationary point found.
 Normal termination of Gaussian 16 at Wed Dec  9 17:43:23 2020.

 ----------------------------------------------------------------------
 # B3LYP/6-311++G(d,p) empiricaldispersion=gd3bj scf=xqc pop=npa geom=c
 heck
 ----------------------------------------------------------------------

 --------------------------------------
 CID_91080148_JID_2540_Energie_neutraal
 --------------------------------------
 Structure from the checkpoint file:  "JID_2540.chk"
 Charge =  0 Multiplicity = 1

 SCF Done:  E(RB3LYP) =  -471.938147478     A.U. after   13 cycles
 Normal termination of Gaussian 16 at Wed Dec  9 17:47:39 2020.

 ----------------------------------------------------------------------
 # B3LYP/6-311++G(d,p) empiricaldispersion=gd3bj scf=xqc pop=npa geom=c
 heck
 ----------------------------------------------------------------------

 ------------------------------------
 CID_91080148_JID_2540_Energie_kation
 ------------------------------------
 Structure from the checkpoint file:  "JID_2540.chk"
 Charge =  1 Multiplicity = 2

 SCF Done:  E(UB3LYP) =  -471.577765286     A.U. after   32 cycles
 Normal termination of Gaussian 16 at Wed Dec  9 18:00:32 2020.
 Gaussian 16:  ES64L-G16RevA.03 25-Dec-2016

 ----------------------------------------------------------------------
 # B3LYP/6-311++G(d,p) empiricaldispersion=gd3bj scf=xqc pop=npa geom=c
 heck
 ----------------------------------------------------------------------

 -----------------------------------
 CID_91080148_JID_2540_Energie_anion
 -----------------------------------
 Structure from the checkpoint file:  "JID_2540.chk"
 Charge = -1 Multiplicity = 2

                         Standard orientation:
 ---------------------------------------------------------------------
 Center     Atomic      Atomic             Coordinates (Angstroms)
 Number     Number       Type             X           Y           Z
 ---------------------------------------------------------------------
      1          6           0       -3.389747    1.825448   -0.044568
      2          6           0       -3.538557    0.408008   -0.605851
      3          6           0       -2.202995   -0.329101   -0.787205
      4          6           0       -1.361987   -0.514550    0.488640
      5          6           0       -2.140789   -1.249068    1.588013
      6          6           0       -0.047901   -1.261590    0.197625
      7          6           0        0.875424   -0.650876   -0.873410
      8          6           0        2.245578   -1.367014   -0.889969
      9          6           0        3.116618   -0.629534    0.163913
     10          6           0        2.370114    0.693358    0.504341
     11          6           0        1.286480    0.804679   -0.585419
     12          6           0        3.282670    1.914929    0.598054
     13          1           0       -2.990912    1.817680    0.975852
     14          1           0       -4.354457    2.344263   -0.017385
     15          1           0       -2.706085    2.422254   -0.661447
     16          1           0       -4.205875   -0.174489    0.041772
     17          1           0       -4.038080    0.459590   -1.582257
     18          1           0       -2.396813   -1.320645   -1.223083
     19          1           0       -1.608797    0.220008   -1.529019
     20          1           0       -1.102386    0.479987    0.876458
     21          1           0       -2.481033   -2.231372    1.235113
     22          1           0       -1.510287   -1.413122    2.469725
     23          1           0       -3.023063   -0.687730    1.912429
     24          1           0       -0.288854   -2.290262   -0.109785
     25          1           0        0.507735   -1.357007    1.140877
     26          1           0        0.386400   -0.734229   -1.850550
     27          1           0        2.154140   -2.440136   -0.688063
     28          1           0        2.697726   -1.267381   -1.883702
     29          1           0        4.114281   -0.417292   -0.237706
     30          1           0        3.266778   -1.235735    1.063454
     31          1           0        1.865864    0.570833    1.472256
     32          1           0        1.727662    1.238846   -1.494002
     33          1           0        0.455437    1.454497   -0.291687
     34          1           0        2.712688    2.823986    0.824874
     35          1           0        4.039305    1.790951    1.381960
     36          1           0        3.809178    2.078370   -0.351054
 ---------------------------------------------------------------------

 SCF Done:  E(UB3LYP) =  -471.921330948     A.U. after   27 cycles

 The electronic state is 2-A.
 Alpha  occ. eigenvalues --  -10.06850 -10.06810 -10.06689 -10.06412 -10.06189
 Alpha  occ. eigenvalues --  -10.06068 -10.06058 -10.05959 -10.05749 -10.05681
 Alpha  occ. eigenvalues --  -10.05656 -10.05614  -0.74581  -0.71260  -0.66639
 Alpha  occ. eigenvalues --   -0.64434  -0.61074  -0.58014  -0.57538  -0.54438
 Alpha  occ. eigenvalues --   -0.50393  -0.46061  -0.45190  -0.43342  -0.38644
 Alpha  occ. eigenvalues --   -0.37730  -0.36735  -0.35122  -0.32751  -0.32581
 Alpha  occ. eigenvalues --   -0.31824  -0.30763  -0.30407  -0.29573  -0.27907
 Alpha  occ. eigenvalues --   -0.27297  -0.27024  -0.25906  -0.25005  -0.23601
 Alpha  occ. eigenvalues --   -0.23437  -0.22909  -0.22317  -0.21711  -0.21343
 Alpha  occ. eigenvalues --   -0.20896  -0.20120  -0.19843   0.04519
 Alpha virt. eigenvalues --    0.06410   0.07013   0.07195   0.08450   0.08592
 Alpha virt. eigenvalues --    0.08690   0.09563   0.10119   0.10741   0.10868
 Alpha virt. eigenvalues --    0.11082   0.11340   0.11928   0.12510   0.13540

  Beta  occ. eigenvalues --  -10.06842 -10.06801 -10.06685 -10.06395 -10.06178
  Beta  occ. eigenvalues --  -10.06052 -10.06047 -10.05946 -10.05722 -10.05665
  Beta  occ. eigenvalues --  -10.05632 -10.05582  -0.74559  -0.71236  -0.66607
  Beta  occ. eigenvalues --   -0.64402  -0.61040  -0.57965  -0.57494  -0.54388
  Beta  occ. eigenvalues --   -0.50332  -0.46017  -0.45138  -0.43299  -0.38614
  Beta  occ. eigenvalues --   -0.37688  -0.36710  -0.35080  -0.32719  -0.32552
  Beta  occ. eigenvalues --   -0.31789  -0.30736  -0.30378  -0.29541  -0.27881
  Beta  occ. eigenvalues --   -0.27262  -0.26986  -0.25876  -0.24969  -0.23571
  Beta  occ. eigenvalues --   -0.23409  -0.22879  -0.22286  -0.21680  -0.21313
  Beta  occ. eigenvalues --   -0.20869  -0.20094  -0.19819
  Beta virt. eigenvalues --    0.06496   0.07167   0.07546   0.07768   0.08774
  Beta virt. eigenvalues --    0.09061   0.09152   0.09945   0.10509   0.11087
  Beta virt. eigenvalues --    0.11249   0.11504   0.11629   0.12196   0.12872

 Mulliken charges and spin densities:
               1          2
     1  C    0.627138  -1.224104
     2  C   -0.413059   0.066078
     3  C   -0.349589   0.102652
     4  C   -0.772786   1.265692
     5  C    0.917218  -1.647320
     6  C    1.156929  -1.987201
     7  C   -1.359028   2.234533
     8  C    0.202196  -0.719165
     9  C    0.095280  -0.619266
    10  C   -1.346896   1.698912
    11  C    0.737523  -1.462540
    12  C    1.276820  -2.058694
    13  H   -0.297653   0.456129
    14  H   -0.445513   0.591318
    15  H   -0.084757   0.220485
    16  H    0.020120   0.107590
    17  H   -0.293663   0.451950
    18  H    0.001447   0.144561
    19  H    0.174485  -0.053640
    20  H    0.363342  -0.239443
    21  H   -0.127234   0.276125
    22  H   -0.200640   0.322993
    23  H    0.081156   0.059860
    24  H    0.133808   0.021842
    25  H    0.116758   0.059394
    26  H   -0.191994   0.417161
    27  H   -0.188991   0.327170
    28  H    0.020678   0.130941
    29  H   -0.174443   0.330990
    30  H   -0.016953   0.152439
    31  H   -0.200522   0.396265
    32  H   -0.282237   0.441879
    33  H    0.319942  -0.171692
    34  H   -0.262185   0.399723
    35  H   -0.218522   0.359833
    36  H   -0.018171   0.146551
 Sum of Mulliken charges =  -1.00000   1.00000

 Dipole moment (field-independent basis, Debye):
    X=              0.7948    Y=             -2.6291    Z=             -0.9967  Tot=              2.9218
 Quadrupole moment (field-independent basis, Debye-Ang):
   XX=           -161.0083   YY=           -126.4691   ZZ=           -119.3132
   XY=              4.5027   XZ=             -1.3203   YZ=              0.7630

 Summary of Natural Population Analysis:

                                       Natural Population
                Natural  -----------------------------------------------
    Atom  No    Charge         Core      Valence    Rydberg      Total
 -----------------------------------------------------------------------
      C    1   -0.28749      0.99967     2.28265    0.00517     3.28749
      C    2   -0.18959      0.99964     2.18189    0.00806     3.18959
      C    3   -0.18755      0.99961     2.17957    0.00837     3.18755
      C    4   -0.11600      0.99960     2.10708    0.00933     3.11600
      C    5   -0.28470      0.99965     2.27863    0.00642     3.28470
      C    6   -0.18392      0.99960     2.17501    0.00932     3.18392
      C    7   -0.11021      0.99960     2.10090    0.00971     3.11021
      C    8   -0.18829      0.99963     2.18017    0.00849     3.18829
      C    9   -0.19093      0.99963     2.18345    0.00785     3.19093
      C   10   -0.11669      0.99961     2.10634    0.01074     3.11669
      C   11   -0.18950      0.99960     2.18093    0.00897     3.18950
      C   12   -0.27849      0.99965     2.27406    0.00478     3.27849
      H   13    0.09684      0.00000     0.40205    0.00112     0.40316
      H   14    0.09879      0.00000     0.40007    0.00115     0.40121
      H   15    0.09660      0.00000     0.40212    0.00128     0.40340
      H   16    0.09282      0.00000     0.40599    0.00119     0.40718
      H   17    0.09440      0.00000     0.40456    0.00104     0.40560
      H   18    0.09424      0.00000     0.40466    0.00110     0.40576
      H   19    0.09726      0.00000     0.40118    0.00156     0.40274
      H   20    0.09489      0.00000     0.40267    0.00244     0.40511
      H   21    0.09480      0.00000     0.40428    0.00092     0.40520
      H   22    0.09961      0.00000     0.39947    0.00091     0.40039
      H   23    0.09981      0.00000     0.39930    0.00090     0.40019
      H   24    0.09530      0.00000     0.40354    0.00116     0.40470
      H   25    0.09663      0.00000     0.40183    0.00154     0.40337
      H   26    0.09781      0.00000     0.40073    0.00146     0.40219
      H   27    0.09780      0.00000     0.40120    0.00100     0.40220
      H   28    0.09618      0.00000     0.40268    0.00115     0.40382
      H   29    0.09650      0.00000     0.40235    0.00115     0.40350
      H   30    0.09826      0.00000     0.40062    0.00113     0.40174
      H   31    0.09460      0.00000     0.40382    0.00158     0.40540
      H   32    0.09588      0.00000     0.40291    0.00121     0.40412
      H   33    0.10268      0.00000     0.39590    0.00142     0.39732
      H   34    0.09930      0.00000     0.39955    0.00115     0.40070
      H   35    0.09774      0.00000     0.40113    0.00113     0.40226
      H   36    0.09464      0.00000     0.40412    0.00124     0.40536
 =======================================================================
   * Total *   -0.00000     11.99548    35.87738    0.12714    48.00000

 Normal termination of Gaussian 16 at Wed Dec  9 18:12:32 2020.
