 Gaussian 16, Revision A.03,

 -----------------------------------------------------------
 # opt freq B3LYP/6-31G(d) empiricaldispersion=gd3bj scf=xqc
 -----------------------------------------------------------

 -------------------------------
 CID_113670261_JID_7139_neutraal
 -------------------------------
 Symbolic Z-matrix:
 Charge =  0 Multiplicity = 1

 SCF Done:  E(RB3LYP) =  -751.351283049     A.U. after   14 cycles
 SCF Done:  E(RB3LYP) =  -751.356285823     A.U. after   12 cycles
 SCF Done:  E(RB3LYP) =  -751.356891239     A.U. after   11 cycles
 SCF Done:  E(RB3LYP) =  -751.357228620     A.U. after   11 cycles
 SCF Done:  E(RB3LYP) =  -751.357504564     A.U. after   11 cycles
 SCF Done:  E(RB3LYP) =  -751.357540803     A.U. after   11 cycles
 SCF Done:  E(RB3LYP) =  -751.357793166     A.U. after   10 cycles
 SCF Done:  E(RB3LYP) =  -751.359007673     A.U. after   13 cycles
 SCF Done:  E(RB3LYP) =  -751.359229935     A.U. after   12 cycles
 SCF Done:  E(RB3LYP) =  -751.358777532     A.U. after   12 cycles
 SCF Done:  E(RB3LYP) =  -751.360163229     A.U. after   10 cycles
 SCF Done:  E(RB3LYP) =  -751.360163798     A.U. after    8 cycles
 SCF Done:  E(RB3LYP) =  -751.360163959     A.U. after    8 cycles
 SCF Done:  E(RB3LYP) =  -751.360164009     A.U. after    7 cycles
 SCF Done:  E(RB3LYP) =  -751.360164017     A.U. after    6 cycles
 Optimization completed.
    -- Stationary point found.
 Normal termination of Gaussian 16 at Mon Dec 14 19:06:15 2020.

 --------------------------------------------------------------------
 #N Geom=AllCheck Guess=TCheck SCRF=Check GenChk RB3LYP/6-31G(d) Freq
 --------------------------------------------------------------------

 Structure from the checkpoint file:  "JID_7139.chk"
 -------------------------------
 CID_113670261_JID_7139_neutraal
 -------------------------------
 Charge =  0 Multiplicity = 1

 SCF Done:  E(RB3LYP) =  -751.360164017     A.U. after    1 cycles

  Exact polarizability: 205.788 -12.056 168.010   3.449   4.040 115.449
 Approx polarizability: 273.518 -14.468 259.318   8.118  14.515 167.571

                      1                      2                      3
                      A                      A                      A
 Frequencies --     19.7270                36.9224                40.3133
 Red. masses --      3.6362                 2.7400                 3.2201
 Frc consts  --      0.0008                 0.0022                 0.0031
 IR Inten    --      0.6887                 0.2145                 0.6062

                      4                      5                      6
                      A                      A                      A
 Frequencies --     62.0164                74.4577                84.9558
 Red. masses --      2.7567                 2.4008                 3.0853
 Frc consts  --      0.0062                 0.0078                 0.0131
 IR Inten    --      1.0578                 1.8811                 0.0864

                      7                      8                      9
                      A                      A                      A
 Frequencies --     91.0398               127.2505               148.1965
 Red. masses --      3.7155                 3.4649                 2.8894
 Frc consts  --      0.0181                 0.0331                 0.0374
 IR Inten    --      0.5679                 0.5303                 1.0567

                     10                     11                     12
                      A                      A                      A
 Frequencies --    171.7854               182.8341               204.9008
 Red. masses --      1.1511                 2.2012                 1.8548
 Frc consts  --      0.0200                 0.0434                 0.0459
 IR Inten    --      0.5423                 0.9028                 0.0167

                     13                     14                     15
                      A                      A                      A
 Frequencies --    239.7872               251.7899               278.1610
 Red. masses --      1.8259                 1.5434                 2.7446
 Frc consts  --      0.0619                 0.0577                 0.1251
 IR Inten    --      0.3649                 0.9182                 3.5435

                     16                     17                     18
                      A                      A                      A
 Frequencies --    298.3696               314.5734               329.4768
 Red. masses --      3.2475                 1.9674                 2.7582
 Frc consts  --      0.1703                 0.1147                 0.1764
 IR Inten    --      1.0395                17.0110                 0.3350

                     19                     20                     21
                      A                      A                      A
 Frequencies --    342.3028               355.3404               388.0304
 Red. masses --      1.9049                 2.6232                 3.3324
 Frc consts  --      0.1315                 0.1952                 0.2956
 IR Inten    --     37.7712                16.6548                 0.3425

                     22                     23                     24
                      A                      A                      A
 Frequencies --    405.8939               436.7925               480.6475
 Red. masses --      3.5424                 3.2250                 3.7516
 Frc consts  --      0.3439                 0.3625                 0.5106
 IR Inten    --      0.8997                 3.1053                 7.4350

                     25                     26                     27
                      A                      A                      A
 Frequencies --    486.7295               531.3508               566.1508
 Red. masses --      3.4698                 2.8503                 3.5245
 Frc consts  --      0.4843                 0.4741                 0.6656
 IR Inten    --      0.6717                13.2347                 1.3600

                     28                     29                     30
                      A                      A                      A
 Frequencies --    589.7514               635.9984               675.8659
 Red. masses --      3.4677                 4.3091                 4.0805
 Frc consts  --      0.7106                 1.0269                 1.0982
 IR Inten    --      3.7128                 6.6348                 3.6733

                     31                     32                     33
                      A                      A                      A
 Frequencies --    697.0696               740.8403               773.4229
 Red. masses --      1.7307                 4.1232                 3.3752
 Frc consts  --      0.4955                 1.3333                 1.1896
 IR Inten    --      1.5985                 1.6941                12.3388

                     34                     35                     36
                      A                      A                      A
 Frequencies --    799.4259               823.1081               828.0672
 Red. masses --      1.9420                 1.4608                 1.3801
 Frc consts  --      0.7312                 0.5831                 0.5575
 IR Inten    --     11.4174                19.8814                27.0685

                     37                     38                     39
                      A                      A                      A
 Frequencies --    831.8154               834.0717               891.9078
 Red. masses --      1.1020                 1.6729                 2.3612
 Frc consts  --      0.4492                 0.6857                 1.1067
 IR Inten    --      0.9947                68.5085                15.0727

                     40                     41                     42
                      A                      A                      A
 Frequencies --    919.7180               922.3290               924.0068
 Red. masses --      2.0152                 1.4569                 1.3905
 Frc consts  --      1.0043                 0.7302                 0.6995
 IR Inten    --     16.3076                21.2363                21.8752

                     43                     44                     45
                      A                      A                      A
 Frequencies --    937.1153               949.3165               979.3733
 Red. masses --      1.3850                 1.9702                 2.3163
 Frc consts  --      0.7166                 1.0461                 1.3090
 IR Inten    --      5.7485                43.8110                57.2683

                     46                     47                     48
                      A                      A                      A
 Frequencies --    993.5989              1026.9742              1071.1328
 Red. masses --      2.4380                 1.4466                 4.0919
 Frc consts  --      1.4181                 0.8989                 2.7660
 IR Inten    --     31.5528                 1.5849                55.3601

                     49                     50                     51
                      A                      A                      A
 Frequencies --   1074.6210              1086.9238              1104.0639
 Red. masses --      3.5596                 1.4888                 1.9809
 Frc consts  --      2.4219                 1.0363                 1.4226
 IR Inten    --     66.4000                 6.3260                 1.9195

                     52                     53                     54
                      A                      A                      A
 Frequencies --   1129.7465              1149.9271              1169.9061
 Red. masses --      2.0295                 2.1951                 1.9356
 Frc consts  --      1.5262                 1.7102                 1.5609
 IR Inten    --     31.0990                35.8119               103.5580

                     55                     56                     57
                      A                      A                      A
 Frequencies --   1189.3622              1195.7463              1203.9106
 Red. masses --      1.8571                 1.4977                 1.5698
 Frc consts  --      1.5478                 1.2617                 1.3405
 IR Inten    --      7.1303                 7.3114                22.1251

                     58                     59                     60
                      A                      A                      A
 Frequencies --   1209.8160              1253.0009              1277.9000
 Red. masses --      1.4444                 2.6040                 1.8651
 Frc consts  --      1.2456                 2.4088                 1.7945
 IR Inten    --      6.0873               131.1126                 4.5516

                     61                     62                     63
                      A                      A                      A
 Frequencies --   1300.4444              1304.1959              1314.8704
 Red. masses --      1.6468                 1.8759                 1.3405
 Frc consts  --      1.6409                 1.8800                 1.3655
 IR Inten    --      7.5903               185.2281                47.0005

                     64                     65                     66
                      A                      A                      A
 Frequencies --   1331.0071              1350.9506              1375.5504
 Red. masses --      1.8349                 1.8980                 2.5632
 Frc consts  --      1.9153                 2.0409                 2.8575
 IR Inten    --     85.6815                23.2626                51.9973

                     67                     68                     69
                      A                      A                      A
 Frequencies --   1412.7435              1417.9611              1420.9185
 Red. masses --      1.3262                 1.2743                 1.2811
 Frc consts  --      1.5595                 1.5095                 1.5239
 IR Inten    --     26.6662                 8.3267                 0.2429

                     70                     71                     72
                      A                      A                      A
 Frequencies --   1437.4166              1443.1990              1445.2203
 Red. masses --      1.2240                 1.3209                 1.4067
 Frc consts  --      1.4900                 1.6210                 1.7311
 IR Inten    --      8.2207                35.5911                32.0717

                     73                     74                     75
                      A                      A                      A
 Frequencies --   1464.3095              1479.2021              1509.2260
 Red. masses --      1.2100                 2.7769                 1.0461
 Frc consts  --      1.5286                 3.5799                 1.4039
 IR Inten    --      3.6459                 8.2707                 5.6280

                     76                     77                     78
                      A                      A                      A
 Frequencies --   1513.2421              1516.0368              1524.9189
 Red. masses --      1.0414                 1.0429                 1.0537
 Frc consts  --      1.4050                 1.4123                 1.4437
 IR Inten    --      5.5857                 5.1226                 7.8282

                     79                     80                     81
                      A                      A                      A
 Frequencies --   1532.2093              1532.6601              1547.4592
 Red. masses --      1.0502                 1.0525                 1.1564
 Frc consts  --      1.4527                 1.4566                 1.6315
 IR Inten    --      1.8000                 2.8187                19.2513

                     82                     83                     84
                      A                      A                      A
 Frequencies --   1554.3891              1557.5561              1635.2977
 Red. masses --      1.1013                 2.6543                 6.8663
 Frc consts  --      1.5677                 3.7939                10.8185
 IR Inten    --      0.0966               183.1984                 8.7801

                     85                     86                     87
                      A                      A                      A
 Frequencies --   1667.3328              1690.0289              1736.7275
 Red. masses --      5.5169                 1.1164                 5.0563
 Frc consts  --      9.0363                 1.8786                 8.9856
 IR Inten    --     26.0749                16.3918                11.0544

                     88                     89                     90
                      A                      A                      A
 Frequencies --   3008.8515              3020.2006              3038.2937
 Red. masses --      1.0825                 1.0675                 1.0406
 Frc consts  --      5.7742                 5.7372                 5.6597
 IR Inten    --     26.1828                44.5154                29.3532

                     91                     92                     93
                      A                      A                      A
 Frequencies --   3046.8450              3059.5070              3062.1765
 Red. masses --      1.0677                 1.0351                 1.0365
 Frc consts  --      5.8396                 5.7086                 5.7262
 IR Inten    --     44.1805                22.5016                16.7245

                     94                     95                     96
                      A                      A                      A
 Frequencies --   3091.0087              3092.2411              3112.3734
 Red. masses --      1.0963                 1.0959                 1.0981
 Frc consts  --      6.1714                 6.1739                 6.2674
 IR Inten    --     13.6711                18.6046                16.7830

                     97                     98                     99
                      A                      A                      A
 Frequencies --   3130.6277              3130.9984              3131.6195
 Red. masses --      1.1019                 1.1016                 1.1009
 Frc consts  --      6.3631                 6.3627                 6.3612
 IR Inten    --     27.7367                31.3408                30.2855

                    100                    101                    102
                      A                      A                      A
 Frequencies --   3138.0592              3147.3617              3165.3860
 Red. masses --      1.1040                 1.1034                 1.0593
 Frc consts  --      6.4053                 6.4399                 6.2535
 IR Inten    --     30.3375                36.1103                10.2946

                    103                    104                    105
                      A                      A                      A
 Frequencies --   3191.2562              3204.8521              3225.5974
 Red. masses --      1.0891                 1.0900                 1.0913
 Frc consts  --      6.5347                 6.5961                 6.6899
 IR Inten    --     10.7490                 2.8994                16.6863

                    106                    107                    108
                      A                      A                      A
 Frequencies --   3239.6131              3454.4169              3547.4541
 Red. masses --      1.1153                 1.0487                 1.0927
 Frc consts  --      6.8965                 7.3733                 8.1015
 IR Inten    --     16.2888                 4.2693                 1.7035

 - Thermochemistry -
 -------------------
 Temperature   298.150 Kelvin.  Pressure   1.00000 Atm.
 Atom     1 has atomic number  6 and mass  12.00000

 Molecular mass:   235.15723 amu.
 Principal axes and moments of inertia in atomic units:
                           1         2         3
     Eigenvalues --  2859.814996539.675378116.49101
           X            0.99998  -0.00595  -0.00300
           Y            0.00589   0.99983  -0.01751
           Z            0.00310   0.01749   0.99984
 This molecule is an asymmetric top.
 Rotational symmetry number  1.
 Warning -- assumption of classical behavior for rotation
           may cause significant error
 Rotational temperatures (Kelvin)      0.03029     0.01324     0.01067
 Rotational constants (GHZ):           0.63107     0.27597     0.22235
 Zero-point vibrational energy     867851.5 (Joules/Mol)
                                  207.42149 (Kcal/Mol)
 Warning -- explicit consideration of  28 degrees of freedom as
           vibrations may cause significant error
 Vibrational temperatures:     28.38    53.12    58.00    89.23   107.13
          (Kelvin)            122.23   130.99   183.09   213.22   247.16
                              263.06   294.81   345.00   362.27   400.21
                              429.29   452.60   474.04   492.50   511.26
                              558.29   583.99   628.45   691.54   700.30
                              764.50   814.56   848.52   915.06   972.42
                             1002.93  1065.90  1112.78  1150.20  1184.27
                             1191.40  1196.80  1200.04  1283.26  1323.27
                             1327.03  1329.44  1348.30  1365.85  1409.10
                             1429.57  1477.59  1541.12  1546.14  1563.84
                             1588.50  1625.45  1654.49  1683.23  1711.23
                             1720.41  1732.16  1740.66  1802.79  1838.61
                             1871.05  1876.45  1891.81  1915.02  1943.72
                             1979.11  2032.62  2040.13  2044.38  2068.12
                             2076.44  2079.35  2106.81  2128.24  2171.44
                             2177.22  2181.24  2194.02  2204.51  2205.16
                             2226.45  2236.42  2240.98  2352.83  2398.92
                             2431.57  2498.76  4329.07  4345.39  4371.43
                             4383.73  4401.95  4405.79  4447.27  4449.05
                             4478.01  4504.28  4504.81  4505.70  4514.97
                             4528.35  4554.28  4591.51  4611.07  4640.92
                             4661.08  4970.14  5104.00

 Zero-point correction=                           0.330547 (Hartree/Particle)
 Thermal correction to Energy=                    0.349221
 Thermal correction to Enthalpy=                  0.350166
 Thermal correction to Gibbs Free Energy=         0.282206
 Sum of electronic and zero-point Energies=           -751.029617
 Sum of electronic and thermal Energies=              -751.010943
 Sum of electronic and thermal Enthalpies=            -751.009998
 Sum of electronic and thermal Free Energies=         -751.077958

                     E (Thermal)             CV                S
                      KCal/Mol        Cal/Mol-Kelvin    Cal/Mol-Kelvin
 Total                  219.140             69.257            143.032
 Electronic               0.000              0.000              0.000
 Translational            0.889              2.981             42.267
 Rotational               0.889              2.981             33.384
 Vibrational            217.362             63.295             67.382
 Vibration     1          0.593              1.986              6.661
 Vibration     2          0.594              1.982              5.418
 Vibration     3          0.594              1.981              5.244
 Vibration     4          0.597              1.972              4.392
 Vibration     5          0.599              1.966              4.032
 Vibration     6          0.601              1.960              3.773
 Vibration     7          0.602              1.956              3.638
 Vibration     8          0.611              1.926              2.987
 Vibration     9          0.618              1.905              2.695
 Vibration    10          0.626              1.877              2.416
 Vibration    11          0.630              1.863              2.299
 Vibration    12          0.640              1.833              2.089
 Vibration    13          0.657              1.780              1.804
 Vibration    14          0.664              1.760              1.718
 Vibration    15          0.679              1.714              1.545
 Vibration    16          0.691              1.677              1.426
 Vibration    17          0.702              1.646              1.338
 Vibration    18          0.712              1.617              1.263
 Vibration    19          0.721              1.591              1.201
 Vibration    20          0.731              1.564              1.142
 Vibration    21          0.756              1.496              1.008
 Vibration    22          0.771              1.457              0.941
 Vibration    23          0.797              1.390              0.837
 Vibration    24          0.837              1.293              0.708
 Vibration    25          0.843              1.279              0.692
 Vibration    26          0.886              1.181              0.584
 Vibration    27          0.922              1.104              0.512
 Vibration    28          0.947              1.054              0.468

 Optimization completed.
    -- Stationary point found.
 Normal termination of Gaussian 16 at Mon Dec 14 19:20:23 2020.

 ----------------------------------------------------------------------
 # B3LYP/6-311++G(d,p) empiricaldispersion=gd3bj scf=xqc pop=npa geom=c
 heck
 ----------------------------------------------------------------------

 ---------------------------------------
 CID_113670261_JID_7139_Energie_neutraal
 ---------------------------------------
 Structure from the checkpoint file:  "JID_7139.chk"
 Charge =  0 Multiplicity = 1

 SCF Done:  E(RB3LYP) =  -751.575160619     A.U. after   15 cycles
 Normal termination of Gaussian 16 at Mon Dec 14 19:28:08 2020.

 ----------------------------------------------------------------------
 # B3LYP/6-311++G(d,p) empiricaldispersion=gd3bj scf=xqc pop=npa geom=c
 heck
 ----------------------------------------------------------------------

 -------------------------------------
 CID_113670261_JID_7139_Energie_kation
 -------------------------------------
 Structure from the checkpoint file:  "JID_7139.chk"
 Charge =  1 Multiplicity = 2

 SCF Done:  E(UB3LYP) =  -751.295215198     A.U. after   26 cycles
 Normal termination of Gaussian 16 at Mon Dec 14 19:46:20 2020.
 Gaussian 16:  ES64L-G16RevA.03 25-Dec-2016

 ----------------------------------------------------------------------
 # B3LYP/6-311++G(d,p) empiricaldispersion=gd3bj scf=xqc pop=npa geom=c
 heck
 ----------------------------------------------------------------------

 ------------------------------------
 CID_113670261_JID_7139_Energie_anion
 ------------------------------------
 Structure from the checkpoint file:  "JID_7139.chk"
 Charge = -1 Multiplicity = 2

                         Standard orientation:
 ---------------------------------------------------------------------
 Center     Atomic      Atomic             Coordinates (Angstroms)
 Number     Number       Type             X           Y           Z
 ---------------------------------------------------------------------
      1          6           0        3.649212   -2.415516    1.042179
      2          6           0        3.662549   -1.554650   -0.215103
      3          8           0        2.812548   -0.412526   -0.100211
      4          6           0        1.459724   -0.572885   -0.206134
      5          6           0        0.682870    0.572020    0.072734
      6          6           0       -0.703056    0.507368   -0.009213
      7          6           0       -1.358259   -0.678739   -0.361881
      8          6           0       -0.583134   -1.801170   -0.645640
      9          6           0        0.810574   -1.756214   -0.569060
     10          6           0       -2.874744   -0.722950   -0.500264
     11          6           0       -3.557249    0.061444    0.618207
     12          6           0       -4.274662    1.164524    0.390962
     13          6           0       -3.360774   -0.498883    2.003272
     14          7           0       -3.225134   -0.357787   -1.878727
     15          8           0        1.274070    1.741478    0.484226
     16          6           0        1.990252    2.456233   -0.534931
     17          6           0        2.598654    3.684675    0.113757
     18          1           0        3.938950   -1.815455    1.910195
     19          1           0        4.358704   -3.244297    0.938458
     20          1           0        2.656822   -2.833734    1.232767
     21          1           0        4.657789   -1.132452   -0.378245
     22          1           0        3.400643   -2.135569   -1.108848
     23          1           0       -1.268891    1.402020    0.232972
     24          1           0       -1.069356   -2.728644   -0.935175
     25          1           0        1.379833   -2.652236   -0.786082
     26          1           0       -3.178181   -1.773193   -0.374849
     27          1           0       -4.753076    1.708116    1.200927
     28          1           0       -4.411512    1.564141   -0.609560
     29          1           0       -3.703928   -1.541102    2.055446
     30          1           0       -2.298572   -0.504202    2.275267
     31          1           0       -3.906835    0.079261    2.754262
     32          1           0       -4.238682   -0.283747   -1.964099
     33          1           0       -2.845927    0.564407   -2.089841
     34          1           0        2.765032    1.812430   -0.964784
     35          1           0        1.290377    2.735857   -1.335950
     36          1           0        3.293723    3.390542    0.906460
     37          1           0        3.145384    4.275764   -0.629128
     38          1           0        1.818943    4.313432    0.555477
 ---------------------------------------------------------------------

 SCF Done:  E(UB3LYP) =  -751.561539700     A.U. after   33 cycles
 SCF Done:  E(UB3LYP) =  -751.561539700     a.u. after    1 cycles

 The electronic state is 2-A.
 Alpha  occ. eigenvalues --  -19.06066 -19.04536 -14.20296 -10.14258 -10.13471
 Alpha  occ. eigenvalues --  -10.13284 -10.13112 -10.11694 -10.09332 -10.08481
 Alpha  occ. eigenvalues --  -10.08232 -10.08072 -10.08001 -10.07863 -10.07689
 Alpha  occ. eigenvalues --  -10.07213 -10.06923  -0.98144  -0.95667  -0.80755
 Alpha  occ. eigenvalues --   -0.75965  -0.70760  -0.68886  -0.68037  -0.65374
 Alpha  occ. eigenvalues --   -0.63581  -0.59882  -0.58268  -0.54779  -0.54214
 Alpha  occ. eigenvalues --   -0.51379  -0.48783  -0.45058  -0.43974  -0.42288
 Alpha  occ. eigenvalues --   -0.41256  -0.39587  -0.38305  -0.37602  -0.36910
 Alpha  occ. eigenvalues --   -0.36343  -0.36082  -0.34878  -0.33870  -0.33803
 Alpha  occ. eigenvalues --   -0.32477  -0.31010  -0.30549  -0.29835  -0.29643
 Alpha  occ. eigenvalues --   -0.28616  -0.28308  -0.27986  -0.27063  -0.26773
 Alpha  occ. eigenvalues --   -0.26061  -0.25424  -0.23164  -0.22700  -0.18907
 Alpha  occ. eigenvalues --   -0.17105  -0.15854  -0.15392  -0.12704   0.04050
 Alpha virt. eigenvalues --    0.05472   0.06055   0.06953   0.07285   0.07656
 Alpha virt. eigenvalues --    0.07799   0.08224   0.08624   0.08721   0.09302
 Alpha virt. eigenvalues --    0.09693   0.09944   0.10415   0.10643   0.11345

  Beta  occ. eigenvalues --  -19.06065 -19.04530 -14.20271 -10.14247 -10.13443
  Beta  occ. eigenvalues --  -10.13285 -10.13106 -10.11685 -10.09328 -10.08474
  Beta  occ. eigenvalues --  -10.08221 -10.08064 -10.07990 -10.07851 -10.07672
  Beta  occ. eigenvalues --  -10.07178 -10.06897  -0.98135  -0.95659  -0.80717
  Beta  occ. eigenvalues --   -0.75943  -0.70731  -0.68862  -0.68007  -0.65343
  Beta  occ. eigenvalues --   -0.63556  -0.59843  -0.58222  -0.54729  -0.54187
  Beta  occ. eigenvalues --   -0.51344  -0.48748  -0.45026  -0.43936  -0.42262
  Beta  occ. eigenvalues --   -0.41231  -0.39555  -0.38283  -0.37577  -0.36876
  Beta  occ. eigenvalues --   -0.36301  -0.36056  -0.34852  -0.33839  -0.33771
  Beta  occ. eigenvalues --   -0.32451  -0.30990  -0.30522  -0.29811  -0.29604
  Beta  occ. eigenvalues --   -0.28595  -0.28271  -0.27961  -0.27039  -0.26739
  Beta  occ. eigenvalues --   -0.26036  -0.25399  -0.23140  -0.22668  -0.18896
  Beta  occ. eigenvalues --   -0.17069  -0.15828  -0.15364  -0.12674
  Beta virt. eigenvalues --    0.05893   0.06288   0.06757   0.07329   0.07625
  Beta virt. eigenvalues --    0.07815   0.08081   0.08525   0.08856   0.08899
  Beta virt. eigenvalues --    0.09501   0.10029   0.10232   0.10652   0.10880

 Mulliken charges and spin densities:
               1          2
     1  C    0.845689  -1.278873
     2  C    0.039201  -0.196017
     3  O   -0.109305   0.011534
     4  C   -0.517408   0.377436
     5  C   -1.311334   1.217000
     6  C   -0.631822   0.450022
     7  C    1.544733  -0.549895
     8  C    0.301921  -0.570780
     9  C    1.063379  -1.530516
    10  C    0.180588  -1.139075
    11  C   -1.271767   2.233391
    12  C    1.068641  -1.851897
    13  C   -0.037960  -0.777028
    14  N   -0.324259   0.017150
    15  O   -0.093721   0.003377
    16  C   -0.368768   0.197801
    17  C    0.094440  -0.586957
    18  H    0.050990   0.101451
    19  H   -0.440948   0.584521
    20  H   -0.148293   0.285451
    21  H   -0.644832   0.828422
    22  H   -0.108000   0.245758
    23  H    0.176312   0.084383
    24  H   -0.282470   0.455180
    25  H   -0.030817   0.221179
    26  H    0.033429   0.185698
    27  H   -0.155610   0.278740
    28  H   -0.188038   0.319901
    29  H   -0.159803   0.310608
    30  H    0.110212   0.058278
    31  H    0.040871   0.092943
    32  H   -0.085683   0.315111
    33  H    0.140289   0.096261
    34  H    0.117805   0.066129
    35  H    0.025063   0.100229
    36  H    0.064584   0.090862
    37  H   -0.035588   0.160580
    38  H    0.048281   0.091642
 Sum of Mulliken charges =  -1.00000   1.00000

 Dipole moment (field-independent basis, Debye):
    X=             -1.3202    Y=              3.6955    Z=              0.4391  Tot=              3.9487
 Quadrupole moment (field-independent basis, Debye-Ang):
   XX=           -206.5004   YY=           -156.7745   ZZ=           -138.4515
   XY=             13.7755   XZ=             -4.7864   YZ=             -1.8349

 Summary of Natural Population Analysis:

                                       Natural Population
                Natural  -----------------------------------------------
    Atom  No    Charge         Core      Valence    Rydberg      Total
 -----------------------------------------------------------------------
      C    1   -0.30066      0.99966     2.29593    0.00507     3.30066
      C    2   -0.01114      0.99958     1.99915    0.01241     3.01114
      O    3   -0.27792      0.99986     3.26755    0.01051     4.27792
      C    4    0.14536      0.99934     1.84261    0.01269     2.85464
      C    5    0.13646      0.99934     1.85097    0.01322     2.86354
      C    6   -0.11455      0.99947     2.10706    0.00803     3.11455
      C    7   -0.02427      0.99949     2.01330    0.01148     3.02427
      C    8   -0.08879      0.99951     2.07957    0.00970     3.08879
      C    9   -0.13647      0.99953     2.12878    0.00816     3.13647
      C   10   -0.03197      0.99950     2.01754    0.01493     3.03197
      C   11   -0.00123      0.99952     1.98993    0.01178     3.00123
      C   12   -0.20715      0.99947     2.19850    0.00918     3.20715
      C   13   -0.30260      0.99961     2.29699    0.00599     3.30260
      N   14   -0.41259      0.99978     2.90285    0.00996     3.91259
      O   15   -0.29132      0.99986     3.28119    0.01027     4.29132
      C   16   -0.00909      0.99958     1.99966    0.00985     3.00909
      C   17   -0.29268      0.99966     2.28838    0.00463     3.29268
      H   18    0.10138      0.00000     0.39757    0.00106     0.39862
      H   19    0.10485      0.00000     0.39323    0.00192     0.39515
      H   20    0.10181      0.00000     0.39685    0.00134     0.39819
      H   21    0.09361      0.00000     0.40471    0.00168     0.40639
      H   22    0.08338      0.00000     0.41478    0.00185     0.41662
      H   23    0.11025      0.00000     0.38805    0.00170     0.38975
      H   24    0.10266      0.00000     0.39616    0.00117     0.39734
      H   25    0.10609      0.00000     0.39223    0.00168     0.39391
      H   26    0.09882      0.00000     0.39905    0.00213     0.40118
      H   27    0.09427      0.00000     0.40475    0.00098     0.40573
      H   28    0.09437      0.00000     0.40392    0.00171     0.40563
      H   29    0.10368      0.00000     0.39514    0.00118     0.39632
      H   30    0.10936      0.00000     0.38952    0.00112     0.39064
      H   31    0.10119      0.00000     0.39792    0.00088     0.39881
      H   32    0.17554      0.00000     0.32259    0.00187     0.32446
      H   33    0.17327      0.00000     0.32486    0.00187     0.32673
      H   34    0.08999      0.00000     0.40791    0.00210     0.41001
      H   35    0.07759      0.00000     0.42081    0.00160     0.42241
      H   36    0.10171      0.00000     0.39698    0.00132     0.39829
      H   37    0.09820      0.00000     0.40078    0.00102     0.40180
      H   38    0.09862      0.00000     0.40007    0.00131     0.40138
 =======================================================================
   * Total *   -0.00000     16.99275    46.80785    0.19940    64.00000

 Normal termination of Gaussian 16 at Mon Dec 14 20:09:59 2020.
