 Gaussian 16, Revision A.03,

 -----------------------------------------------------------
 # opt freq B3LYP/6-31G(d) empiricaldispersion=gd3bj scf=xqc
 -----------------------------------------------------------

 -------------------------------
 CID_131058735_JID_4030_neutraal
 -------------------------------
 Symbolic Z-matrix:
 Charge =  0 Multiplicity = 1

 SCF Done:  E(RB3LYP) =  -594.927375343     A.U. after   14 cycles
 SCF Done:  E(RB3LYP) =  -594.931337417     A.U. after   12 cycles
 SCF Done:  E(RB3LYP) =  -594.931616807     A.U. after   11 cycles
 SCF Done:  E(RB3LYP) =  -594.931724317     A.U. after   11 cycles
 SCF Done:  E(RB3LYP) =  -594.931839218     A.U. after   10 cycles
 SCF Done:  E(RB3LYP) =  -594.931895593     A.U. after   11 cycles
 SCF Done:  E(RB3LYP) =  -594.931920345     A.U. after   10 cycles
 SCF Done:  E(RB3LYP) =  -594.931927855     A.U. after    9 cycles
 SCF Done:  E(RB3LYP) =  -594.931934040     A.U. after   10 cycles
 SCF Done:  E(RB3LYP) =  -594.931938184     A.U. after    9 cycles
 SCF Done:  E(RB3LYP) =  -594.932010825     A.U. after    9 cycles
 SCF Done:  E(RB3LYP) =  -594.932009252     A.U. after    9 cycles
 SCF Done:  E(RB3LYP) =  -594.932011027     A.U. after    9 cycles
 SCF Done:  E(RB3LYP) =  -594.932010971     A.U. after    7 cycles
 SCF Done:  E(RB3LYP) =  -594.932011064     A.U. after    6 cycles
 Optimization completed.
    -- Stationary point found.
 Normal termination of Gaussian 16 at Thu Dec 10 09:24:43 2020.

 --------------------------------------------------------------------
 #N Geom=AllCheck Guess=TCheck SCRF=Check GenChk RB3LYP/6-31G(d) Freq
 --------------------------------------------------------------------

 Structure from the checkpoint file:  "JID_4030.chk"
 -------------------------------
 CID_131058735_JID_4030_neutraal
 -------------------------------
 Charge =  0 Multiplicity = 1

 SCF Done:  E(RB3LYP) =  -594.932011064     A.U. after    1 cycles

  Exact polarizability: 184.791  -8.077 132.856   8.913  -3.390  92.814
 Approx polarizability: 241.549 -11.194 217.831  19.185 -10.452 138.391

                      1                      2                      3
                      A                      A                      A
 Frequencies --     24.8019                34.0202                43.2408
 Red. masses --      2.8620                 3.0062                 1.2086
 Frc consts  --      0.0010                 0.0020                 0.0013
 IR Inten    --      0.1538                 0.2988                 0.5581

                      4                      5                      6
                      A                      A                      A
 Frequencies --     50.0839                67.6196               118.6917
 Red. masses --      3.1699                 2.9034                 3.5248
 Frc consts  --      0.0047                 0.0078                 0.0293
 IR Inten    --      1.1907                 0.1714                 2.4536

                      7                      8                      9
                      A                      A                      A
 Frequencies --    190.1468               205.5024               230.0739
 Red. masses --      3.0400                 1.3895                 1.6045
 Frc consts  --      0.0648                 0.0346                 0.0500
 IR Inten    --      1.3779                 0.2264                 1.4939

                     10                     11                     12
                      A                      A                      A
 Frequencies --    234.9814               244.6646               281.4022
 Red. masses --      1.2722                 2.2454                 1.5773
 Frc consts  --      0.0414                 0.0792                 0.0736
 IR Inten    --      1.0788                14.4998                11.1365

                     13                     14                     15
                      A                      A                      A
 Frequencies --    313.5982               337.9533               360.1568
 Red. masses --      1.3070                 1.9211                 3.4432
 Frc consts  --      0.0757                 0.1293                 0.2631
 IR Inten    --     75.6818                14.5805                 8.7155

                     16                     17                     18
                      A                      A                      A
 Frequencies --    376.0939               380.9316               413.0047
 Red. masses --      2.1865                 2.1161                 2.3877
 Frc consts  --      0.1822                 0.1809                 0.2400
 IR Inten    --      5.2267                 1.5255                 0.5441

                     19                     20                     21
                      A                      A                      A
 Frequencies --    434.6598               441.9852               497.4121
 Red. masses --      4.3165                 2.6630                 2.1016
 Frc consts  --      0.4805                 0.3065                 0.3064
 IR Inten    --      0.0137                 0.1066                 0.3979

                     22                     23                     24
                      A                      A                      A
 Frequencies --    511.7096               529.8836               598.1447
 Red. masses --      3.9077                 3.4094                 3.6835
 Frc consts  --      0.6029                 0.5640                 0.7765
 IR Inten    --      0.8058                 4.0685                 3.7981

                     25                     26                     27
                      A                      A                      A
 Frequencies --    661.9108               761.0277               767.0870
 Red. masses --      8.7816                 3.8257                 3.5195
 Frc consts  --      2.2669                 1.3054                 1.2202
 IR Inten    --      7.2464                 0.6571                 4.0345

                     28                     29                     30
                      A                      A                      A
 Frequencies --    813.0479               867.7351               879.4307
 Red. masses --      2.2158                 5.3118                 2.8211
 Frc consts  --      0.8630                 2.3565                 1.2855
 IR Inten    --      0.0522                 2.2028                 3.6496

                     31                     32                     33
                      A                      A                      A
 Frequencies --    904.4047               931.2047               939.4105
 Red. masses --      1.6773                 1.4788                 1.2122
 Frc consts  --      0.8083                 0.7555                 0.6303
 IR Inten    --     10.5765                 3.7815                 0.4554

                     34                     35                     36
                      A                      A                      A
 Frequencies --    945.2749               953.3323               977.2950
 Red. masses --      1.3398                 1.8300                 1.4752
 Frc consts  --      0.7054                 0.9799                 0.8301
 IR Inten    --      0.0694                 5.5757                 0.1922

                     37                     38                     39
                      A                      A                      A
 Frequencies --   1005.3499              1017.9411              1050.5067
 Red. masses --      1.2558                 1.5764                 3.3999
 Frc consts  --      0.7478                 0.9624                 2.2106
 IR Inten    --      9.5382                 9.4289                 1.4240

                     40                     41                     42
                      A                      A                      A
 Frequencies --   1077.5512              1079.8718              1106.7905
 Red. masses --      1.5752                 2.4798                 2.8216
 Frc consts  --      1.0776                 1.7037                 2.0365
 IR Inten    --      5.5400                 9.8401                20.6612

                     43                     44                     45
                      A                      A                      A
 Frequencies --   1168.0575              1178.4748              1198.2285
 Red. masses --      2.1992                 2.0968                 1.9298
 Frc consts  --      1.7679                 1.7157                 1.6325
 IR Inten    --      0.8389                 1.8212                 7.9554

                     46                     47                     48
                      A                      A                      A
 Frequencies --   1210.7456              1251.6308              1289.3554
 Red. masses --      1.8377                 4.9605                 1.5085
 Frc consts  --      1.5872                 4.5786                 1.4775
 IR Inten    --      0.3554                15.7670                34.2549

                     49                     50                     51
                      A                      A                      A
 Frequencies --   1316.1718              1324.8858              1330.4841
 Red. masses --      1.7103                 1.2800                 1.9312
 Frc consts  --      1.7456                 1.3238                 2.0142
 IR Inten    --     13.0190                 9.2637                35.1086

                     52                     53                     54
                      A                      A                      A
 Frequencies --   1353.0708              1362.9421              1380.9615
 Red. masses --      2.5523                 1.3189                 1.3106
 Frc consts  --      2.7531                 1.4435                 1.4726
 IR Inten    --     63.8800                 3.9108                 3.3000

                     55                     56                     57
                      A                      A                      A
 Frequencies --   1398.1670              1415.2738              1430.7952
 Red. masses --      1.4192                 1.3858                 1.5190
 Frc consts  --      1.6346                 1.6354                 1.8322
 IR Inten    --     15.5271                30.3015                18.0000

                     58                     59                     60
                      A                      A                      A
 Frequencies --   1433.9238              1435.7388              1441.7044
 Red. masses --      1.3016                 1.3345                 1.5227
 Frc consts  --      1.5768                 1.6208                 1.8648
 IR Inten    --      6.7896                 1.7352                 6.1506

                     61                     62                     63
                      A                      A                      A
 Frequencies --   1452.4263              1493.4687              1507.0000
 Red. masses --      1.2159                 2.1998                 1.1878
 Frc consts  --      1.5112                 2.8909                 1.5893
 IR Inten    --      5.0740                66.1142                68.9009

                     64                     65                     66
                      A                      A                      A
 Frequencies --   1510.3660              1516.1622              1520.4114
 Red. masses --      1.0493                 1.0774                 1.0764
 Frc consts  --      1.4103                 1.4591                 1.4661
 IR Inten    --      7.5407                 1.6889                 0.4072

                     67                     68                     69
                      A                      A                      A
 Frequencies --   1523.1753              1532.0072              1536.6378
 Red. masses --      1.0619                 1.0650                 1.0587
 Frc consts  --      1.4515                 1.4727                 1.4728
 IR Inten    --      3.5308                 2.8344                 4.5830

                     70                     71                     72
                      A                      A                      A
 Frequencies --   1540.6427              1546.5322              1553.6481
 Red. masses --      1.0696                 1.9548                 1.0905
 Frc consts  --      1.4958                 2.7547                 1.5509
 IR Inten    --     12.8749               246.9369                 5.3398

                     73                     74                     75
                      A                      A                      A
 Frequencies --   1605.7790              1650.0470              2993.5834
 Red. masses --      3.8631                 5.4832                 1.0818
 Frc consts  --      5.8690                 8.7958                 5.7121
 IR Inten    --     31.2032                50.5741                16.4769

                     76                     77                     78
                      A                      A                      A
 Frequencies --   3024.6863              3039.6450              3042.1090
 Red. masses --      1.0809                 1.0459                 1.0413
 Frc consts  --      5.8264                 5.6934                 5.6776
 IR Inten    --      8.2858                10.2420                43.8046

                     79                     80                     81
                      A                      A                      A
 Frequencies --   3045.8136              3049.1938              3057.1364
 Red. masses --      1.0482                 1.0480                 1.0382
 Frc consts  --      5.7295                 5.7408                 5.7169
 IR Inten    --     48.9013                25.9145                23.8102

                     82                     83                     84
                      A                      A                      A
 Frequencies --   3089.5130              3103.2107              3110.1123
 Red. masses --      1.1046                 1.1008                 1.1000
 Frc consts  --      6.2120                 6.2457                 6.2692
 IR Inten    --     32.4192                 1.2305                28.5961

                     85                     86                     87
                      A                      A                      A
 Frequencies --   3110.1601              3114.4065              3123.9820
 Red. masses --      1.1000                 1.0936                 1.0998
 Frc consts  --      6.2692                 6.2496                 6.3240
 IR Inten    --     58.7564                42.4333                40.9667

                     88                     89                     90
                      A                      A                      A
 Frequencies --   3129.7557              3131.1223              3140.5579
 Red. masses --      1.1009                 1.0899                 1.1000
 Frc consts  --      6.3538                 6.2953                 6.3923
 IR Inten    --     33.7626                42.2359                23.9799

                     91                     92                     93
                      A                      A                      A
 Frequencies --   3163.2486              3190.0694              3619.2674
 Red. masses --      1.1012                 1.0897                 1.0768
 Frc consts  --      6.4919                 6.5334                 8.3104
 IR Inten    --      9.8493                29.6129                19.9800

 - Thermochemistry -
 -------------------
 Temperature   298.150 Kelvin.  Pressure   1.00000 Atm.
 Atom     1 has atomic number  6 and mass  12.00000

 Molecular mass:   193.15790 amu.
 Principal axes and moments of inertia in atomic units:
                           1         2         3
     Eigenvalues --  1236.579165919.898596594.93926
           X            1.00000  -0.00114  -0.00133
           Y            0.00115   0.99995   0.00996
           Z            0.00131  -0.00996   0.99995
 This molecule is an asymmetric top.
 Rotational symmetry number  1.
 Warning -- assumption of classical behavior for rotation
           may cause significant error
 Rotational temperatures (Kelvin)      0.07004     0.01463     0.01313
 Rotational constants (GHZ):           1.45946     0.30486     0.27366
 Zero-point vibrational energy     767682.1 (Joules/Mol)
                                  183.48042 (Kcal/Mol)
 Warning -- explicit consideration of  24 degrees of freedom as
           vibrations may cause significant error
 Vibrational temperatures:     35.68    48.95    62.21    72.06    97.29
          (Kelvin)            170.77   273.58   295.67   331.03   338.09
                              352.02   404.87   451.20   486.24   518.19
                              541.12   548.08   594.22   625.38   635.92
                              715.67   736.24   762.38   860.60   952.34
                             1094.95  1103.67  1169.79  1248.48  1265.30
                             1301.24  1339.80  1351.60  1360.04  1371.63
                             1406.11  1446.47  1464.59  1511.44  1550.36
                             1553.69  1592.42  1680.57  1695.56  1723.98
                             1741.99  1800.82  1855.09  1893.68  1906.22
                             1914.27  1946.77  1960.97  1986.90  2011.65
                             2036.26  2058.60  2063.10  2065.71  2074.29
                             2089.72  2148.77  2168.24  2173.08  2181.42
                             2187.53  2191.51  2204.22  2210.88  2216.64
                             2225.11  2235.35  2310.36  2374.05  4307.10
                             4351.85  4373.37  4376.92  4382.25  4387.11
                             4398.54  4445.12  4464.83  4474.76  4474.83
                             4480.94  4494.71  4503.02  4504.99  4518.56
                             4551.21  4589.80  5207.32

 Zero-point correction=                           0.292395 (Hartree/Particle)
 Thermal correction to Energy=                    0.307907
 Thermal correction to Enthalpy=                  0.308851
 Thermal correction to Gibbs Free Energy=         0.247985
 Sum of electronic and zero-point Energies=           -594.639616
 Sum of electronic and thermal Energies=              -594.624104
 Sum of electronic and thermal Enthalpies=            -594.623160
 Sum of electronic and thermal Free Energies=         -594.684026

                     E (Thermal)             CV                S
                      KCal/Mol        Cal/Mol-Kelvin    Cal/Mol-Kelvin
 Total                  193.215             57.387            128.104
 Electronic               0.000              0.000              0.000
 Translational            0.889              2.981             41.680
 Rotational               0.889              2.981             32.246
 Vibrational            191.437             51.425             54.178
 Vibration     1          0.593              1.985              6.207
 Vibration     2          0.594              1.983              5.580
 Vibration     3          0.595              1.980              5.105
 Vibration     4          0.595              1.978              4.814
 Vibration     5          0.598              1.970              4.221
 Vibration     6          0.609              1.934              3.122
 Vibration     7          0.633              1.853              2.226
 Vibration     8          0.640              1.832              2.083
 Vibration     9          0.652              1.795              1.878
 Vibration    10          0.655              1.787              1.841
 Vibration    11          0.660              1.772              1.769
 Vibration    12          0.681              1.708              1.525
 Vibration    13          0.701              1.648              1.343
 Vibration    14          0.718              1.600              1.222
 Vibration    15          0.735              1.554              1.121
 Vibration    16          0.747              1.521              1.055
 Vibration    17          0.751              1.511              1.035
 Vibration    18          0.777              1.442              0.916
 Vibration    19          0.795              1.395              0.844
 Vibration    20          0.802              1.379              0.820
 Vibration    21          0.853              1.256              0.665
 Vibration    22          0.867              1.224              0.629
 Vibration    23          0.885              1.184              0.587
 Vibration    24          0.956              1.036              0.453

 Optimization completed.
    -- Stationary point found.
 Normal termination of Gaussian 16 at Thu Dec 10 09:33:03 2020.

 ----------------------------------------------------------------------
 # B3LYP/6-311++G(d,p) empiricaldispersion=gd3bj scf=xqc pop=npa geom=c
 heck
 ----------------------------------------------------------------------

 ---------------------------------------
 CID_131058735_JID_4030_Energie_neutraal
 ---------------------------------------
 Structure from the checkpoint file:  "JID_4030.chk"
 Charge =  0 Multiplicity = 1

 SCF Done:  E(RB3LYP) =  -595.094841421     A.U. after   14 cycles
 Normal termination of Gaussian 16 at Thu Dec 10 09:36:52 2020.

 ----------------------------------------------------------------------
 # B3LYP/6-311++G(d,p) empiricaldispersion=gd3bj scf=xqc pop=npa geom=c
 heck
 ----------------------------------------------------------------------

 -------------------------------------
 CID_131058735_JID_4030_Energie_kation
 -------------------------------------
 Structure from the checkpoint file:  "JID_4030.chk"
 Charge =  1 Multiplicity = 2

 SCF Done:  E(UB3LYP) =  -594.811747030     A.U. after   19 cycles
 Normal termination of Gaussian 16 at Thu Dec 10 09:44:30 2020.
 Gaussian 16:  ES64L-G16RevA.03 25-Dec-2016

 ----------------------------------------------------------------------
 # B3LYP/6-311++G(d,p) empiricaldispersion=gd3bj scf=xqc pop=npa geom=c
 heck
 ----------------------------------------------------------------------

 ------------------------------------
 CID_131058735_JID_4030_Energie_anion
 ------------------------------------
 Structure from the checkpoint file:  "JID_4030.chk"
 Charge = -1 Multiplicity = 2

                         Standard orientation:
 ---------------------------------------------------------------------
 Center     Atomic      Atomic             Coordinates (Angstroms)
 Number     Number       Type             X           Y           Z
 ---------------------------------------------------------------------
      1          6           0        4.749963   -1.243192    0.517534
      2          6           0        3.458392   -0.532065    0.219379
      3          7           0        2.345651   -1.265028    0.102031
      4          6           0        1.201914   -0.624770   -0.159133
      5          6           0        1.134129    0.769433   -0.314310
      6          6           0        2.367845    1.433828   -0.170134
      7          7           0        3.507389    0.807622    0.090226
      8          7           0       -0.027890    1.467762   -0.568463
      9          6           0       -1.265441    0.813271   -0.967300
     10          6           0       -2.124195    0.351356    0.230236
     11          6           0       -2.571893    1.582119    1.027968
     12          6           0       -3.301561   -0.538233   -0.239404
     13          6           0       -2.816490   -1.874721   -0.824747
     14          6           0       -4.303639   -0.819262    0.889896
     15          1           0        4.580529   -2.320135    0.572510
     16          1           0        5.494769   -1.032321   -0.258129
     17          1           0        5.170969   -0.896235    1.468308
     18          1           0        0.313232   -1.244877   -0.243011
     19          1           0        2.414934    2.519713   -0.275466
     20          1           0        0.098397    2.423080   -0.868576
     21          1           0       -1.845697    1.532463   -1.557064
     22          1           0       -1.034956   -0.026392   -1.633992
     23          1           0       -1.486115   -0.260468    0.884716
     24          1           0       -3.313790    2.165074    0.465290
     25          1           0       -3.017205    1.309598    1.988321
     26          1           0       -1.712920    2.229296    1.230816
     27          1           0       -3.835894    0.010649   -1.031914
     28          1           0       -2.263688   -2.447162   -0.068734
     29          1           0       -3.666997   -2.487152   -1.144260
     30          1           0       -2.162619   -1.750174   -1.693206
     31          1           0       -4.789655    0.091814    1.249881
     32          1           0       -5.089276   -1.500499    0.544342
     33          1           0       -3.804223   -1.295346    1.743684
 ---------------------------------------------------------------------

 SCF Done:  E(UB3LYP) =  -595.086314700     A.U. after   33 cycles
 SCF Done:  E(UB3LYP) =  -595.086314700     a.u. after    1 cycles

 The electronic state is 2-A.
 Alpha  occ. eigenvalues --  -14.21986 -14.18691 -14.18599 -10.11362 -10.10557
 Alpha  occ. eigenvalues --  -10.09783 -10.08437 -10.08395 -10.07701 -10.07199
 Alpha  occ. eigenvalues --  -10.06278 -10.06190 -10.06094 -10.05219  -0.86433
 Alpha  occ. eigenvalues --   -0.82747  -0.76133  -0.72275  -0.67560  -0.64606
 Alpha  occ. eigenvalues --   -0.60828  -0.59110  -0.56869  -0.53824  -0.51734
 Alpha  occ. eigenvalues --   -0.49283  -0.45779  -0.43128  -0.40423  -0.37744
 Alpha  occ. eigenvalues --   -0.37245  -0.36483  -0.34038  -0.33645  -0.33303
 Alpha  occ. eigenvalues --   -0.31766  -0.30364  -0.29434  -0.29111  -0.28374
 Alpha  occ. eigenvalues --   -0.28093  -0.27812  -0.27209  -0.26612  -0.24915
 Alpha  occ. eigenvalues --   -0.23716  -0.22462  -0.21795  -0.20121  -0.19631
 Alpha  occ. eigenvalues --   -0.18806  -0.12739  -0.09996   0.04419
 Alpha virt. eigenvalues --    0.06185   0.06836   0.07881   0.07910   0.08611
 Alpha virt. eigenvalues --    0.09308   0.09838   0.10234   0.10660   0.11152
 Alpha virt. eigenvalues --    0.11354   0.11885   0.12146   0.12596   0.13351

  Beta  occ. eigenvalues --  -14.21976 -14.18548 -14.18437 -10.11398 -10.10604
  Beta  occ. eigenvalues --  -10.09755 -10.08273 -10.08232 -10.07689 -10.07198
  Beta  occ. eigenvalues --  -10.06264 -10.06189 -10.06072 -10.05191  -0.86214
  Beta  occ. eigenvalues --   -0.82699  -0.75776  -0.72248  -0.67449  -0.64570
  Beta  occ. eigenvalues --   -0.60779  -0.59054  -0.56771  -0.53479  -0.51652
  Beta  occ. eigenvalues --   -0.49211  -0.45729  -0.43050  -0.40330  -0.37631
  Beta  occ. eigenvalues --   -0.37187  -0.36405  -0.33981  -0.33612  -0.33082
  Beta  occ. eigenvalues --   -0.31730  -0.30290  -0.29388  -0.28984  -0.28250
  Beta  occ. eigenvalues --   -0.28011  -0.27737  -0.27169  -0.26503  -0.24878
  Beta  occ. eigenvalues --   -0.23629  -0.22414  -0.21765  -0.19888  -0.18660
  Beta  occ. eigenvalues --   -0.18548  -0.12562  -0.09571
  Beta virt. eigenvalues --    0.06756   0.07664   0.07946   0.08217   0.08313
  Beta virt. eigenvalues --    0.09120   0.09602   0.09919   0.10567   0.10987
  Beta virt. eigenvalues --    0.11421   0.11548   0.12018   0.12156   0.12721

 Mulliken charges and spin densities:
               1          2
     1  C   -0.436870  -0.131107
     2  C   -0.040254  -0.135312
     3  N   -0.025591   0.075051
     4  C    0.326598  -0.139326
     5  C    0.252047  -0.695035
     6  C   -0.684284   0.561394
     7  N   -0.100936   0.061954
     8  N   -0.255634   0.238219
     9  C    0.424394  -1.021841
    10  C   -0.691273   0.985767
    11  C    1.030144  -1.775293
    12  C   -0.366866   0.835834
    13  C    0.006361  -0.717934
    14  C    0.115658  -0.751620
    15  H    0.138358  -0.001527
    16  H    0.131829   0.007778
    17  H    0.144019  -0.002830
    18  H    0.397550  -0.104849
    19  H   -0.125688   0.255088
    20  H    0.055121   0.222830
    21  H   -0.724919   0.894218
    22  H    0.133935   0.039884
    23  H    0.115548   0.038114
    24  H   -0.258582   0.421098
    25  H    0.000957   0.130205
    26  H   -0.041339   0.194712
    27  H   -0.196094   0.363698
    28  H    0.089530   0.051255
    29  H   -0.120886   0.270502
    30  H    0.019897   0.089083
    31  H   -0.144726   0.291151
    32  H   -0.235132   0.369982
    33  H    0.067127   0.078858
 Sum of Mulliken charges =  -1.00000   1.00000

 Dipole moment (field-independent basis, Debye):
    X=              3.3349    Y=             -2.7315    Z=              0.9919  Tot=              4.4234
 Quadrupole moment (field-independent basis, Debye-Ang):
   XX=           -171.6035   YY=           -127.4083   ZZ=           -112.1797
   XY=              3.3370   XZ=             -4.2427   YZ=              0.1216

 Summary of Natural Population Analysis:

                                       Natural Population
                Natural  -----------------------------------------------
    Atom  No    Charge         Core      Valence    Rydberg      Total
 -----------------------------------------------------------------------
      C    1   -0.29826      0.99964     2.29394    0.00468     3.29826
      C    2    0.18180      0.99964     1.80129    0.01727     2.81820
      N    3   -0.22958      0.99968     2.71928    0.01062     3.72958
      C    4    0.02566      0.99956     1.96229    0.01249     2.97434
      C    5    0.04649      0.99948     1.94384    0.01019     2.95351
      C    6    0.05872      0.99957     1.92658    0.01512     2.94128
      N    7   -0.23304      0.99968     2.72301    0.01035     3.73304
      N    8   -0.31431      0.99967     2.80272    0.01191     3.81431
      C    9   -0.08530      0.99959     2.07325    0.01247     3.08530
      C   10   -0.11504      0.99958     2.10498    0.01049     3.11504
      C   11   -0.28795      0.99965     2.28219    0.00612     3.28795
      C   12   -0.11313      0.99959     2.10303    0.01051     3.11313
      C   13   -0.28453      0.99965     2.27867    0.00621     3.28453
      C   14   -0.28421      0.99965     2.27816    0.00640     3.28421
      H   15    0.10295      0.00000     0.39621    0.00084     0.39705
      H   16    0.10008      0.00000     0.39899    0.00093     0.39992
      H   17    0.10000      0.00000     0.39907    0.00093     0.40000
      H   18    0.08813      0.00000     0.40951    0.00236     0.41187
      H   19    0.08050      0.00000     0.41732    0.00218     0.41950
      H   20    0.18907      0.00000     0.30807    0.00286     0.31093
      H   21    0.09975      0.00000     0.39817    0.00208     0.40025
      H   22    0.09344      0.00000     0.40491    0.00165     0.40656
      H   23    0.09427      0.00000     0.40318    0.00256     0.40573
      H   24    0.09812      0.00000     0.40043    0.00145     0.40188
      H   25    0.09827      0.00000     0.40092    0.00081     0.40173
      H   26    0.10559      0.00000     0.39326    0.00115     0.39441
      H   27    0.09385      0.00000     0.40369    0.00246     0.40615
      H   28    0.09548      0.00000     0.40359    0.00093     0.40452
      H   29    0.09836      0.00000     0.40090    0.00074     0.40164
      H   30    0.09970      0.00000     0.39935    0.00095     0.40030
      H   31    0.10254      0.00000     0.39658    0.00087     0.39746
      H   32    0.09838      0.00000     0.40073    0.00089     0.40162
      H   33    0.09420      0.00000     0.40501    0.00079     0.40580
 =======================================================================
   * Total *    0.00000     13.99462    38.83312    0.17226    53.00000

 Normal termination of Gaussian 16 at Thu Dec 10 09:56:41 2020.
