 Gaussian 16, Revision A.03,

 -----------------------------------------------------------
 # opt freq B3LYP/6-31G(d) empiricaldispersion=gd3bj scf=xqc
 -----------------------------------------------------------

 -------------------------------
 CID_152885688_JID_8006_neutraal
 -------------------------------
 Symbolic Z-matrix:
 Charge =  0 Multiplicity = 1

 SCF Done:  E(RB3LYP) =  -732.548616606     A.U. after   15 cycles
 SCF Done:  E(RB3LYP) =  -732.553250757     A.U. after   12 cycles
 SCF Done:  E(RB3LYP) =  -732.554817304     A.U. after   12 cycles
 SCF Done:  E(RB3LYP) =  -732.555419027     A.U. after   12 cycles
 SCF Done:  E(RB3LYP) =  -732.555638583     A.U. after   11 cycles
 SCF Done:  E(RB3LYP) =  -732.555719568     A.U. after   11 cycles
 SCF Done:  E(RB3LYP) =  -732.555766704     A.U. after   10 cycles
 SCF Done:  E(RB3LYP) =  -732.555818799     A.U. after   11 cycles
 SCF Done:  E(RB3LYP) =  -732.555846124     A.U. after   10 cycles
 SCF Done:  E(RB3LYP) =  -732.555875041     A.U. after   10 cycles
 SCF Done:  E(RB3LYP) =  -732.555911147     A.U. after    9 cycles
 SCF Done:  E(RB3LYP) =  -732.555915687     A.U. after   10 cycles
 SCF Done:  E(RB3LYP) =  -732.555916313     A.U. after    7 cycles
 SCF Done:  E(RB3LYP) =  -732.555916533     A.U. after    7 cycles
 SCF Done:  E(RB3LYP) =  -732.555916625     A.U. after    7 cycles
 Optimization completed.
    -- Stationary point found.
 Normal termination of Gaussian 16 at Fri Dec 11 18:43:04 2020.

 --------------------------------------------------------------------
 #N Geom=AllCheck Guess=TCheck SCRF=Check GenChk RB3LYP/6-31G(d) Freq
 --------------------------------------------------------------------

 Structure from the checkpoint file:  "JID_8006.chk"
 -------------------------------
 CID_152885688_JID_8006_neutraal
 -------------------------------
 Charge =  0 Multiplicity = 1

 SCF Done:  E(RB3LYP) =  -732.555916625     A.U. after    1 cycles

  Exact polarizability: 261.992  -1.381 160.019  -9.242  -1.781 121.128
 Approx polarizability: 329.907   3.602 266.606 -22.741  -6.309 191.591

                      1                      2                      3
                      A                      A                      A
 Frequencies --     33.3532                35.2867                48.0595
 Red. masses --      3.2509                 3.9133                 3.2175
 Frc consts  --      0.0021                 0.0029                 0.0044
 IR Inten    --      0.6944                 0.2157                 0.3024

                      4                      5                      6
                      A                      A                      A
 Frequencies --     53.8791                84.5516               109.5344
 Red. masses --      3.9930                 3.2510                 1.0974
 Frc consts  --      0.0068                 0.0137                 0.0078
 IR Inten    --      0.5010                 0.0717                 0.3113

                      7                      8                      9
                      A                      A                      A
 Frequencies --    110.3318               142.3602               193.2313
 Red. masses --      3.7283                 1.0654                 3.1564
 Frc consts  --      0.0267                 0.0127                 0.0694
 IR Inten    --      0.1650                 0.4198                 0.6397

                     10                     11                     12
                      A                      A                      A
 Frequencies --    224.1989               233.4033               241.0197
 Red. masses --      1.9048                 2.0257                 2.7034
 Frc consts  --      0.0564                 0.0650                 0.0925
 IR Inten    --      0.4500                 0.3199                 0.0476

                     13                     14                     15
                      A                      A                      A
 Frequencies --    248.8129               258.7694               291.1410
 Red. masses --      1.8402                 2.7319                 1.1934
 Frc consts  --      0.0671                 0.1078                 0.0596
 IR Inten    --      0.4653                 2.9481                 0.3199

                     16                     17                     18
                      A                      A                      A
 Frequencies --    293.9216               316.1631               317.4132
 Red. masses --      1.0790                 3.1600                 2.9242
 Frc consts  --      0.0549                 0.1861                 0.1736
 IR Inten    --      0.8443                 1.5448                 0.9461

                     19                     20                     21
                      A                      A                      A
 Frequencies --    358.9487               373.6035               399.2624
 Red. masses --      2.2618                 2.9336                 2.8794
 Frc consts  --      0.1717                 0.2413                 0.2704
 IR Inten    --      0.1440                 0.7903                 0.7152

                     22                     23                     24
                      A                      A                      A
 Frequencies --    413.9551               417.7953               468.1544
 Red. masses --      2.6408                 2.1994                 3.0527
 Frc consts  --      0.2666                 0.2262                 0.3942
 IR Inten    --      0.4531                 0.1919                 2.6177

                     25                     26                     27
                      A                      A                      A
 Frequencies --    471.5861               511.0755               568.6292
 Red. masses --      2.6953                 3.3523                 4.7574
 Frc consts  --      0.3532                 0.5159                 0.9063
 IR Inten    --      0.5458                 1.0591                 3.0213

                     28                     29                     30
                      A                      A                      A
 Frequencies --    593.5350               653.2855               662.4873
 Red. masses --      3.6575                 3.8246                 4.2606
 Frc consts  --      0.7592                 0.9617                 1.1017
 IR Inten    --      4.2981                 2.8440                 4.0187

                     31                     32                     33
                      A                      A                      A
 Frequencies --    680.1152               708.6732               726.5919
 Red. masses --      3.9846                 4.1422                 1.3671
 Frc consts  --      1.0859                 1.2257                 0.4252
 IR Inten    --      3.6163                 2.3787                13.0588

                     34                     35                     36
                      A                      A                      A
 Frequencies --    733.1448               761.8517               768.6054
 Red. masses --      3.6686                 3.9969                 3.6768
 Frc consts  --      1.1618                 1.3668                 1.2797
 IR Inten    --      3.5793                 0.2175                 2.8362

                     37                     38                     39
                      A                      A                      A
 Frequencies --    810.0306               854.5712               902.8085
 Red. masses --      1.3396                 1.4937                 1.7987
 Frc consts  --      0.5179                 0.6427                 0.8638
 IR Inten    --     17.3953                16.9401                 1.9392

                     40                     41                     42
                      A                      A                      A
 Frequencies --    910.4408               923.6030               950.1620
 Red. masses --      1.7753                 1.7680                 1.7851
 Frc consts  --      0.8670                 0.8886                 0.9495
 IR Inten    --      1.8810                 2.0223                 3.0454

                     43                     44                     45
                      A                      A                      A
 Frequencies --    953.6073               961.0083               965.8395
 Red. masses --      1.5532                 1.4949                 1.9782
 Frc consts  --      0.8322                 0.8134                 1.0872
 IR Inten    --      0.3437                 1.8732                 1.9135

                     46                     47                     48
                      A                      A                      A
 Frequencies --    975.2849               987.1612               997.8389
 Red. masses --      1.2012                 2.6844                 6.4565
 Frc consts  --      0.6732                 1.5412                 3.7877
 IR Inten    --      0.0001                 9.0398                23.5692

                     49                     50                     51
                      A                      A                      A
 Frequencies --   1027.6066              1033.7098              1063.0951
 Red. masses --      1.7877                 1.5160                 1.4269
 Frc consts  --      1.1122                 0.9545                 0.9501
 IR Inten    --     22.4934                 0.6459                 0.3802

                     52                     53                     54
                      A                      A                      A
 Frequencies --   1071.8624              1075.6242              1080.2052
 Red. masses --      1.4609                 1.5100                 1.4825
 Frc consts  --      0.9889                 1.0293                 1.0192
 IR Inten    --      0.3901                 4.5459                 2.7026

                     55                     56                     57
                      A                      A                      A
 Frequencies --   1097.6121              1163.6145              1181.5920
 Red. masses --      2.7582                 1.5748                 1.4886
 Frc consts  --      1.9578                 1.2563                 1.2245
 IR Inten    --     32.2715                11.5764                 1.9671

                     58                     59                     60
                      A                      A                      A
 Frequencies --   1194.3497              1233.7764              1244.7338
 Red. masses --      1.4708                 1.6539                 2.1971
 Frc consts  --      1.2362                 1.4833                 2.0056
 IR Inten    --      2.9294                 1.6667                 9.6359

                     61                     62                     63
                      A                      A                      A
 Frequencies --   1263.3033              1269.5893              1276.6767
 Red. masses --      1.6794                 2.4592                 2.6487
 Frc consts  --      1.5792                 2.3355                 2.5436
 IR Inten    --     25.2545                 4.7694                23.2110

                     64                     65                     66
                      A                      A                      A
 Frequencies --   1310.9036              1314.2947              1329.8303
 Red. masses --      2.8793                 2.4939                 3.2468
 Frc consts  --      2.9153                 2.5382                 3.3829
 IR Inten    --      4.5403                 1.3249                34.7865

                     67                     68                     69
                      A                      A                      A
 Frequencies --   1347.5476              1364.0972              1370.3694
 Red. masses --      2.6157                 4.0835                 1.5461
 Frc consts  --      2.7985                 4.4768                 1.7107
 IR Inten    --     13.0603                 2.3633                 0.2267

                     70                     71                     72
                      A                      A                      A
 Frequencies --   1421.0579              1428.4501              1429.2461
 Red. masses --      2.6242                 1.2416                 1.2562
 Frc consts  --      3.1222                 1.4926                 1.5119
 IR Inten    --     31.2232                 3.4102                 7.0510

                     73                     74                     75
                      A                      A                      A
 Frequencies --   1445.9169              1450.9346              1459.0156
 Red. masses --      1.2408                 1.6226                 1.2296
 Frc consts  --      1.5284                 2.0127                 1.5421
 IR Inten    --      0.6823                 3.2367                 6.3408

                     76                     77                     78
                      A                      A                      A
 Frequencies --   1470.0773              1506.6660              1511.8763
 Red. masses --      2.9947                 1.0442                 1.0487
 Frc consts  --      3.8131                 1.3966                 1.4123
 IR Inten    --      4.3735                 4.5970                 0.0539

                     79                     80                     81
                      A                      A                      A
 Frequencies --   1512.4019              1513.6453              1516.6665
 Red. masses --      1.0856                 1.0903                 1.2938
 Frc consts  --      1.4630                 1.4718                 1.7534
 IR Inten    --      2.9021                17.8433                44.5686

                     82                     83                     84
                      A                      A                      A
 Frequencies --   1518.9861              1519.5680              1521.0715
 Red. masses --      1.0908                 1.0551                 1.1318
 Frc consts  --      1.4829                 1.4354                 1.5429
 IR Inten    --      1.1306                 0.5243                 9.8976

                     85                     86                     87
                      A                      A                      A
 Frequencies --   1537.8621              1538.4954              1539.5522
 Red. masses --      1.2231                 1.2357                 1.4947
 Frc consts  --      1.7043                 1.7232                 2.0874
 IR Inten    --      9.2313                 8.1882                44.1965

                     88                     89                     90
                      A                      A                      A
 Frequencies --   1549.6543              1562.0267              1616.2881
 Red. masses --      1.0603                 2.7903                 5.1572
 Frc consts  --      1.5002                 4.0112                 7.9378
 IR Inten    --     13.3578               145.7987                10.2906

                     91                     92                     93
                      A                      A                      A
 Frequencies --   1635.7506              1672.2451              3034.8200
 Red. masses --      6.5980                 6.0030                 1.0522
 Frc consts  --     10.4015                 9.8904                 5.7100
 IR Inten    --      0.3737                 1.1377                 9.8249

                     94                     95                     96
                      A                      A                      A
 Frequencies --   3037.5150              3040.0260              3048.2497
 Red. masses --      1.0392                 1.0361                 1.0365
 Frc consts  --      5.6492                 5.6418                 5.6745
 IR Inten    --     50.9916                33.8138                61.5633

                     97                     98                     99
                      A                      A                      A
 Frequencies --   3048.5031              3053.0224              3076.1784
 Red. masses --      1.0394                 1.0397                 1.1042
 Frc consts  --      5.6911                 5.7097                 6.1563
 IR Inten    --      4.2960                21.0488                13.1254

                    100                    101                    102
                      A                      A                      A
 Frequencies --   3101.7310              3102.5683              3103.5325
 Red. masses --      1.1023                 1.1013                 1.1018
 Frc consts  --      6.2483                 6.2461                 6.2524
 IR Inten    --      0.0808                19.2267                 6.9354

                    103                    104                    105
                      A                      A                      A
 Frequencies --   3106.6560              3110.6489              3111.1137
 Red. masses --      1.1020                 1.0963                 1.1010
 Frc consts  --      6.2664                 6.2498                 6.2786
 IR Inten    --     47.7076                 7.4889                85.7214

                    106                    107                    108
                      A                      A                      A
 Frequencies --   3122.5197              3126.3789              3126.6005
 Red. masses --      1.1012                 1.1004                 1.1019
 Frc consts  --      6.3258                 6.3371                 6.3466
 IR Inten    --      5.1165                70.0995                20.9082

                    109                    110                    111
                      A                      A                      A
 Frequencies --   3138.6073              3180.2543              3192.3283
 Red. masses --      1.1033                 1.0897                 1.0880
 Frc consts  --      6.4033                 6.4937                 6.5328
 IR Inten    --     15.0221                16.8076                12.9506

                    112                    113                    114
                      A                      A                      A
 Frequencies --   3212.4372              3264.1198              3291.7404
 Red. masses --      1.0944                 1.0962                 1.0980
 Frc consts  --      6.6543                 6.8816                 7.0099
 IR Inten    --      7.8570                 1.2695                 1.3466

 - Thermochemistry -
 -------------------
 Temperature   298.150 Kelvin.  Pressure   1.00000 Atm.
 Atom     1 has atomic number  6 and mass  12.00000

 Molecular mass:   242.17830 amu.
 Principal axes and moments of inertia in atomic units:
                           1         2         3
     Eigenvalues --  1404.40301********************
           X            0.99996  -0.00718   0.00549
           Y            0.00708   0.99982   0.01758
           Z           -0.00562  -0.01754   0.99983
 This molecule is an asymmetric top.
 Rotational symmetry number  1.
 Warning -- assumption of classical behavior for rotation
           may cause significant error
 Rotational temperatures (Kelvin)      0.06167     0.00825     0.00787
 Rotational constants (GHZ):           1.28506     0.17192     0.16401
 Zero-point vibrational energy     918256.4 (Joules/Mol)
                                  219.46855 (Kcal/Mol)
 Warning -- explicit consideration of  28 degrees of freedom as
           vibrations may cause significant error
 Vibrational temperatures:     47.99    50.77    69.15    77.52   121.65
          (Kelvin)            157.60   158.74   204.82   278.02   322.57
                              335.82   346.77   357.99   372.31   418.89
                              422.89   454.89   456.69   516.45   537.53
                              574.45   595.59   601.11   673.57   678.51
                              735.32   818.13   853.96   939.93   953.17
                              978.53  1019.62  1045.40  1054.83  1096.13
                             1105.85  1165.45  1229.54  1298.94  1309.92
                             1328.86  1367.07  1372.03  1382.68  1389.63
                             1403.22  1420.30  1435.67  1478.50  1487.28
                             1529.56  1542.17  1547.58  1554.17  1579.22
                             1674.18  1700.05  1718.40  1775.13  1790.89
                             1817.61  1826.66  1836.85  1886.10  1890.98
                             1913.33  1938.82  1962.63  1971.66  2044.59
                             2055.22  2056.37  2080.35  2087.57  2099.20
                             2115.11  2167.76  2175.25  2176.01  2177.80
                             2182.14  2185.48  2186.32  2188.48  2212.64
                             2213.55  2215.07  2229.61  2247.41  2325.48
                             2353.48  2405.99  4366.43  4370.31  4373.92
                             4385.75  4386.12  4392.62  4425.93  4462.70
                             4463.90  4465.29  4469.79  4475.53  4476.20
                             4492.61  4498.16  4498.48  4515.76  4575.68
                             4593.05  4621.98  4696.34  4736.08

 Zero-point correction=                           0.349745 (Hartree/Particle)
 Thermal correction to Energy=                    0.368142
 Thermal correction to Enthalpy=                  0.369087
 Thermal correction to Gibbs Free Energy=         0.302822
 Sum of electronic and zero-point Energies=           -732.206171
 Sum of electronic and thermal Energies=              -732.187774
 Sum of electronic and thermal Enthalpies=            -732.186830
 Sum of electronic and thermal Free Energies=         -732.253094

                     E (Thermal)             CV                S
                      KCal/Mol        Cal/Mol-Kelvin    Cal/Mol-Kelvin
 Total                  231.013             70.600            139.464
 Electronic               0.000              0.000              0.000
 Translational            0.889              2.981             42.355
 Rotational               0.889              2.981             33.450
 Vibrational            229.235             64.638             63.660
 Vibration     1          0.594              1.983              5.619
 Vibration     2          0.594              1.982              5.508
 Vibration     3          0.595              1.978              4.896
 Vibration     4          0.596              1.976              4.670
 Vibration     5          0.601              1.960              3.782
 Vibration     6          0.606              1.942              3.277
 Vibration     7          0.606              1.941              3.263
 Vibration     8          0.616              1.911              2.772
 Vibration     9          0.635              1.849              2.197
 Vibration    10          0.649              1.804              1.925
 Vibration    11          0.654              1.790              1.853
 Vibration    12          0.658              1.778              1.795
 Vibration    13          0.662              1.765              1.739
 Vibration    14          0.668              1.748              1.670
 Vibration    15          0.687              1.690              1.467
 Vibration    16          0.689              1.685              1.451
 Vibration    17          0.703              1.643              1.330
 Vibration    18          0.704              1.640              1.323
 Vibration    19          0.734              1.557              1.127
 Vibration    20          0.745              1.526              1.065
 Vibration    21          0.765              1.472              0.965
 Vibration    22          0.778              1.440              0.913
 Vibration    23          0.781              1.432              0.899
 Vibration    24          0.825              1.321              0.743
 Vibration    25          0.829              1.313              0.733
 Vibration    26          0.866              1.225              0.631
 Vibration    27          0.925              1.099              0.507
 Vibration    28          0.951              1.046              0.461

                           ! Non-Optimized Parameters !
 Normal termination of Gaussian 16 at Fri Dec 11 18:59:30 2020.

 ----------------------------------------------------------------------
 # B3LYP/6-311++G(d,p) empiricaldispersion=gd3bj scf=xqc pop=npa geom=c
 heck
 ----------------------------------------------------------------------

 ---------------------------------------
 CID_152885688_JID_8006_Energie_neutraal
 ---------------------------------------
 Structure from the checkpoint file:  "JID_8006.chk"
 Charge =  0 Multiplicity = 1

 SCF Done:  E(RB3LYP) =  -732.745951703     A.U. after   15 cycles
 Normal termination of Gaussian 16 at Fri Dec 11 19:06:32 2020.

 ----------------------------------------------------------------------
 # B3LYP/6-311++G(d,p) empiricaldispersion=gd3bj scf=xqc pop=npa geom=c
 heck
 ----------------------------------------------------------------------

 -------------------------------------
 CID_152885688_JID_8006_Energie_kation
 -------------------------------------
 Structure from the checkpoint file:  "JID_8006.chk"
 Charge =  1 Multiplicity = 2

 SCF Done:  E(UB3LYP) =  -732.457856465     A.U. after   26 cycles
 Normal termination of Gaussian 16 at Fri Dec 11 19:22:39 2020.
 Gaussian 16:  ES64L-G16RevA.03 25-Dec-2016

 ----------------------------------------------------------------------
 # B3LYP/6-311++G(d,p) empiricaldispersion=gd3bj scf=xqc pop=npa geom=c
 heck
 ----------------------------------------------------------------------

 ------------------------------------
 CID_152885688_JID_8006_Energie_anion
 ------------------------------------
 Structure from the checkpoint file:  "JID_8006.chk"
 Charge = -1 Multiplicity = 2

                         Standard orientation:
 ---------------------------------------------------------------------
 Center     Atomic      Atomic             Coordinates (Angstroms)
 Number     Number       Type             X           Y           Z
 ---------------------------------------------------------------------
      1          6           0       -1.139454    2.317398    0.392145
      2          6           0       -0.396552    1.093548   -0.082552
      3          6           0       -1.034794   -0.148284   -0.242832
      4          6           0       -0.314299   -1.271685   -0.654150
      5          6           0        1.050165   -1.175912   -0.908639
      6          6           0        1.718317    0.045638   -0.765426
      7          6           0        0.971780    1.158714   -0.361898
      8          6           0        3.202798    0.157737   -1.016631
      9          6           0        4.119130   -0.102113    0.216297
     10          6           0        3.912383   -1.526497    0.754460
     11          6           0        5.576796    0.058709   -0.246650
     12          6           0        3.826688    0.913022    1.332242
     13          7           0       -2.423379   -0.295266    0.035715
     14          6           0       -3.485310    0.375596   -0.556932
     15          6           0       -4.625520   -0.130985    0.017414
     16          7           0       -4.292478   -1.096197    0.953206
     17          6           0       -2.981098   -1.171523    0.934544
     18          6           0       -6.049575    0.231921   -0.258377
     19          1           0       -1.704313    2.793804   -0.418280
     20          1           0       -1.860010    2.067132    1.176682
     21          1           0       -0.439385    3.060215    0.785475
     22          1           0       -0.839683   -2.212129   -0.787961
     23          1           0        1.599083   -2.055166   -1.233598
     24          1           0        1.477054    2.114487   -0.245560
     25          1           0        3.488885   -0.550496   -1.804818
     26          1           0        3.429385    1.160819   -1.400040
     27          1           0        4.113519   -2.276141   -0.020914
     28          1           0        4.592301   -1.722067    1.591840
     29          1           0        2.888303   -1.675679    1.110999
     30          1           0        5.760329    1.068424   -0.633442
     31          1           0        6.270983   -0.113680    0.584144
     32          1           0        5.820785   -0.656144   -1.041777
     33          1           0        3.965267    1.942135    0.978091
     34          1           0        2.800724    0.818088    1.701736
     35          1           0        4.505331    0.757464    2.178990
     36          1           0       -3.324197    1.109354   -1.331229
     37          1           0       -2.364548   -1.812907    1.549817
     38          1           0       -6.618995   -0.641041   -0.598124
     39          1           0       -6.542248    0.605993    0.646817
     40          1           0       -6.116316    1.006071   -1.029391
 ---------------------------------------------------------------------

 SCF Done:  E(UB3LYP) =  -732.734985220     A.U. after   33 cycles
 SCF Done:  E(UB3LYP) =  -732.734985220     a.u. after    1 cycles

 The electronic state is 2-A.
 Alpha  occ. eigenvalues --  -14.28570 -14.20698 -10.13645 -10.12626 -10.10805
 Alpha  occ. eigenvalues --  -10.10590 -10.09998 -10.09120 -10.08847 -10.08783
 Alpha  occ. eigenvalues --  -10.08556 -10.08233 -10.08065 -10.07831 -10.07349
 Alpha  occ. eigenvalues --  -10.06185 -10.06085 -10.06046  -0.93368  -0.81426
 Alpha  occ. eigenvalues --   -0.76595  -0.73090  -0.68976  -0.68310  -0.66923
 Alpha  occ. eigenvalues --   -0.61892  -0.60211  -0.59283  -0.59013  -0.58692
 Alpha  occ. eigenvalues --   -0.53230  -0.50988  -0.48873  -0.48100  -0.45114
 Alpha  occ. eigenvalues --   -0.44103  -0.40118  -0.38636  -0.37242  -0.36299
 Alpha  occ. eigenvalues --   -0.35788  -0.35232  -0.34820  -0.34416  -0.33656
 Alpha  occ. eigenvalues --   -0.33402  -0.32392  -0.31593  -0.31113  -0.30660
 Alpha  occ. eigenvalues --   -0.29954  -0.29717  -0.28994  -0.27503  -0.27249
 Alpha  occ. eigenvalues --   -0.27066  -0.26241  -0.25195  -0.23501  -0.23008
 Alpha  occ. eigenvalues --   -0.22619  -0.19800  -0.18989  -0.16282  -0.15223
 Alpha  occ. eigenvalues --   -0.13875   0.04047
 Alpha virt. eigenvalues --    0.05570   0.06228   0.06648   0.07196   0.07295
 Alpha virt. eigenvalues --    0.07936   0.08291   0.08477   0.09014   0.09447
 Alpha virt. eigenvalues --    0.09813   0.09945   0.10060   0.10579   0.11210

  Beta  occ. eigenvalues --  -14.28574 -14.20696 -10.13633 -10.12590 -10.10794
  Beta  occ. eigenvalues --  -10.10588 -10.10009 -10.09120 -10.08816 -10.08746
  Beta  occ. eigenvalues --  -10.08545 -10.08230 -10.08042 -10.07783 -10.07332
  Beta  occ. eigenvalues --  -10.06153 -10.06054 -10.06022  -0.93357  -0.81399
  Beta  occ. eigenvalues --   -0.76548  -0.73064  -0.68942  -0.68289  -0.66855
  Beta  occ. eigenvalues --   -0.61860  -0.60156  -0.59228  -0.58962  -0.58636
  Beta  occ. eigenvalues --   -0.53169  -0.50945  -0.48849  -0.48059  -0.45074
  Beta  occ. eigenvalues --   -0.44042  -0.40086  -0.38594  -0.37200  -0.36238
  Beta  occ. eigenvalues --   -0.35760  -0.35202  -0.34796  -0.34372  -0.33619
  Beta  occ. eigenvalues --   -0.33366  -0.32360  -0.31576  -0.31094  -0.30625
  Beta  occ. eigenvalues --   -0.29933  -0.29689  -0.28963  -0.27471  -0.27144
  Beta  occ. eigenvalues --   -0.27029  -0.26190  -0.25160  -0.23440  -0.22971
  Beta  occ. eigenvalues --   -0.22571  -0.19754  -0.18983  -0.16125  -0.15110
  Beta  occ. eigenvalues --   -0.13815
  Beta virt. eigenvalues --    0.05842   0.06279   0.06586   0.07173   0.07384
  Beta virt. eigenvalues --    0.07543   0.08374   0.08691   0.08836   0.09184
  Beta virt. eigenvalues --    0.09640   0.09923   0.10148   0.10335   0.10711

 Mulliken charges and spin densities:
               1          2
     1  C    0.616891  -1.293618
     2  C   -0.726520   1.090093
     3  C   -0.607826  -0.271196
     4  C   -0.005054   0.009488
     5  C   -0.612381   0.148640
     6  C    1.738523  -1.119085
     7  C   -0.204975  -0.175962
     8  C    0.429521  -0.578016
     9  C   -1.078950   1.692202
    10  C    0.142082  -0.876301
    11  C    0.229758  -0.704994
    12  C    0.468453  -1.203344
    13  N    0.327530  -0.034401
    14  C   -0.431413   0.413764
    15  C    0.057395  -0.087015
    16  N   -0.153181   0.049665
    17  C    0.023586   0.060919
    18  C    0.290389  -1.063762
    19  H   -0.148703   0.319456
    20  H    0.089559   0.088716
    21  H   -0.080045   0.228404
    22  H   -0.013930   0.205754
    23  H   -0.324280   0.482632
    24  H   -0.307150   0.473577
    25  H    0.062086   0.133228
    26  H   -0.156103   0.344312
    27  H   -0.137934   0.296817
    28  H   -0.067554   0.202329
    29  H    0.131502   0.006938
    30  H   -0.183640   0.321560
    31  H   -0.065459   0.201038
    32  H   -0.205738   0.340047
    33  H   -0.196199   0.356396
    34  H    0.146521  -0.003861
    35  H    0.003673   0.130598
    36  H   -0.252497   0.416711
    37  H    0.087150   0.081224
    38  H    0.082097   0.063670
    39  H    0.077307   0.074901
    40  H   -0.044489   0.178475
 Sum of Mulliken charges =  -1.00000   1.00000

 Dipole moment (field-independent basis, Debye):
    X=             -3.8461    Y=             -1.3359    Z=              1.3563  Tot=              4.2915
 Quadrupole moment (field-independent basis, Debye-Ang):
   XX=           -225.5661   YY=           -156.1485   ZZ=           -144.6502
   XY=             -3.0400   XZ=              6.2738   YZ=              1.8203

 Summary of Natural Population Analysis:

                                       Natural Population
                Natural  -----------------------------------------------
    Atom  No    Charge         Core      Valence    Rydberg      Total
 -----------------------------------------------------------------------
      C    1   -0.29497      0.99964     2.28936    0.00598     3.29497
      C    2   -0.01434      0.99948     2.00604    0.00882     3.01434
      C    3    0.07059      0.99941     1.91862    0.01138     2.92941
      C    4   -0.09415      0.99952     2.08520    0.00943     3.09415
      C    5   -0.09995      0.99951     2.09151    0.00893     3.09995
      C    6   -0.00136      0.99951     1.99081    0.01104     3.00136
      C    7   -0.08707      0.99947     2.07828    0.00932     3.08707
      C    8   -0.19788      0.99956     2.18637    0.01195     3.19788
      C    9   -0.04421      0.99959     2.03321    0.01141     3.04421
      C   10   -0.28729      0.99962     2.28018    0.00749     3.28729
      C   11   -0.28089      0.99962     2.27483    0.00644     3.28089
      C   12   -0.28726      0.99962     2.28018    0.00746     3.28726
      N   13   -0.20680      0.99963     2.69664    0.01053     3.70680
      C   14   -0.03124      0.99948     2.02132    0.01044     3.03124
      C   15    0.04826      0.99956     1.93900    0.01318     2.95174
      N   16   -0.26177      0.99971     2.75142    0.01064     3.76177
      C   17    0.11318      0.99963     1.87213    0.01506     2.88682
      C   18   -0.29452      0.99963     2.28984    0.00504     3.29452
      H   19    0.10639      0.00000     0.39238    0.00122     0.39361
      H   20    0.10712      0.00000     0.39195    0.00093     0.39288
      H   21    0.10535      0.00000     0.39379    0.00085     0.39465
      H   22    0.10417      0.00000     0.39487    0.00096     0.39583
      H   23    0.10326      0.00000     0.39538    0.00136     0.39674
      H   24    0.10258      0.00000     0.39576    0.00166     0.39742
      H   25    0.10454      0.00000     0.39385    0.00161     0.39546
      H   26    0.10625      0.00000     0.39203    0.00172     0.39375
      H   27    0.10006      0.00000     0.39883    0.00111     0.39994
      H   28    0.09888      0.00000     0.40032    0.00080     0.40112
      H   29    0.10270      0.00000     0.39626    0.00104     0.39730
      H   30    0.10065      0.00000     0.39807    0.00128     0.39935
      H   31    0.09798      0.00000     0.40099    0.00102     0.40202
      H   32    0.10003      0.00000     0.39872    0.00125     0.39997
      H   33    0.10090      0.00000     0.39789    0.00121     0.39910
      H   34    0.10269      0.00000     0.39624    0.00107     0.39731
      H   35    0.09851      0.00000     0.40068    0.00080     0.40149
      H   36    0.10712      0.00000     0.39170    0.00117     0.39288
      H   37    0.09473      0.00000     0.40405    0.00121     0.40527
      H   38    0.10272      0.00000     0.39583    0.00145     0.39728
      H   39    0.10288      0.00000     0.39565    0.00147     0.39712
      H   40    0.10215      0.00000     0.39696    0.00089     0.39785
 =======================================================================
   * Total *    0.00000     17.99218    47.80716    0.20066    66.00000

 Normal termination of Gaussian 16 at Fri Dec 11 19:43:55 2020.
