 Gaussian 16, Revision A.03,

 -----------------------------------------------------------
 # opt freq B3LYP/6-31G(d) empiricaldispersion=gd3bj scf=xqc
 -----------------------------------------------------------

 -------------------------------
 CID_108895296_JID_8005_neutraal
 -------------------------------
 Symbolic Z-matrix:
 Charge =  0 Multiplicity = 1

 SCF Done:  E(RB3LYP) =  -1255.85106311     A.U. after   15 cycles
 SCF Done:  E(RB3LYP) =  -1255.86037135     A.U. after   13 cycles
 SCF Done:  E(RB3LYP) =  -1255.86311243     A.U. after   13 cycles
 SCF Done:  E(RB3LYP) =  -1255.86534637     A.U. after   14 cycles
 SCF Done:  E(RB3LYP) =  -1255.86577467     A.U. after   14 cycles
 SCF Done:  E(RB3LYP) =  -1255.86674775     A.U. after   13 cycles
 SCF Done:  E(RB3LYP) =  -1255.86721838     A.U. after   12 cycles
 SCF Done:  E(RB3LYP) =  -1255.86767437     A.U. after   12 cycles
 SCF Done:  E(RB3LYP) =  -1255.86797804     A.U. after   13 cycles
 SCF Done:  E(RB3LYP) =  -1255.86818151     A.U. after   13 cycles
 SCF Done:  E(RB3LYP) =  -1255.86874557     A.U. after   10 cycles
 SCF Done:  E(RB3LYP) =  -1255.86874682     A.U. after    9 cycles
 SCF Done:  E(RB3LYP) =  -1255.86874842     A.U. after    9 cycles
 SCF Done:  E(RB3LYP) =  -1255.86874909     A.U. after    8 cycles
 SCF Done:  E(RB3LYP) =  -1255.86874930     A.U. after    8 cycles
 Optimization completed.
    -- Stationary point found.
 Normal termination of Gaussian 16 at Fri Dec 11 18:49:07 2020.

 --------------------------------------------------------------------
 #N Geom=AllCheck Guess=TCheck SCRF=Check GenChk RB3LYP/6-31G(d) Freq
 --------------------------------------------------------------------

 Structure from the checkpoint file:  "JID_8005.chk"
 -------------------------------
 CID_108895296_JID_8005_neutraal
 -------------------------------
 Charge =  0 Multiplicity = 1

 SCF Done:  E(RB3LYP) =  -1255.86874930     A.U. after    1 cycles

  Exact polarizability: 184.572  -1.103 137.540   6.261  -0.539 120.033
 Approx polarizability: 225.919   2.099 225.864   9.991   0.544 191.461

                      1                      2                      3
                      A                      A                      A
 Frequencies --      7.6464                20.1227                36.4572
 Red. masses --      5.2293                 5.1584                 4.9443
 Frc consts  --      0.0002                 0.0012                 0.0039
 IR Inten    --      1.8040                 0.3238                 1.5685

                      4                      5                      6
                      A                      A                      A
 Frequencies --     44.0682                58.4994                74.6102
 Red. masses --      4.6030                 4.7924                 5.7753
 Frc consts  --      0.0053                 0.0097                 0.0189
 IR Inten    --      5.9578                 0.6347                 4.4871

                      7                      8                      9
                      A                      A                      A
 Frequencies --     77.9970               115.8453               153.4858
 Red. masses --      5.6116                 5.0612                 3.1416
 Frc consts  --      0.0201                 0.0400                 0.0436
 IR Inten    --      1.5588                 5.4322                 7.1658

                     10                     11                     12
                      A                      A                      A
 Frequencies --    185.4803               195.5846               213.7844
 Red. masses --      1.2136                 3.0290                 2.9062
 Frc consts  --      0.0246                 0.0683                 0.0783
 IR Inten    --      1.4299                 3.9336                 4.0496

                     13                     14                     15
                      A                      A                      A
 Frequencies --    226.6028               277.6519               300.0403
 Red. masses --      1.1291                 5.5948                 3.1600
 Frc consts  --      0.0342                 0.2541                 0.1676
 IR Inten    --      0.1713                 2.7740                 5.2950

                     16                     17                     18
                      A                      A                      A
 Frequencies --    302.8499               313.3570               334.2356
 Red. masses --      2.7442                 3.7397                 2.6761
 Frc consts  --      0.1483                 0.2164                 0.1761
 IR Inten    --      4.6716                 1.3080                 2.2147

                     19                     20                     21
                      A                      A                      A
 Frequencies --    355.8082               363.2471               420.6229
 Red. masses --      3.2799                 2.3557                 2.9756
 Frc consts  --      0.2447                 0.1831                 0.3102
 IR Inten    --      4.0490                 1.1588                36.0815

                     22                     23                     24
                      A                      A                      A
 Frequencies --    438.1227               454.9789               461.4431
 Red. masses --      2.6582                 3.7402                 3.6036
 Frc consts  --      0.3006                 0.4562                 0.4521
 IR Inten    --      0.2656                10.9313                 9.7740

                     25                     26                     27
                      A                      A                      A
 Frequencies --    487.9389               493.0796               502.7383
 Red. masses --      2.4120                 3.6421                 3.3179
 Frc consts  --      0.3383                 0.5217                 0.4941
 IR Inten    --      0.4830                21.0349                 3.0932

                     28                     29                     30
                      A                      A                      A
 Frequencies --    528.5363               569.7705               600.8568
 Red. masses --      4.8313                 3.7142                 3.6542
 Frc consts  --      0.7952                 0.7104                 0.7773
 IR Inten    --     28.0503                13.3648                31.8747

                     31                     32                     33
                      A                      A                      A
 Frequencies --    620.3908               642.9484               729.2779
 Red. masses --      3.4144                 2.6124                 3.1461
 Frc consts  --      0.7743                 0.6363                 0.9859
 IR Inten    --      1.0073                28.6423                 5.5385

                     34                     35                     36
                      A                      A                      A
 Frequencies --    751.4649               767.4827               802.2452
 Red. masses --      2.8422                 5.8586                 4.1594
 Frc consts  --      0.9456                 2.0332                 1.5772
 IR Inten    --      7.8016               116.7756                18.4157

                     37                     38                     39
                      A                      A                      A
 Frequencies --    836.2968               857.7349               872.0613
 Red. masses --      1.6875                 1.6101                 2.1908
 Frc consts  --      0.6954                 0.6979                 0.9816
 IR Inten    --      3.7800                 2.2102               113.1343

                     40                     41                     42
                      A                      A                      A
 Frequencies --    908.4501               944.6165               953.9024
 Red. masses --      3.0695                 2.2787                 1.7283
 Frc consts  --      1.4925                 1.1980                 0.9265
 IR Inten    --    175.2321                 2.0778                19.0223

                     43                     44                     45
                      A                      A                      A
 Frequencies --    979.9220               989.3905               998.2111
 Red. masses --      2.1581                 1.6708                 1.3597
 Frc consts  --      1.2210                 0.9636                 0.7983
 IR Inten    --     54.7292                66.2624                 0.1393

                     46                     47                     48
                      A                      A                      A
 Frequencies --   1001.1847              1017.3378              1056.7802
 Red. masses --      1.5323                 2.0552                 2.2271
 Frc consts  --      0.9050                 1.2533                 1.4654
 IR Inten    --      8.0571                34.3320                 2.8195

                     49                     50                     51
                      A                      A                      A
 Frequencies --   1077.2920              1084.2078              1116.5929
 Red. masses --      1.7853                 2.1614                 2.3288
 Frc consts  --      1.2207                 1.4969                 1.7107
 IR Inten    --     10.4943                16.4678                45.8031

                     52                     53                     54
                      A                      A                      A
 Frequencies --   1125.1247              1135.9068              1155.9656
 Red. masses --      7.6235                 3.3349                 2.4672
 Frc consts  --      5.6860                 2.5352                 1.9424
 IR Inten    --    117.8995                17.2009                52.3188

                     55                     56                     57
                      A                      A                      A
 Frequencies --   1169.5109              1200.9801              1220.8629
 Red. masses --      5.3412                 2.0362                 1.7830
 Frc consts  --      4.3043                 1.7304                 1.5658
 IR Inten    --     27.8666                96.5751                 3.9482

                     58                     59                     60
                      A                      A                      A
 Frequencies --   1229.1160              1253.6850              1270.0547
 Red. masses --      1.3240                 1.5097                 1.5562
 Frc consts  --      1.1785                 1.3980                 1.4790
 IR Inten    --      7.7197                10.8325                67.3734

                     61                     62                     63
                      A                      A                      A
 Frequencies --   1313.7290              1318.3272              1327.8431
 Red. masses --      1.6151                 1.4551                 7.8898
 Frc consts  --      1.6424                 1.4901                 8.1961
 IR Inten    --     16.0115                84.5445               221.6696

                     64                     65                     66
                      A                      A                      A
 Frequencies --   1368.6555              1372.4162              1380.4956
 Red. masses --      1.3305                 1.3007                 1.2132
 Frc consts  --      1.4684                 1.4434                 1.3623
 IR Inten    --     27.4503                 2.7374                 6.6509

                     67                     68                     69
                      A                      A                      A
 Frequencies --   1394.5753              1400.0601              1402.1007
 Red. masses --      1.3446                 1.2711                 1.2824
 Frc consts  --      1.5408                 1.4680                 1.4853
 IR Inten    --      6.2305                 2.9673                16.4778

                     70                     71                     72
                      A                      A                      A
 Frequencies --   1412.8033              1417.9665              1424.1513
 Red. masses --      1.4856                 1.3681                 1.4355
 Frc consts  --      1.7471                 1.6207                 1.7155
 IR Inten    --     81.0493                25.8111                 0.4787

                     73                     74                     75
                      A                      A                      A
 Frequencies --   1461.1325              1483.0652              1485.9872
 Red. masses --      1.8970                 1.0492                 1.0530
 Frc consts  --      2.3861                 1.3596                 1.3700
 IR Inten    --    252.6894                 3.3832                 4.0055

                     76                     77                     78
                      A                      A                      A
 Frequencies --   1489.7045              1496.0530              1496.9466
 Red. masses --      1.1054                 1.1164                 1.0896
 Frc consts  --      1.4454                 1.4722                 1.4385
 IR Inten    --      6.1203                18.1377                 3.7678

                     79                     80                     81
                      A                      A                      A
 Frequencies --   1498.7201              1504.4101              1505.1632
 Red. masses --      1.3253                 1.0826                 1.0641
 Frc consts  --      1.7539                 1.4436                 1.4203
 IR Inten    --     12.7100                 3.7604                17.9827

                     82                     83                     84
                      A                      A                      A
 Frequencies --   1521.1832              1523.7888              1539.6059
 Red. masses --      1.2270                 1.1014                 1.1013
 Frc consts  --      1.6729                 1.5067                 1.5381
 IR Inten    --     49.1798                22.3738                13.1906

                     85                     86                     87
                      A                      A                      A
 Frequencies --   1765.8528              1811.4258              3037.7405
 Red. masses --      7.6613                 9.8866                 1.0707
 Frc consts  --     14.0755                19.1135                 5.8212
 IR Inten    --    375.7674               119.4960                18.4333

                     88                     89                     90
                      A                      A                      A
 Frequencies --   3037.8992              3043.5934              3048.4774
 Red. masses --      1.0655                 1.0727                 1.0388
 Frc consts  --      5.7934                 5.8547                 5.6878
 IR Inten    --      6.7834                 8.9967                 4.0770

                     91                     92                     93
                      A                      A                      A
 Frequencies --   3058.8868              3063.3351              3087.5612
 Red. masses --      1.0698                 1.0705                 1.0292
 Frc consts  --      5.8975                 5.9185                 5.7809
 IR Inten    --      3.2572                89.1550                 0.6447

                     94                     95                     96
                      A                      A                      A
 Frequencies --   3088.4735              3094.3255              3111.8274
 Red. masses --      1.0921                 1.0663                 1.0992
 Frc consts  --      6.1375                 6.0154                 6.2711
 IR Inten    --     11.0565                36.0920                 7.5724

                     97                     98                     99
                      A                      A                      A
 Frequencies --   3145.9680              3153.6752              3160.5752
 Red. masses --      1.1038                 1.0965                 1.0932
 Frc consts  --      6.4367                 6.4252                 6.4338
 IR Inten    --     21.6503                 9.3917                 3.4085

                    100                    101                    102
                      A                      A                      A
 Frequencies --   3168.3455              3168.8819              3176.0677
 Red. masses --      1.1024                 1.0947                 1.0920
 Frc consts  --      6.5200                 6.4767                 6.4903
 IR Inten    --     11.3035                 3.3529                 6.5590

                    103                    104                    105
                      A                      A                      A
 Frequencies --   3186.6049              3196.1544              3543.4533
 Red. masses --      1.1067                 1.1080                 1.0738
 Frc consts  --      6.6214                 6.6685                 7.9439
 IR Inten    --      1.0823                 1.0945                25.3500

 - Thermochemistry -
 -------------------
 Temperature   298.150 Kelvin.  Pressure   1.00000 Atm.
 Atom     1 has atomic number  6 and mass  12.00000

 Molecular mass:   277.10963 amu.
 Principal axes and moments of inertia in atomic units:
                           1         2         3
     Eigenvalues --  1769.79837********************
           X            0.99998  -0.00576   0.00041
           Y            0.00573   0.99898   0.04471
           Z           -0.00066  -0.04471   0.99900
 This molecule is an asymmetric top.
 Rotational symmetry number  1.
 Warning -- assumption of classical behavior for rotation
           may cause significant error
 Rotational temperatures (Kelvin)      0.04894     0.00809     0.00792
 Rotational constants (GHZ):           1.01974     0.16860     0.16503
 Zero-point vibrational energy     813894.1 (Joules/Mol)
                                  194.52536 (Kcal/Mol)
 Warning -- explicit consideration of  31 degrees of freedom as
           vibrations may cause significant error
 Vibrational temperatures:     11.00    28.95    52.45    63.40    84.17
          (Kelvin)            107.35   112.22   166.68   220.83   266.86
                              281.40   307.59   326.03   399.48   431.69
                              435.73   450.85   480.89   511.93   522.63
                              605.18   630.36   654.61   663.91   702.04
                              709.43   723.33   760.45   819.77   864.50
                              892.60   925.06  1049.27  1081.19  1104.24
                             1154.25  1203.24  1234.09  1254.70  1307.06
                             1359.09  1372.45  1409.89  1423.51  1436.20
                             1440.48  1463.72  1520.47  1549.98  1559.93
                             1606.53  1618.80  1634.32  1663.18  1682.67
                             1727.94  1756.55  1768.42  1803.77  1827.33
                             1890.16  1896.78  1910.47  1969.19  1974.60
                             1986.23  2006.48  2014.37  2017.31  2032.71
                             2040.14  2049.04  2102.24  2133.80  2138.00
                             2143.35  2152.49  2153.77  2156.32  2164.51
                             2165.59  2188.64  2192.39  2215.15  2540.67
                             2606.24  4370.63  4370.86  4379.05  4386.08
                             4401.06  4407.46  4442.31  4443.62  4452.04
                             4477.23  4526.35  4537.44  4547.36  4558.54
                             4559.31  4569.65  4584.81  4598.55  5098.24

 Zero-point correction=                           0.309996 (Hartree/Particle)
 Thermal correction to Energy=                    0.328963
 Thermal correction to Enthalpy=                  0.329907
 Thermal correction to Gibbs Free Energy=         0.259147
 Sum of electronic and zero-point Energies=          -1255.558753
 Sum of electronic and thermal Energies=             -1255.539786
 Sum of electronic and thermal Enthalpies=           -1255.538842
 Sum of electronic and thermal Free Energies=        -1255.609603

                     E (Thermal)             CV                S
                      KCal/Mol        Cal/Mol-Kelvin    Cal/Mol-Kelvin
 Total                  206.427             70.132            148.928
 Electronic               0.000              0.000              0.000
 Translational            0.889              2.981             42.756
 Rotational               0.889              2.981             33.693
 Vibrational            204.650             64.171             72.479
 Vibration     1          0.593              1.987              8.544
 Vibration     2          0.593              1.986              6.622
 Vibration     3          0.594              1.982              5.443
 Vibration     4          0.595              1.980              5.067
 Vibration     5          0.596              1.974              4.507
 Vibration     6          0.599              1.966              4.028
 Vibration     7          0.599              1.964              3.941
 Vibration     8          0.608              1.936              3.169
 Vibration     9          0.619              1.899              2.629
 Vibration    10          0.632              1.860              2.273
 Vibration    11          0.636              1.846              2.174
 Vibration    12          0.644              1.820              2.011
 Vibration    13          0.650              1.800              1.906
 Vibration    14          0.679              1.715              1.548
 Vibration    15          0.693              1.674              1.417
 Vibration    16          0.694              1.668              1.401
 Vibration    17          0.701              1.648              1.345
 Vibration    18          0.716              1.607              1.240
 Vibration    19          0.731              1.563              1.140
 Vibration    20          0.737              1.548              1.108
 Vibration    21          0.783              1.425              0.890
 Vibration    22          0.798              1.387              0.833
 Vibration    23          0.813              1.350              0.781
 Vibration    24          0.819              1.336              0.762
 Vibration    25          0.844              1.277              0.689
 Vibration    26          0.849              1.265              0.676
 Vibration    27          0.858              1.244              0.651
 Vibration    28          0.883              1.187              0.590
 Vibration    29          0.926              1.097              0.505
 Vibration    30          0.959              1.030              0.448
 Vibration    31          0.980              0.989              0.416

                           ! Non-Optimized Parameters !
 Normal termination of Gaussian 16 at Fri Dec 11 19:05:46 2020.

 ----------------------------------------------------------------------
 # B3LYP/6-311++G(d,p) empiricaldispersion=gd3bj scf=xqc pop=npa geom=c
 heck
 ----------------------------------------------------------------------

 ---------------------------------------
 CID_108895296_JID_8005_Energie_neutraal
 ---------------------------------------
 Structure from the checkpoint file:  "JID_8005.chk"
 Charge =  0 Multiplicity = 1

 SCF Done:  E(RB3LYP) =  -1256.14765378     A.U. after   15 cycles
 Normal termination of Gaussian 16 at Fri Dec 11 19:12:27 2020.

 ----------------------------------------------------------------------
 # B3LYP/6-311++G(d,p) empiricaldispersion=gd3bj scf=xqc pop=npa geom=c
 heck
 ----------------------------------------------------------------------

 -------------------------------------
 CID_108895296_JID_8005_Energie_kation
 -------------------------------------
 Structure from the checkpoint file:  "JID_8005.chk"
 Charge =  1 Multiplicity = 2

 SCF Done:  E(UB3LYP) =  -1255.83782774     A.U. after   28 cycles
 Normal termination of Gaussian 16 at Fri Dec 11 19:29:22 2020.
 Gaussian 16:  ES64L-G16RevA.03 25-Dec-2016

 ----------------------------------------------------------------------
 # B3LYP/6-311++G(d,p) empiricaldispersion=gd3bj scf=xqc pop=npa geom=c
 heck
 ----------------------------------------------------------------------

 ------------------------------------
 CID_108895296_JID_8005_Energie_anion
 ------------------------------------
 Structure from the checkpoint file:  "JID_8005.chk"
 Charge = -1 Multiplicity = 2

                         Standard orientation:
 ---------------------------------------------------------------------
 Center     Atomic      Atomic             Coordinates (Angstroms)
 Number     Number       Type             X           Y           Z
 ---------------------------------------------------------------------
      1          6           0       -4.692256    1.558796    1.015137
      2          6           0       -4.448791    0.107363    0.680275
      3          8           0       -5.203109   -0.536743   -0.026730
      4          6           0       -3.169431   -0.523995    1.229477
      5          6           0       -2.611430   -1.585417    0.272874
      6          7           0       -2.355181   -1.052019   -1.078543
      7          6           0       -1.635957    0.159279   -1.144306
      8          8           0       -2.150034    1.206935   -1.529070
      9          7           0       -0.333218    0.085468   -0.710441
     10          6           0        0.451248    1.311108   -0.609239
     11          6           0        1.297846    1.258463    0.663374
     12          7           0        2.107248    0.027105    0.746008
     13          6           0        1.313496   -1.200981    0.551925
     14          6           0        0.474740   -1.131680   -0.725656
     15         16           0        3.630002    0.060812   -0.001358
     16          8           0        3.746303   -1.080468   -0.917618
     17          8           0        3.877357    1.430767   -0.462061
     18          6           0        4.723145   -0.258805    1.392201
     19          1           0       -5.718833    1.840070    0.773191
     20          1           0       -4.000662    2.150184    0.400126
     21          1           0       -4.470959    1.775839    2.066451
     22          1           0       -2.420514    0.252447    1.424554
     23          1           0       -3.409295   -0.978068    2.202199
     24          1           0       -1.695284   -2.014540    0.687721
     25          1           0       -3.334386   -2.395469    0.157746
     26          1           0       -3.247154   -0.884578   -1.536950
     27          1           0        1.108854    1.419895   -1.483275
     28          1           0       -0.237512    2.156376   -0.594232
     29          1           0        0.643410    1.259461    1.543641
     30          1           0        1.961395    2.120903    0.719750
     31          1           0        0.659793   -1.295505    1.427722
     32          1           0        1.982324   -2.062110    0.522896
     33          1           0       -0.173503   -2.000451   -0.828951
     34          1           0        1.154592   -1.110560   -1.588475
     35          1           0        4.598696    0.543150    2.120889
     36          1           0        4.462019   -1.224854    1.827462
     37          1           0        5.745225   -0.277775    1.007546
 ---------------------------------------------------------------------

 SCF Done:  E(UB3LYP) =  -1256.14604634     A.U. after   33 cycles
 SCF Done:  E(UB3LYP) =  -1256.14604634     a.u. after    1 cycles

 The electronic state is 2-A.
 Alpha  occ. eigenvalues --  -88.98032 -19.03610 -19.03476 -19.01452 -19.00320
 Alpha  occ. eigenvalues --  -14.26340 -14.25767 -14.23241 -10.20783 -10.16062
 Alpha  occ. eigenvalues --  -10.12796 -10.12780 -10.12503 -10.12151 -10.12055
 Alpha  occ. eigenvalues --  -10.11921 -10.08537 -10.08021  -8.04223  -6.00512
 Alpha  occ. eigenvalues --   -6.00480  -6.00284  -1.03740  -0.96670  -0.94904
 Alpha  occ. eigenvalues --   -0.92863  -0.87955  -0.84307  -0.82146  -0.70036
 Alpha  occ. eigenvalues --   -0.69638  -0.68634  -0.64809  -0.63690  -0.58205
 Alpha  occ. eigenvalues --   -0.57650  -0.55532  -0.51191  -0.47780  -0.45204
 Alpha  occ. eigenvalues --   -0.43248  -0.42157  -0.41275  -0.40690  -0.40438
 Alpha  occ. eigenvalues --   -0.39544  -0.38529  -0.37796  -0.37558  -0.36776
 Alpha  occ. eigenvalues --   -0.36015  -0.35400  -0.35024  -0.34574  -0.34022
 Alpha  occ. eigenvalues --   -0.32661  -0.31985  -0.31365  -0.30856  -0.29644
 Alpha  occ. eigenvalues --   -0.29049  -0.28263  -0.27839  -0.27317  -0.26784
 Alpha  occ. eigenvalues --   -0.25836  -0.24253  -0.22715  -0.22477  -0.20444
 Alpha  occ. eigenvalues --   -0.18970  -0.16565  -0.15740  -0.15336   0.03440
 Alpha virt. eigenvalues --    0.05306   0.06363   0.07155   0.07778   0.08309
 Alpha virt. eigenvalues --    0.08517   0.09160   0.09817   0.10112   0.10231
 Alpha virt. eigenvalues --    0.10580   0.11139   0.11404   0.12108   0.12408

  Beta  occ. eigenvalues --  -88.98030 -19.03601 -19.03468 -19.01367 -19.00320
  Beta  occ. eigenvalues --  -14.26340 -14.25767 -14.23241 -10.20780 -10.15922
  Beta  occ. eigenvalues --  -10.12777 -10.12748 -10.12499 -10.12149 -10.11997
  Beta  occ. eigenvalues --  -10.11904 -10.08525 -10.08023  -8.04220  -6.00507
  Beta  occ. eigenvalues --   -6.00478  -6.00281  -1.03721  -0.96665  -0.94716
  Beta  occ. eigenvalues --   -0.92843  -0.87946  -0.84300  -0.82139  -0.70008
  Beta  occ. eigenvalues --   -0.69588  -0.68516  -0.64755  -0.63650  -0.58174
  Beta  occ. eigenvalues --   -0.57610  -0.55467  -0.51158  -0.47736  -0.45120
  Beta  occ. eigenvalues --   -0.43103  -0.42125  -0.41246  -0.40650  -0.40404
  Beta  occ. eigenvalues --   -0.39514  -0.38449  -0.37740  -0.37532  -0.36615
  Beta  occ. eigenvalues --   -0.35957  -0.35332  -0.34961  -0.34532  -0.33976
  Beta  occ. eigenvalues --   -0.32633  -0.31921  -0.31322  -0.30820  -0.29607
  Beta  occ. eigenvalues --   -0.29019  -0.28234  -0.27802  -0.27269  -0.26768
  Beta  occ. eigenvalues --   -0.25417  -0.24230  -0.22692  -0.22457  -0.20438
  Beta  occ. eigenvalues --   -0.18960  -0.16534  -0.15690  -0.15324
  Beta virt. eigenvalues --    0.05995   0.06526   0.06936   0.07807   0.08163
  Beta virt. eigenvalues --    0.08573   0.08960   0.09550   0.10144   0.10459
  Beta virt. eigenvalues --    0.10574   0.11009   0.11260   0.11556   0.12207

 Mulliken charges and spin densities:
               1          2
     1  C   -0.233510  -0.390612
     2  C    0.038771   0.180748
     3  O   -0.299424   0.031281
     4  C    0.030488  -0.155386
     5  C   -0.014728  -0.389731
     6  N   -0.050773   0.016001
     7  C   -0.042218  -0.272913
     8  O   -0.297618   0.007456
     9  N    0.028517   0.039061
    10  C   -0.016889  -0.020727
    11  C   -0.140739  -0.432536
    12  N   -0.287653   0.267206
    13  C    0.641922  -1.105836
    14  C   -0.681538   0.321283
    15  S    0.456368  -0.383461
    16  O   -0.136293   0.023384
    17  O   -0.164455   0.014862
    18  C    0.477100  -0.917356
    19  H    0.124782   0.025674
    20  H    0.169863   0.025141
    21  H   -0.127068   0.278336
    22  H    0.543188  -0.386700
    23  H   -0.730330   0.966665
    24  H   -0.029911   0.142651
    25  H    0.178123   0.042775
    26  H    0.310099  -0.004565
    27  H    0.195361   0.012032
    28  H    0.182058   0.020451
    29  H   -0.415385   0.611151
    30  H    0.210092   0.018590
    31  H   -0.447116   0.688891
    32  H    0.050601   0.162793
    33  H    0.095014   0.133522
    34  H    0.183853   0.006943
    35  H   -0.311384   0.520069
    36  H   -0.415999   0.629299
    37  H   -0.073168   0.273557
 Sum of Mulliken charges =  -1.00000   1.00000

 Dipole moment (field-independent basis, Debye):
    X=              0.2970    Y=              1.6151    Z=             -3.9347  Tot=              4.2636
 Quadrupole moment (field-independent basis, Debye-Ang):
   XX=           -217.0853   YY=           -148.5252   ZZ=           -165.2642
   XY=             -1.3940   XZ=             -1.8497   YZ=              8.8129

 Summary of Natural Population Analysis:

                                       Natural Population
                Natural  -----------------------------------------------
    Atom  No    Charge         Core      Valence    Rydberg      Total
 -----------------------------------------------------------------------
      C    1   -0.33727      0.99961     2.33266    0.00500     3.33727
      C    2    0.31269      0.99969     1.66596    0.02166     2.68731
      O    3   -0.29503      0.99987     3.28880    0.00636     4.29503
      C    4   -0.24950      0.99958     2.24065    0.00926     3.24950
      C    5   -0.08984      0.99962     2.07741    0.01282     3.08984
      N    6   -0.34769      0.99970     2.83917    0.00882     3.84769
      C    7    0.41419      0.99966     1.56163    0.02452     2.58581
      O    8   -0.33587      0.99987     3.33135    0.00465     4.33587
      N    9   -0.26858      0.99962     2.75942    0.00954     3.76858
      C   10   -0.09402      0.99961     2.08462    0.00979     3.09402
      C   11   -0.09258      0.99959     2.08064    0.01234     3.09258
      N   12   -0.37871      0.99974     2.85950    0.01947     3.87871
      C   13   -0.09390      0.99959     2.08072    0.01360     3.09390
      C   14   -0.09397      0.99960     2.08479    0.00958     3.09397
      S   15    1.09890      4.99925     1.80267    0.09918     6.90110
      O   16   -0.46601      0.99991     3.46056    0.00554     4.46601
      O   17   -0.46576      0.99991     3.46028    0.00558     4.46576
      C   18   -0.38473      0.99961     2.37514    0.00998     3.38473
      H   19    0.10631      0.00000     0.39283    0.00086     0.39369
      H   20    0.12130      0.00000     0.37785    0.00085     0.37870
      H   21    0.10690      0.00000     0.39205    0.00105     0.39310
      H   22    0.10365      0.00000     0.39442    0.00193     0.39635
      H   23    0.12186      0.00000     0.37445    0.00369     0.37814
      H   24    0.09687      0.00000     0.40169    0.00144     0.40313
      H   25    0.10427      0.00000     0.39471    0.00102     0.39573
      H   26    0.19564      0.00000     0.30273    0.00163     0.30436
      H   27    0.09587      0.00000     0.40305    0.00109     0.40413
      H   28    0.11664      0.00000     0.38241    0.00095     0.38336
      H   29    0.10193      0.00000     0.39639    0.00168     0.39807
      H   30    0.11458      0.00000     0.38439    0.00103     0.38542
      H   31    0.10452      0.00000     0.39246    0.00302     0.39548
      H   32    0.11210      0.00000     0.38662    0.00128     0.38790
      H   33    0.11309      0.00000     0.38571    0.00121     0.38691
      H   34    0.09960      0.00000     0.39923    0.00117     0.40040
      H   35    0.11849      0.00000     0.37979    0.00172     0.38151
      H   36    0.11951      0.00000     0.37831    0.00218     0.38049
      H   37    0.11456      0.00000     0.38461    0.00083     0.38544
 =======================================================================
   * Total *   -0.00000     21.99404    51.68964    0.31632    74.00000

 Normal termination of Gaussian 16 at Fri Dec 11 19:50:01 2020.
