 Gaussian 16, Revision A.03,

 -----------------------------------------------------------
 # opt freq B3LYP/6-31G(d) empiricaldispersion=gd3bj scf=xqc
 -----------------------------------------------------------

 ------------------------------
 CID_43293220_JID_2060_neutraal
 ------------------------------
 Symbolic Z-matrix:
 Charge =  0 Multiplicity = 1

 SCF Done:  E(RB3LYP) =  -844.287058007     A.U. after   14 cycles
 SCF Done:  E(RB3LYP) =  -844.290515054     A.U. after   12 cycles
 SCF Done:  E(RB3LYP) =  -844.289107068     A.U. after   13 cycles
 SCF Done:  E(RB3LYP) =  -844.292085929     A.U. after   13 cycles
 SCF Done:  E(RB3LYP) =  -844.291682147     A.U. after   12 cycles
 SCF Done:  E(RB3LYP) =  -844.292805045     A.U. after   12 cycles
 SCF Done:  E(RB3LYP) =  -844.293119833     A.U. after   10 cycles
 SCF Done:  E(RB3LYP) =  -844.293194724     A.U. after   11 cycles
 SCF Done:  E(RB3LYP) =  -844.293209695     A.U. after   10 cycles
 SCF Done:  E(RB3LYP) =  -844.293213202     A.U. after    9 cycles
 SCF Done:  E(RB3LYP) =  -844.293213813     A.U. after    8 cycles
 SCF Done:  E(RB3LYP) =  -844.293213868     A.U. after    7 cycles
 Optimization completed.
    -- Stationary point found.
 Normal termination of Gaussian 16 at Wed Dec  9 16:48:16 2020.

 --------------------------------------------------------------------
 #N Geom=AllCheck Guess=TCheck SCRF=Check GenChk RB3LYP/6-31G(d) Freq
 --------------------------------------------------------------------

 Structure from the checkpoint file:  "JID_2060.chk"
 ------------------------------
 CID_43293220_JID_2060_neutraal
 ------------------------------
 Charge =  0 Multiplicity = 1

 SCF Done:  E(RB3LYP) =  -844.293213868     A.U. after    1 cycles

  Exact polarizability: 154.252  -4.784 108.388  -3.318   1.168 101.257
 Approx polarizability: 212.379 -10.775 159.705  -9.490   4.270 150.368

                      1                      2                      3
                      A                      A                      A
 Frequencies --     28.3552                49.6467                90.6979
 Red. masses --      5.3450                 2.8469                 3.5579
 Frc consts  --      0.0025                 0.0041                 0.0172
 IR Inten    --      0.0526                 0.7268                 3.2321

                      4                      5                      6
                      A                      A                      A
 Frequencies --    131.1689               137.4830               143.8447
 Red. masses --      2.8901                 4.1027                 3.6785
 Frc consts  --      0.0293                 0.0457                 0.0448
 IR Inten    --      0.0633                 6.9825                 2.7046

                      7                      8                      9
                      A                      A                      A
 Frequencies --    160.2466               210.0474               217.4130
 Red. masses --      3.2355                 2.1186                 2.2006
 Frc consts  --      0.0490                 0.0551                 0.0613
 IR Inten    --      1.0468                 0.7008                 1.3296

                     10                     11                     12
                      A                      A                      A
 Frequencies --    277.8744               314.3365               327.9711
 Red. masses --      1.9113                 2.4665                 2.7148
 Frc consts  --      0.0870                 0.1436                 0.1720
 IR Inten    --      0.9016                 0.1121                 0.7439

                     13                     14                     15
                      A                      A                      A
 Frequencies --    371.2336               401.1730               432.2342
 Red. masses --      2.2768                 4.3788                 2.6435
 Frc consts  --      0.1849                 0.4152                 0.2910
 IR Inten    --      0.2278                 1.0594                 0.7246

                     16                     17                     18
                      A                      A                      A
 Frequencies --    475.5442               513.6375               588.7547
 Red. masses --      2.1489                 6.5792                 4.6281
 Frc consts  --      0.2863                 1.0227                 0.9452
 IR Inten    --      0.8946                 0.1214                 0.6867

                     19                     20                     21
                      A                      A                      A
 Frequencies --    660.3364               679.1403               715.5079
 Red. masses --      3.0445                 2.5857                 2.8336
 Frc consts  --      0.7822                 0.7027                 0.8547
 IR Inten    --      0.5630                 0.4757                 5.7479

                     22                     23                     24
                      A                      A                      A
 Frequencies --    806.6258               811.7173               823.3229
 Red. masses --      3.9224                 1.3806                 1.8423
 Frc consts  --      1.5037                 0.5360                 0.7358
 IR Inten    --      2.2513                 5.8975                 3.3476

                     25                     26                     27
                      A                      A                      A
 Frequencies --    864.8139               877.5788               884.9781
 Red. masses --      2.2266                 2.2434                 2.4654
 Frc consts  --      0.9811                 1.0179                 1.1376
 IR Inten    --      2.7746                 2.5996                 1.3251

                     28                     29                     30
                      A                      A                      A
 Frequencies --    912.9290               923.7361               955.0479
 Red. masses --      1.3952                 1.7653                 1.9958
 Frc consts  --      0.6851                 0.8875                 1.0725
 IR Inten    --      1.6890                 7.2613                 0.6739

                     31                     32                     33
                      A                      A                      A
 Frequencies --   1031.2949              1055.6266              1058.7939
 Red. masses --      2.5021                 1.8697                 1.8550
 Frc consts  --      1.5679                 1.2276                 1.2253
 IR Inten    --     14.5759                 0.0268                 0.4954

                     34                     35                     36
                      A                      A                      A
 Frequencies --   1060.9933              1079.2151              1107.8445
 Red. masses --      1.8213                 1.3354                 1.6725
 Frc consts  --      1.2080                 0.9164                 1.2094
 IR Inten    --      0.5168                 2.1229                 2.3440

                     37                     38                     39
                      A                      A                      A
 Frequencies --   1113.8604              1140.7492              1156.7115
 Red. masses --      2.4936                 1.7292                 1.2502
 Frc consts  --      1.8228                 1.3258                 0.9856
 IR Inten    --      0.4014                 0.7463                 0.3807

                     40                     41                     42
                      A                      A                      A
 Frequencies --   1186.3605              1243.4469              1282.8718
 Red. masses --      1.2160                 1.3622                 1.2608
 Frc consts  --      1.0084                 1.2409                 1.2225
 IR Inten    --      6.3151                 3.9067                 4.8625

                     43                     44                     45
                      A                      A                      A
 Frequencies --   1291.0398              1294.5804              1311.7268
 Red. masses --      1.2663                 1.2700                 1.4185
 Frc consts  --      1.2435                 1.2541                 1.4380
 IR Inten    --      3.0559                12.5229                 1.1216

                     46                     47                     48
                      A                      A                      A
 Frequencies --   1316.8885              1341.3254              1351.7126
 Red. masses --      1.2104                 1.1930                 1.2871
 Frc consts  --      1.2367                 1.2646                 1.3856
 IR Inten    --      0.7073                13.3368                 4.6463

                     49                     50                     51
                      A                      A                      A
 Frequencies --   1368.7019              1383.1820              1395.5516
 Red. masses --      1.3904                 1.3999                 1.4144
 Frc consts  --      1.5347                 1.5780                 1.6230
 IR Inten    --      2.9038                 4.5648                 6.8061

                     52                     53                     54
                      A                      A                      A
 Frequencies --   1402.6683              1409.6565              1413.9493
 Red. masses --      1.3988                 1.3877                 1.4672
 Frc consts  --      1.6215                 1.6247                 1.7283
 IR Inten    --      2.1228                 2.9802                 0.0563

                     55                     56                     57
                      A                      A                      A
 Frequencies --   1445.5036              1507.1934              1514.4594
 Red. masses --      1.2503                 1.0821                 1.0836
 Frc consts  --      1.5393                 1.4483                 1.4643
 IR Inten    --      7.2027                 4.0562                10.0603

                     58                     59                     60
                      A                      A                      A
 Frequencies --   1515.3881              1520.7646              1524.3100
 Red. masses --      1.0692                 1.0843                 1.0743
 Frc consts  --      1.4467                 1.4775                 1.4707
 IR Inten    --      1.6702                 6.6233                 6.3299

                     61                     62                     63
                      A                      A                      A
 Frequencies --   1531.0847              1535.9355              1537.9849
 Red. masses --      1.0546                 1.0633                 1.0919
 Frc consts  --      1.4565                 1.4779                 1.5217
 IR Inten    --     11.9393                 4.0276                 4.1336

                     64                     65                     66
                      A                      A                      A
 Frequencies --   2356.8887              3042.1218              3042.7960
 Red. masses --     12.6530                 1.0673                 1.0619
 Frc consts  --     41.4115                 5.8195                 5.7926
 IR Inten    --     10.0727                13.5105                28.3640

                     67                     68                     69
                      A                      A                      A
 Frequencies --   3047.8505              3051.2086              3062.8273
 Red. masses --      1.0630                 1.0385                 1.0647
 Frc consts  --      5.8181                 5.6965                 5.8847
 IR Inten    --     16.5782                21.3295                 5.6278

                     70                     71                     72
                      A                      A                      A
 Frequencies --   3065.4205              3068.3064              3077.8451
 Red. masses --      1.0634                 1.0689                 1.0840
 Frc consts  --      5.8876                 5.9288                 6.0503
 IR Inten    --     31.7222                23.6379                 8.0155

                     73                     74                     75
                      A                      A                      A
 Frequencies --   3081.3762              3082.9268              3088.8744
 Red. masses --      1.0911                 1.0852                 1.0975
 Frc consts  --      6.1036                 6.0771                 6.1694
 IR Inten    --     29.5603                10.1226                21.7472

                     76                     77                     78
                      A                      A                      A
 Frequencies --   3095.5351              3107.7415              3115.8709
 Red. masses --      1.0971                 1.1045                 1.1014
 Frc consts  --      6.1940                 6.2848                 6.3001
 IR Inten    --     23.0737                20.5098                42.0936

                     79                     80                     81
                      A                      A                      A
 Frequencies --   3120.8860              3126.6642              3133.6156
 Red. masses --      1.0959                 1.1079                 1.1022
 Frc consts  --      6.2892                 6.3816                 6.3767
 IR Inten    --     47.7821                19.6525                34.4035

 - Thermochemistry -
 -------------------
 Temperature   298.150 Kelvin.  Pressure   1.00000 Atm.
 Atom     1 has atomic number  6 and mass  12.00000

 Molecular mass:   183.10817 amu.
 Principal axes and moments of inertia in atomic units:
                           1         2         3
     Eigenvalues --  1239.596453921.943584198.14950
           X            0.99985   0.01390  -0.01058
           Y           -0.01431   0.99910  -0.03987
           Z            0.01002   0.04001   0.99915
 This molecule is an asymmetric top.
 Rotational symmetry number  1.
 Warning -- assumption of classical behavior for rotation
           may cause significant error
 Rotational temperatures (Kelvin)      0.06987     0.02208     0.02063
 Rotational constants (GHZ):           1.45591     0.46017     0.42989
 Zero-point vibrational energy     675815.5 (Joules/Mol)
                                  161.52378 (Kcal/Mol)
 Warning -- explicit consideration of  18 degrees of freedom as
           vibrations may cause significant error
 Vibrational temperatures:     40.80    71.43   130.49   188.72   197.81
          (Kelvin)            206.96   230.56   302.21   312.81   399.80
                              452.26   471.88   534.12   577.20   621.89
                              684.20   739.01   847.09   950.08   977.13
                             1029.46  1160.55  1167.88  1184.58  1244.27
                             1262.64  1273.29  1313.50  1329.05  1374.10
                             1483.80  1518.81  1523.37  1526.53  1552.75
                             1593.94  1602.60  1641.28  1664.25  1706.91
                             1789.04  1845.77  1857.52  1862.61  1887.28
                             1894.71  1929.87  1944.81  1969.26  1990.09
                             2007.89  2018.13  2028.18  2034.36  2079.76
                             2168.52  2178.97  2180.31  2188.04  2193.14
                             2202.89  2209.87  2212.82  3391.04  4376.93
                             4377.90  4385.18  4390.01  4406.73  4410.46
                             4414.61  4428.33  4433.41  4435.64  4444.20
                             4453.78  4471.35  4483.04  4490.26  4498.57
                             4508.57

 Zero-point correction=                           0.257405 (Hartree/Particle)
 Thermal correction to Energy=                    0.270528
 Thermal correction to Enthalpy=                  0.271472
 Thermal correction to Gibbs Free Energy=         0.216955
 Sum of electronic and zero-point Energies=           -844.035809
 Sum of electronic and thermal Energies=              -844.022686
 Sum of electronic and thermal Enthalpies=            -844.021742
 Sum of electronic and thermal Free Energies=         -844.076258

                     E (Thermal)             CV                S
                      KCal/Mol        Cal/Mol-Kelvin    Cal/Mol-Kelvin
 Total                  169.759             48.860            114.740
 Electronic               0.000              0.000              0.000
 Translational            0.889              2.981             41.521
 Rotational               0.889              2.981             31.390
 Vibrational            167.981             42.898             41.828
 Vibration     1          0.593              1.984              5.941
 Vibration     2          0.595              1.978              4.831
 Vibration     3          0.602              1.956              3.645
 Vibration     4          0.612              1.922              2.929
 Vibration     5          0.614              1.916              2.839
 Vibration     6          0.616              1.909              2.752
 Vibration     7          0.622              1.891              2.547
 Vibration     8          0.642              1.825              2.043
 Vibration     9          0.646              1.815              1.981
 Vibration    10          0.679              1.714              1.547
 Vibration    11          0.702              1.646              1.339
 Vibration    12          0.711              1.620              1.270
 Vibration    13          0.743              1.531              1.075
 Vibration    14          0.767              1.468              0.958
 Vibration    15          0.793              1.400              0.851
 Vibration    16          0.832              1.304              0.722
 Vibration    17          0.869              1.220              0.625
 Vibration    18          0.946              1.056              0.469

 Optimization completed.
    -- Stationary point found.
 Normal termination of Gaussian 16 at Wed Dec  9 16:55:17 2020.

 ----------------------------------------------------------------------
 # B3LYP/6-311++G(d,p) empiricaldispersion=gd3bj scf=xqc pop=npa geom=c
 heck
 ----------------------------------------------------------------------

 --------------------------------------
 CID_43293220_JID_2060_Energie_neutraal
 --------------------------------------
 Structure from the checkpoint file:  "JID_2060.chk"
 Charge =  0 Multiplicity = 1

 SCF Done:  E(RB3LYP) =  -844.442341291     A.U. after   14 cycles
 Normal termination of Gaussian 16 at Wed Dec  9 16:58:08 2020.

 ----------------------------------------------------------------------
 # B3LYP/6-311++G(d,p) empiricaldispersion=gd3bj scf=xqc pop=npa geom=c
 heck
 ----------------------------------------------------------------------

 ------------------------------------
 CID_43293220_JID_2060_Energie_kation
 ------------------------------------
 Structure from the checkpoint file:  "JID_2060.chk"
 Charge =  1 Multiplicity = 2

 SCF Done:  E(UB3LYP) =  -844.128963986     A.U. after   19 cycles
 Normal termination of Gaussian 16 at Wed Dec  9 17:03:55 2020.
 Gaussian 16:  ES64L-G16RevA.03 25-Dec-2016

 ----------------------------------------------------------------------
 # B3LYP/6-311++G(d,p) empiricaldispersion=gd3bj scf=xqc pop=npa geom=c
 heck
 ----------------------------------------------------------------------

 -----------------------------------
 CID_43293220_JID_2060_Energie_anion
 -----------------------------------
 Structure from the checkpoint file:  "JID_2060.chk"
 Charge = -1 Multiplicity = 2

                         Standard orientation:
 ---------------------------------------------------------------------
 Center     Atomic      Atomic             Coordinates (Angstroms)
 Number     Number       Type             X           Y           Z
 ---------------------------------------------------------------------
      1          6           0       -3.949354   -0.512566    1.053185
      2          6           0       -3.541585    0.338758   -0.152126
      3          6           0       -2.034249    0.603154   -0.250681
      4         16           0       -1.169152   -0.978163   -0.621868
      5          6           0        0.637076   -0.611784   -0.784522
      6          6           0        1.028638    0.729181   -1.430961
      7          6           0        1.020850    1.936478   -0.477728
      8          6           0        1.777520    1.655297    0.827295
      9          6           0        1.269609    0.377262    1.502928
     10          6           0        1.392305   -0.837212    0.558460
     11          6           0        2.808307   -1.114562    0.271258
     12          7           0        3.924425   -1.312453    0.018818
     13          1           0       -3.511073   -1.514013    1.004172
     14          1           0       -5.038018   -0.621375    1.101604
     15          1           0       -3.615755   -0.048707    1.989455
     16          1           0       -3.888128   -0.130885   -1.081184
     17          1           0       -4.038457    1.316159   -0.094560
     18          1           0       -1.833890    1.314938   -1.055714
     19          1           0       -1.670607    1.028431    0.689588
     20          1           0        0.938376   -1.412420   -1.467572
     21          1           0        0.388472    0.915479   -2.299768
     22          1           0        2.049438    0.603434   -1.816443
     23          1           0       -0.005782    2.228211   -0.238133
     24          1           0        1.471310    2.793041   -0.992998
     25          1           0        1.674493    2.505006    1.511922
     26          1           0        2.849952    1.545935    0.619132
     27          1           0        0.212379    0.477384    1.774667
     28          1           0        1.822301    0.179160    2.427221
     29          1           0        0.975756   -1.726033    1.044135
 ---------------------------------------------------------------------

 SCF Done:  E(UB3LYP) =  -844.431753979     A.U. after   29 cycles

 The electronic state is 2-A.
 Alpha  occ. eigenvalues --  -88.74183 -14.22334 -10.12858 -10.12603 -10.12157
 Alpha  occ. eigenvalues --  -10.09814 -10.08614 -10.08299 -10.07607 -10.07275
 Alpha  occ. eigenvalues --  -10.07035 -10.06102  -7.82815  -5.79226  -5.78828
 Alpha  occ. eigenvalues --   -5.78176  -0.82264  -0.76531  -0.71122  -0.67850
 Alpha  occ. eigenvalues --   -0.67378  -0.62576  -0.57325  -0.54430  -0.51945
 Alpha  occ. eigenvalues --   -0.48335  -0.46617  -0.41157  -0.40144  -0.37394
 Alpha  occ. eigenvalues --   -0.36620  -0.35953  -0.33978  -0.31729  -0.31409
 Alpha  occ. eigenvalues --   -0.31079  -0.30674  -0.29381  -0.27965  -0.27277
 Alpha  occ. eigenvalues --   -0.25913  -0.25758  -0.25090  -0.24954  -0.23868
 Alpha  occ. eigenvalues --   -0.22825  -0.22262  -0.22169  -0.20144  -0.13198
 Alpha  occ. eigenvalues --    0.04272
 Alpha virt. eigenvalues --    0.06729   0.07031   0.07496   0.08607   0.09171
 Alpha virt. eigenvalues --    0.09569   0.09732   0.09942   0.10391   0.11353
 Alpha virt. eigenvalues --    0.11589   0.12073   0.12319   0.12714   0.12909

  Beta  occ. eigenvalues --  -88.74178 -14.22323 -10.12851 -10.12596 -10.12157
  Beta  occ. eigenvalues --  -10.09782 -10.08587 -10.08282 -10.07579 -10.07255
  Beta  occ. eigenvalues --  -10.07010 -10.06072  -7.82810  -5.79218  -5.78822
  Beta  occ. eigenvalues --   -5.78172  -0.82245  -0.76502  -0.71081  -0.67811
  Beta  occ. eigenvalues --   -0.67339  -0.62530  -0.57269  -0.54369  -0.51886
  Beta  occ. eigenvalues --   -0.48254  -0.46558  -0.41104  -0.40114  -0.37352
  Beta  occ. eigenvalues --   -0.36584  -0.35917  -0.33933  -0.31685  -0.31370
  Beta  occ. eigenvalues --   -0.31033  -0.30637  -0.29351  -0.27925  -0.27253
  Beta  occ. eigenvalues --   -0.25877  -0.25714  -0.25045  -0.24907  -0.23832
  Beta  occ. eigenvalues --   -0.22779  -0.22217  -0.22135  -0.20102  -0.13183
  Beta virt. eigenvalues --    0.06616   0.07355   0.07716   0.08069   0.09016
  Beta virt. eigenvalues --    0.09504   0.09921   0.10305   0.10359   0.10575
  Beta virt. eigenvalues --    0.11561   0.11923   0.12356   0.12603   0.12995

 Mulliken charges and spin densities:
               1          2
     1  C    0.784782  -1.305439
     2  C    0.035850  -0.428544
     3  C   -0.077821  -0.148411
     4  S   -0.303854   0.115683
     5  C   -0.289631   0.665026
     6  C    0.406895  -1.269186
     7  C    0.091153  -0.208893
     8  C    0.583756  -1.205717
     9  C   -0.267485  -0.081860
    10  C    0.479358   0.225462
    11  C    0.075250  -0.656582
    12  N   -0.324347   0.028758
    13  H   -0.044438   0.177292
    14  H   -0.150408   0.291013
    15  H   -0.290500   0.432716
    16  H   -0.096524   0.231963
    17  H   -0.498707   0.667200
    18  H   -0.263855   0.470884
    19  H    0.350652  -0.205715
    20  H    0.252334   0.060212
    21  H    0.024058   0.169584
    22  H   -0.006205   0.183383
    23  H   -0.490852   0.647973
    24  H   -0.417957   0.599615
    25  H   -0.550297   0.739570
    26  H    0.239514  -0.078370
    27  H   -0.261623   0.440617
    28  H   -0.203337   0.394808
    29  H    0.214238   0.046962
 Sum of Mulliken charges =  -1.00000   1.00000

 Dipole moment (field-independent basis, Debye):
    X=              1.7546    Y=             -4.6486    Z=             -1.8503  Tot=              5.3020
 Quadrupole moment (field-independent basis, Debye-Ang):
   XX=           -161.4318   YY=           -129.0115   ZZ=           -120.7525
   XY=              8.5507   XZ=              3.0016   YZ=             -1.9518

 Summary of Natural Population Analysis:

                                       Natural Population
                Natural  -----------------------------------------------
    Atom  No    Charge         Core      Valence    Rydberg      Total
 -----------------------------------------------------------------------
      C    1   -0.28847      0.99966     2.28265    0.00616     3.28847
      C    2   -0.19489      0.99964     2.18591    0.00935     3.19489
      C    3   -0.24710      0.99959     2.23781    0.00970     3.24710
      S    4    0.08566      4.99959     2.89873    0.01601     7.91434
      C    5   -0.15572      0.99953     2.14216    0.01403     3.15572
      C    6   -0.19898      0.99959     2.18935    0.01004     3.19898
      C    7   -0.19389      0.99962     2.18478    0.00948     3.19389
      C    8   -0.19345      0.99962     2.18450    0.00932     3.19345
      C    9   -0.18475      0.99962     2.17504    0.01010     3.18475
      C   10   -0.16836      0.99948     2.15776    0.01112     3.16836
      C   11    0.16461      0.99964     1.81571    0.02003     2.83539
      N   12   -0.18892      0.99979     2.67743    0.01171     3.68892
      H   13    0.09939      0.00000     0.39948    0.00113     0.40061
      H   14    0.09824      0.00000     0.40083    0.00093     0.40176
      H   15    0.09972      0.00000     0.39902    0.00126     0.40028
      H   16    0.09594      0.00000     0.40284    0.00122     0.40406
      H   17    0.10455      0.00000     0.39341    0.00204     0.39545
      H   18    0.10426      0.00000     0.39341    0.00233     0.39574
      H   19    0.10071      0.00000     0.39657    0.00272     0.39929
      H   20    0.10911      0.00000     0.38987    0.00102     0.39089
      H   21    0.10839      0.00000     0.39062    0.00099     0.39161
      H   22    0.10296      0.00000     0.39566    0.00138     0.39704
      H   23    0.10034      0.00000     0.39674    0.00292     0.39966
      H   24    0.10202      0.00000     0.39663    0.00135     0.39798
      H   25    0.10625      0.00000     0.39225    0.00151     0.39375
      H   26    0.09615      0.00000     0.40246    0.00140     0.40385
      H   27    0.10627      0.00000     0.39180    0.00193     0.39373
      H   28    0.10420      0.00000     0.39435    0.00145     0.39580
      H   29    0.12575      0.00000     0.37248    0.00177     0.37425
 =======================================================================
   * Total *    0.00000     15.99536    33.84024    0.16439    50.00000

 Normal termination of Gaussian 16 at Wed Dec  9 17:12:05 2020.
