 Gaussian 16, Revision A.03,

 -----------------------------------------------------------
 # opt freq B3LYP/6-31G(d) empiricaldispersion=gd3bj scf=xqc
 -----------------------------------------------------------

 -------------------------------
 CID_133620042_JID_1566_neutraal
 -------------------------------
 Symbolic Z-matrix:
 Charge =  0 Multiplicity = 1

 SCF Done:  E(RB3LYP) =  -463.294156328     A.U. after   13 cycles
 SCF Done:  E(RB3LYP) =  -463.304283739     A.U. after   13 cycles
 SCF Done:  E(RB3LYP) =  -463.305298382     A.U. after   12 cycles
 SCF Done:  E(RB3LYP) =  -463.306531008     A.U. after   12 cycles
 SCF Done:  E(RB3LYP) =  -463.306938434     A.U. after   10 cycles
 SCF Done:  E(RB3LYP) =  -463.307383937     A.U. after   11 cycles
 SCF Done:  E(RB3LYP) =  -463.307537854     A.U. after   11 cycles
 SCF Done:  E(RB3LYP) =  -463.307819874     A.U. after   12 cycles
 SCF Done:  E(RB3LYP) =  -463.307917352     A.U. after   11 cycles
 SCF Done:  E(RB3LYP) =  -463.307971730     A.U. after   11 cycles
 SCF Done:  E(RB3LYP) =  -463.308321243     A.U. after   11 cycles
 SCF Done:  E(RB3LYP) =  -463.308318352     A.U. after    9 cycles
 SCF Done:  E(RB3LYP) =  -463.308327656     A.U. after   10 cycles
 SCF Done:  E(RB3LYP) =  -463.308328803     A.U. after    9 cycles
 SCF Done:  E(RB3LYP) =  -463.308329063     A.U. after    8 cycles
 SCF Done:  E(RB3LYP) =  -463.308329055     A.U. after    7 cycles
 Optimization completed.
    -- Stationary point found.

 1\1\GINC-NODE115\FOpt\RB3LYP\6-31G(d)\C9H18N2\VSC10255\08-Dec-2020\0\\
 # opt freq B3LYP/6-31G(d) empiricaldispersion=gd3bj scf=xqc\\CID_13362
 0042_JID_1566_neutraal\\0,1\C,1.0086657791,0.2281417084,-0.1216225851\
 C,0.9280552345,-0.4303693294,1.2584130349\N,0.9272595661,0.5026014883,
 2.3949577137\C,-0.2393382937,1.3866234066,2.4201521142\N,2.1812358826,
 1.1055617554,2.4697323023\C,2.4490284933,1.9497191899,3.3927144955\C,1
 .6428884459,2.3698192644,4.615685884\C,2.667608078,3.082311851,5.53139
 44988\C,4.0595466932,2.6206185025,5.0369088847\C,3.8471055293,2.520744

 Normal termination of Gaussian 16 at Tue Dec  8 20:37:53 2020.

 --------------------------------------------------------------------
 #N Geom=AllCheck Guess=TCheck SCRF=Check GenChk RB3LYP/6-31G(d) Freq
 --------------------------------------------------------------------

 Structure from the checkpoint file:  "JID_1566.chk"
 -------------------------------
 CID_133620042_JID_1566_neutraal
 -------------------------------
 Charge =  0 Multiplicity = 1

 SCF Done:  E(RB3LYP) =  -463.308329055     A.U. after    1 cycles

  Exact polarizability: 143.395   0.962  99.651  -6.208   0.640  88.179
 Approx polarizability: 177.422   3.796 141.801 -15.321   1.145 132.339

                      1                      2                      3
                      A                      A                      A
 Frequencies --     26.9014                79.1084                95.4035
 Red. masses --      2.9269                 2.8981                 2.7535
 Frc consts  --      0.0012                 0.0107                 0.0148
 IR Inten    --      0.4834                 0.5519                 0.1470

                      4                      5                      6
                      A                      A                      A
 Frequencies --    144.6424               164.5817               190.6047
 Red. masses --      1.5527                 2.5343                 2.2472
 Frc consts  --      0.0191                 0.0404                 0.0481
 IR Inten    --      0.8653                 3.2334                 1.8064

                      7                      8                      9
                      A                      A                      A
 Frequencies --    216.7271               227.9968               234.4206
 Red. masses --      1.7269                 1.1572                 1.3093
 Frc consts  --      0.0478                 0.0354                 0.0424
 IR Inten    --      2.8876                 0.1343                 1.5864

                     10                     11                     12
                      A                      A                      A
 Frequencies --    280.2814               357.1969               369.6953
 Red. masses --      1.6997                 1.9900                 2.7702
 Frc consts  --      0.0787                 0.1496                 0.2231
 IR Inten    --      0.4483                 0.4454                 1.5820

                     13                     14                     15
                      A                      A                      A
 Frequencies --    372.4116               427.4635               467.3714
 Red. masses --      1.9473                 2.1876                 3.2832
 Frc consts  --      0.1591                 0.2355                 0.4225
 IR Inten    --      1.3328                 2.1982                 5.2049

                     16                     17                     18
                      A                      A                      A
 Frequencies --    509.4475               533.8859               667.7911
 Red. masses --      3.9941                 2.7196                 2.8617
 Frc consts  --      0.6108                 0.4567                 0.7519
 IR Inten    --     23.7672                 2.4383                 6.7745

                     19                     20                     21
                      A                      A                      A
 Frequencies --    723.5035               787.2059               803.0042
 Red. masses --      3.4351                 2.0594                 1.3691
 Frc consts  --      1.0594                 0.7519                 0.5201
 IR Inten    --      2.7244                10.0913                 3.0580

                     22                     23                     24
                      A                      A                      A
 Frequencies --    811.4278               827.8809               853.1632
 Red. masses --      2.8606                 2.6772                 2.1306
 Frc consts  --      1.1097                 1.0811                 0.9137
 IR Inten    --      4.9369                 2.0050                 1.8608

                     25                     26                     27
                      A                      A                      A
 Frequencies --    922.5782               938.6163               953.5122
 Red. masses --      1.9259                 2.0162                 2.3447
 Frc consts  --      0.9658                 1.0465                 1.2560
 IR Inten    --      2.7219                 1.1400                 5.4851

                     28                     29                     30
                      A                      A                      A
 Frequencies --    975.1940              1013.3838              1034.6371
 Red. masses --      1.4584                 2.1390                 1.9023
 Frc consts  --      0.8171                 1.2942                 1.1998
 IR Inten    --      0.7739                 0.9057                29.4953

                     31                     32                     33
                      A                      A                      A
 Frequencies --   1051.2914              1069.8324              1077.2785
 Red. masses --      1.9658                 2.0514                 1.4037
 Frc consts  --      1.2800                 1.3833                 0.9598
 IR Inten    --     60.1750                19.4552                 5.3158

                     34                     35                     36
                      A                      A                      A
 Frequencies --   1112.6255              1128.2784              1149.5440
 Red. masses --      1.7644                 1.4030                 1.3345
 Frc consts  --      1.2869                 1.0523                 1.0390
 IR Inten    --     31.3189                 3.2986                 8.2676

                     37                     38                     39
                      A                      A                      A
 Frequencies --   1183.7924              1213.7381              1226.0226
 Red. masses --      1.2946                 3.5273                 1.4295
 Frc consts  --      1.0689                 3.0615                 1.2660
 IR Inten    --      3.1612                18.7526                 2.0201

                     40                     41                     42
                      A                      A                      A
 Frequencies --   1237.3472              1254.6607              1291.0431
 Red. masses --      2.1718                 1.4693                 2.2612
 Frc consts  --      1.9591                 1.3628                 2.2206
 IR Inten    --     15.6947                 0.2819                 5.5818

                     43                     44                     45
                      A                      A                      A
 Frequencies --   1293.5287              1311.0251              1355.5275
 Red. masses --      1.6683                 1.3026                 1.5215
 Frc consts  --      1.6447                 1.3191                 1.6471
 IR Inten    --      1.5874                 0.8675                 1.8532

                     46                     47                     48
                      A                      A                      A
 Frequencies --   1363.2169              1364.9299              1393.1547
 Red. masses --      1.4164                 1.4388                 1.4141
 Frc consts  --      1.5508                 1.5793                 1.6170
 IR Inten    --      4.0551                 0.8365                 9.1204

                     49                     50                     51
                      A                      A                      A
 Frequencies --   1400.7517              1428.4626              1441.9747
 Red. masses --      1.2803                 1.2758                 1.2657
 Frc consts  --      1.4801                 1.5338                 1.5506
 IR Inten    --     12.4067                24.1135                 6.1252

                     52                     53                     54
                      A                      A                      A
 Frequencies --   1473.0432              1500.9887              1504.0483
 Red. masses --      1.1516                 1.0685                 1.0933
 Frc consts  --      1.4723                 1.4183                 1.4572
 IR Inten    --      0.7183                 4.7716                 3.4561

                     55                     56                     57
                      A                      A                      A
 Frequencies --   1512.2518              1516.6168              1523.4153
 Red. masses --      1.0660                 1.0622                 1.0576
 Frc consts  --      1.4363                 1.4396                 1.4461
 IR Inten    --      2.1616                 1.6180                 9.3169

                     58                     59                     60
                      A                      A                      A
 Frequencies --   1527.4734              1532.6875              1536.2026
 Red. masses --      1.0514                 1.0549                 1.0785
 Frc consts  --      1.4454                 1.4601                 1.4995
 IR Inten    --      1.2230                 3.2267                 1.2808

                     61                     62                     63
                      A                      A                      A
 Frequencies --   1537.9801              1552.0021              1730.1552
 Red. masses --      1.0647                 1.0476                11.1447
 Frc consts  --      1.4839                 1.4867                19.6556
 IR Inten    --      2.5426                14.8748                 5.1731

                     64                     65                     66
                      A                      A                      A
 Frequencies --   3005.1772              3017.4582              3043.0793
 Red. masses --      1.0542                 1.0709                 1.0376
 Frc consts  --      5.6094                 5.7449                 5.6614
 IR Inten    --     44.6784                30.9290                22.4876

                     67                     68                     69
                      A                      A                      A
 Frequencies --   3047.3533              3051.0078              3052.7274
 Red. masses --      1.0625                 1.0707                 1.0364
 Frc consts  --      5.8132                 5.8721                 5.6903
 IR Inten    --      8.3907                16.0043                27.8942

                     70                     71                     72
                      A                      A                      A
 Frequencies --   3062.8075              3066.7120              3089.0286
 Red. masses --      1.0649                 1.0808                 1.0953
 Frc consts  --      5.8857                 5.9887                 6.1576
 IR Inten    --     48.0544                55.3390                14.3437

                     73                     74                     75
                      A                      A                      A
 Frequencies --   3103.9462              3106.5760              3111.2019
 Red. masses --      1.1039                 1.1000                 1.1020
 Frc consts  --      6.2660                 6.2550                 6.2845
 IR Inten    --     36.6390                 7.1360                51.1419

                     76                     77                     78
                      A                      A                      A
 Frequencies --   3112.2109              3113.1983              3119.2611
 Red. masses --      1.1015                 1.0814                 1.0928
 Frc consts  --      6.2861                 6.1754                 6.2646
 IR Inten    --     24.8805                39.6726                20.6745

                     79                     80                     81
                      A                      A                      A
 Frequencies --   3122.9261              3139.5206              3146.9830
 Red. masses --      1.0999                 1.1029                 1.1030
 Frc consts  --      6.3204                 6.4046                 6.4362
 IR Inten    --     56.3124                30.4331                28.0804

 - Thermochemistry -
 -------------------
 Temperature   298.150 Kelvin.  Pressure   1.00000 Atm.
 Atom     1 has atomic number  6 and mass  12.00000

 Molecular mass:   154.14700 amu.
 Principal axes and moments of inertia in atomic units:
                           1         2         3
     Eigenvalues --   775.304013165.396503460.95922
           X            0.99997  -0.00204   0.00774
           Y            0.00212   0.99995  -0.01013
           Z           -0.00772   0.01014   0.99992
 This molecule is an asymmetric top.
 Rotational symmetry number  1.
 Warning -- assumption of classical behavior for rotation
           may cause significant error
 Rotational temperatures (Kelvin)      0.11172     0.02736     0.02503
 Rotational constants (GHZ):           2.32779     0.57015     0.52146
 Zero-point vibrational energy     695724.8 (Joules/Mol)
                                  166.28222 (Kcal/Mol)
 Warning -- explicit consideration of  17 degrees of freedom as
           vibrations may cause significant error
 Vibrational temperatures:     38.71   113.82   137.26   208.11   236.80
          (Kelvin)            274.24   311.82   328.04   337.28   403.26
                              513.93   531.91   535.82   615.02   672.44
                              732.98   768.14   960.80  1040.96  1132.61
                             1155.34  1167.46  1191.14  1227.51  1327.38
                             1350.46  1371.89  1403.09  1458.03  1488.61
                             1512.57  1539.25  1549.96  1600.82  1623.34
                             1653.94  1703.21  1746.30  1763.97  1780.27
                             1805.18  1857.52  1861.10  1886.27  1950.30
                             1961.37  1963.83  2004.44  2015.37  2055.24
                             2074.68  2119.38  2159.59  2163.99  2175.79
                             2182.07  2191.85  2197.69  2205.20  2210.25
                             2212.81  2232.98  2489.31  4323.78  4341.45
                             4378.31  4384.46  4389.72  4392.19  4406.70
                             4412.31  4444.42  4465.89  4469.67  4476.33
                             4477.78  4479.20  4487.92  4493.19  4517.07
                             4527.81

 Zero-point correction=                           0.264988 (Hartree/Particle)
 Thermal correction to Energy=                    0.277275
 Thermal correction to Enthalpy=                  0.278219
 Thermal correction to Gibbs Free Energy=         0.226429
 Sum of electronic and zero-point Energies=           -463.043341
 Sum of electronic and thermal Energies=              -463.031055
 Sum of electronic and thermal Enthalpies=            -463.030110
 Sum of electronic and thermal Free Energies=         -463.081900

                     E (Thermal)             CV                S
                      KCal/Mol        Cal/Mol-Kelvin    Cal/Mol-Kelvin
 Total                  173.992             46.308            109.001
 Electronic               0.000              0.000              0.000
 Translational            0.889              2.981             41.008
 Rotational               0.889              2.981             30.519
 Vibrational            172.215             40.347             37.474
 Vibration     1          0.593              1.984              6.046
 Vibration     2          0.600              1.963              3.913
 Vibration     3          0.603              1.952              3.546
 Vibration     4          0.616              1.908              2.742
 Vibration     5          0.623              1.886              2.496
 Vibration     6          0.634              1.853              2.222
 Vibration     7          0.646              1.816              1.986
 Vibration     8          0.651              1.798              1.895
 Vibration     9          0.654              1.788              1.845
 Vibration    10          0.680              1.710              1.532
 Vibration    11          0.732              1.560              1.134
 Vibration    12          0.742              1.534              1.081
 Vibration    13          0.744              1.529              1.070
 Vibration    14          0.789              1.410              0.867
 Vibration    15          0.825              1.322              0.745
 Vibration    16          0.865              1.229              0.635
 Vibration    17          0.889              1.175              0.579

 Optimization completed.
    -- Stationary point found.

 1\1\GINC-NODE115\Freq\RB3LYP\6-31G(d)\C9H18N2\VSC10255\08-Dec-2020\0\\
 #N Geom=AllCheck Guess=TCheck SCRF=Check GenChk RB3LYP/6-31G(d) Freq\\
 CID_133620042_JID_1566_neutraal\\0,1\C,1.0086657791,0.2281417084,-0.12
 16225851\C,0.9280552345,-0.4303693294,1.2584130349\N,0.9272595661,0.50
 26014883,2.3949577137\C,-0.2393382937,1.3866234066,2.4201521142\N,2.18
 12358826,1.1055617554,2.4697323023\C,2.4490284933,1.9497191899,3.39271
 44955\C,1.6428884459,2.3698192644,4.615685884\C,2.667608078,3.08231185
 1,5.5313944988\C,4.0595466932,2.6206185025,5.0369088847\C,3.8471055293

 Normal termination of Gaussian 16 at Tue Dec  8 20:45:14 2020.

 ----------------------------------------------------------------------
 # B3LYP/6-311++G(d,p) empiricaldispersion=gd3bj scf=xqc pop=npa geom=c
 heck
 ----------------------------------------------------------------------

 ---------------------------------------
 CID_133620042_JID_1566_Energie_neutraal
 ---------------------------------------
 Structure from the checkpoint file:  "JID_1566.chk"
 Charge =  0 Multiplicity = 1

 SCF Done:  E(RB3LYP) =  -463.435156292     A.U. after   13 cycles
 Normal termination of Gaussian 16 at Tue Dec  8 20:50:10 2020.

 ----------------------------------------------------------------------
 # B3LYP/6-311++G(d,p) empiricaldispersion=gd3bj scf=xqc pop=npa geom=c
 heck
 ----------------------------------------------------------------------

 -------------------------------------
 CID_133620042_JID_1566_Energie_kation
 -------------------------------------
 Structure from the checkpoint file:  "JID_1566.chk"
 Charge =  1 Multiplicity = 2

 SCF Done:  E(UB3LYP) =  -463.164607515     A.U. after   19 cycles
 Normal termination of Gaussian 16 at Tue Dec  8 20:56:15 2020.
 Gaussian 16:  ES64L-G16RevA.03 25-Dec-2016

 ------------------------------------
 CID_133620042_JID_1566_Energie_anion
 ------------------------------------
 Structure from the checkpoint file:  "JID_1566.chk"
 Charge = -1 Multiplicity = 2

                         Standard orientation:
 ---------------------------------------------------------------------
 Center     Atomic      Atomic             Coordinates (Angstroms)
 Number     Number       Type             X           Y           Z
 ---------------------------------------------------------------------
      1          6           0       -3.632118   -0.899241   -0.566223
      2          6           0       -2.883009   -0.573887    0.729004
      3          7           0       -1.678943    0.253360    0.561497
      4          6           0       -1.961348    1.591291    0.038747
      5          7           0       -0.717977   -0.499767   -0.110033
      6          6           0        0.437582   -0.013066   -0.363051
      7          6           0        1.078734    1.297536    0.076551
      8          6           0        2.589586    1.103360   -0.198840
      9          6           0        2.798640   -0.425728   -0.314412
     10          6           0        1.498467   -0.880803   -1.008470
     11          6           0        2.964003   -1.087479    1.057862
     12          1           0       -4.033007    0.003012   -1.042036
     13          1           0       -4.473056   -1.572946   -0.366104
     14          1           0       -2.953793   -1.388936   -1.271409
     15          1           0       -3.537387   -0.050183    1.435904
     16          1           0       -2.557826   -1.499445    1.211751
     17          1           0       -1.232539    2.324569    0.389499
     18          1           0       -1.973696    1.610707   -1.062315
     19          1           0       -2.943804    1.903979    0.402252
     20          1           0        0.684690    2.169878   -0.454791
     21          1           0        0.859458    1.454044    1.140869
     22          1           0        3.219012    1.554027    0.575835
     23          1           0        2.854392    1.581082   -1.149631
     24          1           0        3.678459   -0.651395   -0.928247
     25          1           0        1.271554   -1.944540   -0.896120
     26          1           0        1.558833   -0.663257   -2.085634
     27          1           0        3.075646   -2.173340    0.959932
     28          1           0        3.847934   -0.700813    1.578299
     29          1           0        2.090346   -0.903487    1.694695
 ---------------------------------------------------------------------

 SCF Done:  E(UB3LYP) =  -463.419707585     A.U. after   30 cycles

 The electronic state is 2-A.
 Alpha  occ. eigenvalues --  -14.23279 -14.21439 -10.09320 -10.09112 -10.08341
 Alpha  occ. eigenvalues --  -10.06807 -10.06428 -10.05908 -10.05859 -10.05691
 Alpha  occ. eigenvalues --  -10.05493  -0.88375  -0.75729  -0.70956  -0.64220
 Alpha  occ. eigenvalues --   -0.62991  -0.59931  -0.57413  -0.54031  -0.49887
 Alpha  occ. eigenvalues --   -0.44944  -0.42492  -0.39786  -0.37225  -0.36729
 Alpha  occ. eigenvalues --   -0.34243  -0.33747  -0.32962  -0.30500  -0.30324
 Alpha  occ. eigenvalues --   -0.29703  -0.28741  -0.27655  -0.26919  -0.26785
 Alpha  occ. eigenvalues --   -0.24577  -0.24150  -0.23021  -0.22217  -0.21894
 Alpha  occ. eigenvalues --   -0.20895  -0.15732  -0.09799   0.04581
 Alpha virt. eigenvalues --    0.06474   0.07653   0.07948   0.08923   0.09181
 Alpha virt. eigenvalues --    0.09287   0.10421   0.10670   0.11118   0.11587
 Alpha virt. eigenvalues --    0.11728   0.12298   0.12444   0.13266   0.14305

  Beta  occ. eigenvalues --  -14.23277 -14.21424 -10.09304 -10.09101 -10.08298
  Beta  occ. eigenvalues --  -10.06793 -10.06408 -10.05883 -10.05846 -10.05671
  Beta  occ. eigenvalues --  -10.05470  -0.88354  -0.75694  -0.70925  -0.64185
  Beta  occ. eigenvalues --   -0.62946  -0.59879  -0.57365  -0.53971  -0.49841
  Beta  occ. eigenvalues --   -0.44883  -0.42434  -0.39728  -0.37176  -0.36700
  Beta  occ. eigenvalues --   -0.34213  -0.33710  -0.32926  -0.30459  -0.30283
  Beta  occ. eigenvalues --   -0.29669  -0.28703  -0.27618  -0.26878  -0.26755
  Beta  occ. eigenvalues --   -0.24555  -0.24115  -0.22987  -0.22168  -0.21852
  Beta  occ. eigenvalues --   -0.20850  -0.15679  -0.09761
  Beta virt. eigenvalues --    0.06770   0.07338   0.08306   0.08526   0.09439
  Beta virt. eigenvalues --    0.09649   0.09700   0.10777   0.11150   0.11573
  Beta virt. eigenvalues --    0.11911   0.12048   0.12656   0.12869   0.13432

 Mulliken charges and spin densities:
               1          2
     1  C    0.226226  -0.680342
     2  C   -0.373288   0.109680
     3  N    0.057115   0.234803
     4  C    0.763260  -1.186915
     5  N   -0.086212   0.005651
     6  C   -0.404346   0.255372
     7  C    0.379038  -0.580586
     8  C    1.171354  -1.913959
     9  C   -1.086320   1.596214
    10  C    0.030172  -0.659196
    11  C    0.774421  -1.444463
    12  H   -0.068605   0.198370
    13  H   -0.106862   0.228468
    14  H    0.038470   0.121982
    15  H   -0.090691   0.244184
    16  H    0.110490   0.029491
    17  H   -0.425781   0.579310
    18  H   -0.138584   0.307934
    19  H   -0.365452   0.523191
    20  H    0.004046   0.146448
    21  H    0.019686   0.168732
    22  H   -0.202127   0.354417
    23  H   -0.328511   0.487351
    24  H   -0.603853   0.827397
    25  H    0.057543   0.108554
    26  H   -0.140385   0.305918
    27  H   -0.029964   0.146084
    28  H   -0.154923   0.290751
    29  H   -0.025917   0.195157
 Sum of Mulliken charges =  -1.00000   1.00000

 Dipole moment (field-independent basis, Debye):
    X=             -1.8174    Y=             -2.8342    Z=              1.6825  Tot=              3.7638
 Quadrupole moment (field-independent basis, Debye-Ang):
   XX=           -143.7937   YY=           -110.4710   ZZ=           -103.5006
   XY=              4.2524   XZ=              3.2172   YZ=              0.6877

 Summary of Natural Population Analysis:

                                       Natural Population
                Natural  -----------------------------------------------
    Atom  No    Charge         Core      Valence    Rydberg      Total
 -----------------------------------------------------------------------
      C    1   -0.29900      0.99966     2.29528    0.00406     3.29900
      C    2   -0.07985      0.99962     2.06833    0.01190     3.07985
      N    3   -0.18018      0.99972     2.66610    0.01437     3.68018
      C    4   -0.18994      0.99963     2.18047    0.00984     3.18994
      N    5   -0.15476      0.99961     2.64216    0.01299     3.65476
      C    6    0.12978      0.99960     1.85434    0.01628     2.87022
      C    7   -0.23079      0.99959     2.22199    0.00921     3.23079
      C    8   -0.18671      0.99963     2.17801    0.00907     3.18671
      C    9   -0.11120      0.99961     2.10075    0.01084     3.11120
      C   10   -0.20574      0.99958     2.19610    0.01005     3.20574
      C   11   -0.28641      0.99965     2.28005    0.00671     3.28641
      H   12    0.09679      0.00000     0.40205    0.00116     0.40321
      H   13    0.09553      0.00000     0.40330    0.00116     0.40447
      H   14    0.10575      0.00000     0.39297    0.00128     0.39425
      H   15    0.09044      0.00000     0.40853    0.00102     0.40956
      H   16    0.09646      0.00000     0.40224    0.00130     0.40354
      H   17    0.09773      0.00000     0.40045    0.00183     0.40227
      H   18    0.09028      0.00000     0.40812    0.00160     0.40972
      H   19    0.09835      0.00000     0.40022    0.00143     0.40165
      H   20    0.11307      0.00000     0.38502    0.00191     0.38693
      H   21    0.10592      0.00000     0.39262    0.00146     0.39408
      H   22    0.09868      0.00000     0.40017    0.00115     0.40132
      H   23    0.10045      0.00000     0.39738    0.00217     0.39955
      H   24    0.09882      0.00000     0.39905    0.00213     0.40118
      H   25    0.10624      0.00000     0.39262    0.00114     0.39376
      H   26    0.10593      0.00000     0.39243    0.00165     0.39407
      H   27    0.09783      0.00000     0.40131    0.00087     0.40217
      H   28    0.09815      0.00000     0.40092    0.00094     0.40185
      H   29    0.09840      0.00000     0.40034    0.00126     0.40160
 =======================================================================
   * Total *    0.00000     10.99590    31.86333    0.14078    43.00000

 Normal termination of Gaussian 16 at Tue Dec  8 21:06:51 2020.
