 Gaussian 16, Revision A.03,

 -----------------------------------------------------------
 # opt freq B3LYP/6-31G(d) empiricaldispersion=gd3bj scf=xqc
 -----------------------------------------------------------

 -------------------------------
 CID_131410928_JID_4613_neutraal
 -------------------------------
 Symbolic Z-matrix:
 Charge =  0 Multiplicity = 1

 SCF Done:  E(RB3LYP) =  -1028.21439940     A.U. after   15 cycles
 SCF Done:  E(RB3LYP) =  -1028.22013113     A.U. after   12 cycles
 SCF Done:  E(RB3LYP) =  -1028.22101545     A.U. after   11 cycles
 SCF Done:  E(RB3LYP) =  -1028.22128231     A.U. after   12 cycles
 SCF Done:  E(RB3LYP) =  -1028.22123660     A.U. after   12 cycles
 SCF Done:  E(RB3LYP) =  -1028.22139124     A.U. after   11 cycles
 SCF Done:  E(RB3LYP) =  -1028.22143387     A.U. after   11 cycles
 SCF Done:  E(RB3LYP) =  -1028.22144089     A.U. after    9 cycles
 SCF Done:  E(RB3LYP) =  -1028.22144186     A.U. after    8 cycles
 SCF Done:  E(RB3LYP) =  -1028.22144232     A.U. after    8 cycles
 SCF Done:  E(RB3LYP) =  -1028.22144244     A.U. after    7 cycles
 Optimization completed.
    -- Stationary point found.
 Normal termination of Gaussian 16 at Thu Dec 10 10:11:13 2020.

 --------------------------------------------------------------------
 #N Geom=AllCheck Guess=TCheck SCRF=Check GenChk RB3LYP/6-31G(d) Freq
 --------------------------------------------------------------------

 Structure from the checkpoint file:  "JID_4613.chk"
 -------------------------------
 CID_131410928_JID_4613_neutraal
 -------------------------------
 Charge =  0 Multiplicity = 1

 SCF Done:  E(RB3LYP) =  -1028.22144244     A.U. after    1 cycles

  Exact polarizability: 179.792  -1.039 128.998  -3.242   4.103  75.190
 Approx polarizability: 247.931  -6.669 223.371  -7.012  15.156 113.963

                      1                      2                      3
                      A                      A                      A
 Frequencies --     45.1540                79.0633                90.5720
 Red. masses --      4.1385                 4.0605                 3.9169
 Frc consts  --      0.0050                 0.0150                 0.0189
 IR Inten    --      3.0417                 1.1021                 0.0744

                      4                      5                      6
                      A                      A                      A
 Frequencies --     98.1292               130.4204               154.5824
 Red. masses --      5.3568                 1.4022                 2.6783
 Frc consts  --      0.0304                 0.0141                 0.0377
 IR Inten    --      3.0215                 0.5916                 1.3279

                      7                      8                      9
                      A                      A                      A
 Frequencies --    208.8197               232.9188               240.6930
 Red. masses --      1.8639                 1.8008                 4.2303
 Frc consts  --      0.0479                 0.0576                 0.1444
 IR Inten    --      3.2974                 0.9630                 3.5717

                     10                     11                     12
                      A                      A                      A
 Frequencies --    255.8636               321.9256               341.6383
 Red. masses --      4.2964                 3.6736                 3.7259
 Frc consts  --      0.1657                 0.2243                 0.2562
 IR Inten    --      0.1994                 6.2325                 7.0645

                     13                     14                     15
                      A                      A                      A
 Frequencies --    352.2515               382.4549               385.5674
 Red. masses --      3.6873                 3.0858                 7.0862
 Frc consts  --      0.2696                 0.2659                 0.6207
 IR Inten    --      9.3002                 3.9294                15.8299

                     16                     17                     18
                      A                      A                      A
 Frequencies --    423.7883               518.0264               544.6795
 Red. masses --      4.6558                 5.2039                 6.0478
 Frc consts  --      0.4927                 0.8228                 1.0571
 IR Inten    --     14.9835                 1.3345                22.0607

                     19                     20                     21
                      A                      A                      A
 Frequencies --    574.2035               596.3484               612.2118
 Red. masses --      2.1029                 5.4534                 4.2510
 Frc consts  --      0.4085                 1.1427                 0.9387
 IR Inten    --     48.5361                10.7407                 5.9911

                     22                     23                     24
                      A                      A                      A
 Frequencies --    662.7356               687.6459               720.6765
 Red. masses --      2.4771                 4.3478                 2.3107
 Frc consts  --      0.6410                 1.2113                 0.7071
 IR Inten    --      1.9244                 3.1550                24.7884

                     25                     26                     27
                      A                      A                      A
 Frequencies --    753.2362               794.5663               824.1741
 Red. masses --      9.5872                 3.1402                 4.1271
 Frc consts  --      3.2048                 1.1681                 1.6517
 IR Inten    --     14.8915                15.5981                24.8280

                     28                     29                     30
                      A                      A                      A
 Frequencies --    882.6658               947.4465               958.0478
 Red. masses --      2.9300                 3.8047                 2.1685
 Frc consts  --      1.3450                 2.0122                 1.1727
 IR Inten    --      8.9539                60.2371                27.6953

                     31                     32                     33
                      A                      A                      A
 Frequencies --   1032.1658              1052.2001              1078.9999
 Red. masses --      1.7156                 2.5364                 3.2534
 Frc consts  --      1.0769                 1.6545                 2.2317
 IR Inten    --     25.9128                23.1051                61.0419

                     34                     35                     36
                      A                      A                      A
 Frequencies --   1119.1382              1139.3881              1149.4535
 Red. masses --      2.5949                 2.1916                 2.8462
 Frc consts  --      1.9149                 1.6763                 2.2156
 IR Inten    --     19.4906                 2.2004                25.8942

                     37                     38                     39
                      A                      A                      A
 Frequencies --   1172.9554              1186.0717              1199.6334
 Red. masses --      2.6793                 1.2719                 3.2119
 Frc consts  --      2.1719                 1.0542                 2.7234
 IR Inten    --     30.8503                 0.8201                78.2249

                     40                     41                     42
                      A                      A                      A
 Frequencies --   1229.5506              1251.4034              1298.3446
 Red. masses --      2.0069                 1.4369                 1.5837
 Frc consts  --      1.7876                 1.3258                 1.5729
 IR Inten    --    157.3014                96.4126                82.4968

                     43                     44                     45
                      A                      A                      A
 Frequencies --   1312.9863              1338.3689              1374.4709
 Red. masses --      1.4815                 1.4992                 3.5467
 Frc consts  --      1.5048                 1.5822                 3.9477
 IR Inten    --      8.2906                 9.3035               426.9474

                     46                     47                     48
                      A                      A                      A
 Frequencies --   1389.1781              1436.3886              1448.7564
 Red. masses --      1.6875                 1.7070                 1.7072
 Frc consts  --      1.9187                 2.0750                 2.1111
 IR Inten    --     19.6267                 8.4834                10.4551

                     49                     50                     51
                      A                      A                      A
 Frequencies --   1491.6022              1501.5484              1512.2105
 Red. masses --      1.2589                 1.5557                 1.0482
 Frc consts  --      1.6502                 2.0667                 1.4123
 IR Inten    --      3.9795                 8.1069                 5.6111

                     52                     53                     54
                      A                      A                      A
 Frequencies --   1517.1684              1524.5992              1525.7156
 Red. masses --      1.0561                 1.0520                 1.0571
 Frc consts  --      1.4323                 1.4407                 1.4498
 IR Inten    --      5.8970                 5.0324                20.1586

                     55                     56                     57
                      A                      A                      A
 Frequencies --   1530.7441              1577.9156              1667.2166
 Red. masses --      1.1129                 6.7010                 6.6261
 Frc consts  --      1.5364                 9.8301                10.8516
 IR Inten    --      4.3805               329.3547                 7.9302

                     58                     59                     60
                      A                      A                      A
 Frequencies --   1771.4525              3004.7902              3050.3565
 Red. masses --     11.5686                 1.0694                 1.0437
 Frc consts  --     21.3890                 5.6888                 5.7215
 IR Inten    --    183.5229                61.1743                31.6489

                     61                     62                     63
                      A                      A                      A
 Frequencies --   3072.9617              3082.1624              3089.5171
 Red. masses --      1.0298                 1.0876                 1.0921
 Frc consts  --      5.7294                 6.0874                 6.1416
 IR Inten    --     43.5358                10.5462                39.8918

                     64                     65                     66
                      A                      A                      A
 Frequencies --   3125.3973              3145.4156              3157.3343
 Red. masses --      1.0936                 1.1073                 1.1030
 Frc consts  --      6.2941                 6.4547                 6.4786
 IR Inten    --     21.3456                22.7943                14.2411

                     67                     68                     69
                      A                      A                      A
 Frequencies --   3181.0441              3293.9479              3575.4600
 Red. masses --      1.1067                 1.0975                 1.0757
 Frc consts  --      6.5982                 7.0159                 8.1020
 IR Inten    --     20.7224                 0.9372                 7.2359

 - Thermochemistry -
 -------------------
 Temperature   298.150 Kelvin.  Pressure   1.00000 Atm.
 Atom     1 has atomic number  6 and mass  12.00000

 Molecular mass:   213.04597 amu.
 Principal axes and moments of inertia in atomic units:
                           1         2         3
     Eigenvalues --  1415.429964453.835565507.59340
           X            0.99999   0.00309   0.00286
           Y           -0.00304   0.99983  -0.01802
           Z           -0.00292   0.01801   0.99983
 This molecule is an asymmetric top.
 Rotational symmetry number  1.
 Warning -- assumption of classical behavior for rotation
           may cause significant error
 Rotational temperatures (Kelvin)      0.06119     0.01945     0.01573
 Rotational constants (GHZ):           1.27505     0.40521     0.32768
 Zero-point vibrational energy     516957.4 (Joules/Mol)
                                  123.55577 (Kcal/Mol)
 Warning -- explicit consideration of  21 degrees of freedom as
           vibrations may cause significant error
 Vibrational temperatures:     64.97   113.75   130.31   141.19   187.65
          (Kelvin)            222.41   300.44   335.12   346.30   368.13
                              463.18   491.54   506.81   550.27   554.75
                              609.74   745.32   783.67   826.15   858.01
                              880.84   953.53   989.37  1036.89  1083.74
                             1143.20  1185.80  1269.96  1363.16  1378.42
                             1485.06  1513.88  1552.44  1610.19  1639.33
                             1653.81  1687.62  1706.49  1726.00  1769.05
                             1800.49  1868.03  1889.09  1925.61  1977.56
                             1998.72  2066.64  2084.44  2146.08  2160.39
                             2175.73  2182.87  2193.56  2195.16  2202.40
                             2270.27  2398.75  2548.73  4323.22  4388.78
                             4421.31  4434.54  4445.13  4496.75  4525.55
                             4542.70  4576.81  4739.26  5144.29

 Zero-point correction=                           0.196899 (Hartree/Particle)
 Thermal correction to Energy=                    0.210225
 Thermal correction to Enthalpy=                  0.211169
 Thermal correction to Gibbs Free Energy=         0.156593
 Sum of electronic and zero-point Energies=          -1028.024544
 Sum of electronic and thermal Energies=             -1028.011218
 Sum of electronic and thermal Enthalpies=           -1028.010274
 Sum of electronic and thermal Free Energies=        -1028.064850

                     E (Thermal)             CV                S
                      KCal/Mol        Cal/Mol-Kelvin    Cal/Mol-Kelvin
 Total                  131.918             49.606            114.865
 Electronic               0.000              0.000              0.000
 Translational            0.889              2.981             41.972
 Rotational               0.889              2.981             31.918
 Vibrational            130.140             43.644             40.974
 Vibration     1          0.595              1.979              5.019
 Vibration     2          0.600              1.963              3.914
 Vibration     3          0.602              1.956              3.648
 Vibration     4          0.604              1.950              3.491
 Vibration     5          0.612              1.923              2.940
 Vibration     6          0.620              1.898              2.615
 Vibration     7          0.642              1.827              2.054
 Vibration     8          0.654              1.791              1.856
 Vibration     9          0.658              1.778              1.798
 Vibration    10          0.666              1.753              1.690
 Vibration    11          0.707              1.632              1.300
 Vibration    12          0.721              1.592              1.204
 Vibration    13          0.729              1.571              1.156
 Vibration    14          0.752              1.508              1.029
 Vibration    15          0.754              1.501              1.017
 Vibration    16          0.786              1.419              0.879
 Vibration    17          0.873              1.210              0.615
 Vibration    18          0.900              1.151              0.555
 Vibration    19          0.931              1.087              0.496
 Vibration    20          0.954              1.040              0.456
 Vibration    21          0.971              1.006              0.429

                           ! Non-Optimized Parameters !
 Normal termination of Gaussian 16 at Thu Dec 10 10:18:27 2020.

 ----------------------------------------------------------------------
 # B3LYP/6-311++G(d,p) empiricaldispersion=gd3bj scf=xqc pop=npa geom=c
 heck
 ----------------------------------------------------------------------

 ---------------------------------------
 CID_131410928_JID_4613_Energie_neutraal
 ---------------------------------------
 Structure from the checkpoint file:  "JID_4613.chk"
 Charge =  0 Multiplicity = 1

 SCF Done:  E(RB3LYP) =  -1028.42681381     A.U. after   16 cycles
 Normal termination of Gaussian 16 at Thu Dec 10 10:21:38 2020.

 ----------------------------------------------------------------------
 # B3LYP/6-311++G(d,p) empiricaldispersion=gd3bj scf=xqc pop=npa geom=c
 heck
 ----------------------------------------------------------------------

 -------------------------------------
 CID_131410928_JID_4613_Energie_kation
 -------------------------------------
 Structure from the checkpoint file:  "JID_4613.chk"
 Charge =  1 Multiplicity = 2

 SCF Done:  E(UB3LYP) =  -1028.14343110     A.U. after   26 cycles
 Normal termination of Gaussian 16 at Thu Dec 10 10:29:05 2020.
 Gaussian 16:  ES64L-G16RevA.03 25-Dec-2016

 ----------------------------------------------------------------------
 # B3LYP/6-311++G(d,p) empiricaldispersion=gd3bj scf=xqc pop=npa geom=c
 heck
 ----------------------------------------------------------------------

 ------------------------------------
 CID_131410928_JID_4613_Energie_anion
 ------------------------------------
 Structure from the checkpoint file:  "JID_4613.chk"
 Charge = -1 Multiplicity = 2

                         Standard orientation:
 ---------------------------------------------------------------------
 Center     Atomic      Atomic             Coordinates (Angstroms)
 Number     Number       Type             X           Y           Z
 ---------------------------------------------------------------------
      1          6           0        3.131069   -1.101559    1.341291
      2          6           0        2.721883   -1.031736   -0.129764
      3          6           0        3.057610    0.319290   -0.775553
      4          7           0        2.397899    1.415238   -0.065349
      5          6           0        1.005110    1.354840   -0.029585
      6          6           0        0.079061    2.350842    0.141854
      7          8           0       -1.184802    1.840007    0.168139
      8          6           0       -1.070736    0.484691    0.009031
      9          6           0        0.255635    0.131318   -0.113843
     10         16           0        0.931363   -1.465976   -0.365591
     11          6           0       -2.242436   -0.369756   -0.030718
     12          8           0       -2.171673   -1.573881   -0.218573
     13          8           0       -3.397927    0.302825    0.161779
     14          6           0       -4.576722   -0.513070    0.126014
     15          1           0        4.207117   -0.910317    1.442760
     16          1           0        2.913062   -2.088292    1.758463
     17          1           0        2.596732   -0.350187    1.927514
     18          1           0        3.241285   -1.808623   -0.700726
     19          1           0        4.137649    0.484075   -0.696483
     20          1           0        2.794281    0.286364   -1.844237
     21          1           0        2.756057    2.327277   -0.321281
     22          1           0        0.163191    3.420068    0.259696
     23          1           0       -4.671643   -1.011314   -0.842661
     24          1           0       -4.543519   -1.272916    0.911563
     25          1           0       -5.408935    0.172036    0.289174
 ---------------------------------------------------------------------

 SCF Done:  E(UB3LYP) =  -1028.42194159     A.U. after   33 cycles
 SCF Done:  E(UB3LYP) =  -1028.42194159     a.u. after    1 cycles

 The electronic state is 2-A.
 Alpha  occ. eigenvalues --  -88.73386 -19.05690 -19.04566 -18.97065 -14.20676
 Alpha  occ. eigenvalues --  -10.16129 -10.12407 -10.09978 -10.09546 -10.09515
 Alpha  occ. eigenvalues --  -10.09289 -10.09063 -10.07571 -10.05869  -7.81948
 Alpha  occ. eigenvalues --   -5.78328  -5.77966  -5.77343  -0.99187  -0.97643
 Alpha  occ. eigenvalues --   -0.88893  -0.82353  -0.70846  -0.68761  -0.65209
 Alpha  occ. eigenvalues --   -0.61093  -0.58925  -0.56802  -0.50607  -0.49549
 Alpha  occ. eigenvalues --   -0.45841  -0.42924  -0.41812  -0.37560  -0.37235
 Alpha  occ. eigenvalues --   -0.36483  -0.35877  -0.34549  -0.33529  -0.32598
 Alpha  occ. eigenvalues --   -0.32005  -0.30867  -0.29775  -0.28115  -0.27565
 Alpha  occ. eigenvalues --   -0.26210  -0.25466  -0.24693  -0.23853  -0.21349
 Alpha  occ. eigenvalues --   -0.19769  -0.19165  -0.17034  -0.15405  -0.09434
 Alpha  occ. eigenvalues --   -0.08777   0.04550
 Alpha virt. eigenvalues --    0.06473   0.07414   0.07844   0.09362   0.09601
 Alpha virt. eigenvalues --    0.10583   0.11204   0.11312   0.11580   0.12708
 Alpha virt. eigenvalues --    0.12935   0.13356   0.14477   0.15238   0.15799

  Beta  occ. eigenvalues --  -88.73382 -19.05541 -19.04512 -18.96854 -14.20649
  Beta  occ. eigenvalues --  -10.15965 -10.12410 -10.09968 -10.09517 -10.09474
  Beta  occ. eigenvalues --  -10.09176 -10.09098 -10.07406 -10.05860  -7.81944
  Beta  occ. eigenvalues --   -5.78330  -5.77967  -5.77326  -0.98961  -0.97438
  Beta  occ. eigenvalues --   -0.88573  -0.82309  -0.70742  -0.68598  -0.64974
  Beta  occ. eigenvalues --   -0.61015  -0.58860  -0.56715  -0.50315  -0.49417
  Beta  occ. eigenvalues --   -0.45722  -0.42821  -0.41711  -0.37280  -0.37109
  Beta  occ. eigenvalues --   -0.36380  -0.35769  -0.34366  -0.33041  -0.32452
  Beta  occ. eigenvalues --   -0.31941  -0.30767  -0.29674  -0.27873  -0.27034
  Beta  occ. eigenvalues --   -0.26156  -0.25325  -0.24595  -0.23782  -0.20990
  Beta  occ. eigenvalues --   -0.19701  -0.18583  -0.16604  -0.15212  -0.08795
  Beta  occ. eigenvalues --   -0.08342
  Beta virt. eigenvalues --    0.07294   0.07476   0.08549   0.08715   0.09800
  Beta virt. eigenvalues --    0.10081   0.10760   0.11408   0.11545   0.11681
  Beta virt. eigenvalues --    0.12835   0.13000   0.13610   0.14730   0.15229

 Mulliken charges and spin densities:
               1          2
     1  C   -0.319898  -0.376560
     2  C   -0.408454   0.680777
     3  C    1.207395  -1.694339
     4  N   -0.362442   0.278785
     5  C   -0.112580   0.088348
     6  C   -0.155977  -0.007187
     7  O   -0.114260   0.028248
     8  C    1.006853  -0.253595
     9  C    0.244345  -0.168125
    10  S    0.103353  -0.262588
    11  C   -0.667271  -0.092210
    12  O   -0.312193   0.063444
    13  O   -0.138099   0.007410
    14  C   -0.178950  -0.020916
    15  H    0.034563   0.079347
    16  H    0.060780   0.063849
    17  H    0.161648   0.021661
    18  H   -0.237752   0.503812
    19  H   -0.847180   1.043848
    20  H    0.011172   0.142585
    21  H   -0.353032   0.628751
    22  H   -0.073165   0.232871
    23  H    0.156965   0.010490
    24  H    0.163039   0.001648
    25  H    0.131139  -0.000354
 Sum of Mulliken charges =  -1.00000   1.00000

 Dipole moment (field-independent basis, Debye):
    X=             -5.7538    Y=             -1.5080    Z=              2.4729  Tot=              6.4417
 Quadrupole moment (field-independent basis, Debye-Ang):
   XX=           -143.9484   YY=           -123.8393   ZZ=           -107.6797
   XY=             -9.9079   XZ=              6.8494   YZ=              1.1533

 Summary of Natural Population Analysis:

                                       Natural Population
                Natural  -----------------------------------------------
    Atom  No    Charge         Core      Valence    Rydberg      Total
 -----------------------------------------------------------------------
      C    1   -0.29119      0.99963     2.28440    0.00716     3.29119
      C    2   -0.17254      0.99957     2.15774    0.01522     3.17254
      C    3   -0.08733      0.99958     2.07431    0.01344     3.08733
      N    4   -0.32605      0.99968     2.81302    0.01335     3.82605
      C    5    0.02446      0.99943     1.96380    0.01232     2.97554
      C    6    0.06509      0.99947     1.92049    0.01496     2.93491
      O    7   -0.21348      0.99986     3.20676    0.00686     4.21348
      C    8    0.08301      0.99931     1.90132    0.01636     2.91699
      C    9   -0.09308      0.99932     2.08389    0.00988     3.09308
      S   10    0.15709      4.99954     2.82413    0.01925     7.84291
      C   11    0.39251      0.99961     1.58588    0.02201     2.60749
      O   12   -0.30039      0.99988     3.29487    0.00565     4.30039
      O   13   -0.27239      0.99986     3.26500    0.00753     4.27239
      C   14   -0.10559      0.99961     2.09749    0.00848     3.10559
      H   15    0.09730      0.00000     0.40163    0.00107     0.40270
      H   16    0.09900      0.00000     0.40010    0.00090     0.40100
      H   17    0.10789      0.00000     0.39115    0.00096     0.39211
      H   18    0.10535      0.00000     0.39353    0.00112     0.39465
      H   19    0.10120      0.00000     0.39546    0.00334     0.39880
      H   20    0.08918      0.00000     0.40893    0.00189     0.41082
      H   21    0.18957      0.00000     0.30430    0.00613     0.31043
      H   22    0.09039      0.00000     0.40849    0.00112     0.40961
      H   23    0.08816      0.00000     0.41065    0.00119     0.41184
      H   24    0.08764      0.00000     0.41117    0.00119     0.41236
      H   25    0.08422      0.00000     0.41500    0.00078     0.41578
 =======================================================================
   * Total *    0.00000     17.99435    37.81348    0.19217    56.00000

 Normal termination of Gaussian 16 at Thu Dec 10 10:39:16 2020.
