 Gaussian 16, Revision A.03,

 -----------------------------------------------------------
 # opt freq B3LYP/6-31G(d) empiricaldispersion=gd3bj scf=xqc
 -----------------------------------------------------------

 ------------------------------
 CID_20222798_JID_2799_neutraal
 ------------------------------
 Symbolic Z-matrix:
 Charge =  0 Multiplicity = 1

 SCF Done:  E(RB3LYP) =  -2008.69692133     A.U. after   15 cycles
 SCF Done:  E(RB3LYP) =  -2008.71088960     A.U. after   15 cycles
 SCF Done:  E(RB3LYP) =  -2008.70799723     A.U. after   15 cycles
 SCF Done:  E(RB3LYP) =  -2008.71350864     A.U. after   14 cycles
 SCF Done:  E(RB3LYP) =  -2008.71507476     A.U. after   14 cycles
 SCF Done:  E(RB3LYP) =  -2008.71601127     A.U. after   13 cycles
 SCF Done:  E(RB3LYP) =  -2008.71613533     A.U. after   12 cycles
 SCF Done:  E(RB3LYP) =  -2008.71633977     A.U. after   12 cycles
 SCF Done:  E(RB3LYP) =  -2008.71640649     A.U. after   11 cycles
 SCF Done:  E(RB3LYP) =  -2008.71641634     A.U. after   11 cycles
 SCF Done:  E(RB3LYP) =  -2008.71642813     A.U. after    8 cycles
 SCF Done:  E(RB3LYP) =  -2008.71642814     A.U. after    7 cycles
 SCF Done:  E(RB3LYP) =  -2008.71642815     A.U. after    7 cycles
 SCF Done:  E(RB3LYP) =  -2008.71642816     A.U. after    7 cycles
 SCF Done:  E(RB3LYP) =  -2008.71642816     A.U. after    7 cycles
 Optimization completed.
    -- Stationary point found.
 Normal termination of Gaussian 16 at Wed Dec  9 18:03:51 2020.

 --------------------------------------------------------------------
 #N Geom=AllCheck Guess=TCheck SCRF=Check GenChk RB3LYP/6-31G(d) Freq
 --------------------------------------------------------------------

 Structure from the checkpoint file:  "JID_2799.chk"
 ------------------------------
 CID_20222798_JID_2799_neutraal
 ------------------------------
 Charge =  0 Multiplicity = 1

 SCF Done:  E(RB3LYP) =  -2008.71642816     A.U. after    1 cycles

  Exact polarizability: 154.260   9.681 140.372   4.659   0.377 111.880
 Approx polarizability: 204.569  19.594 233.888  18.599   0.599 199.672

                      1                      2                      3
                      A                      A                      A
 Frequencies --     17.3232                24.3739                36.3401
 Red. masses --      6.6348                 6.8419                 1.7301
 Frc consts  --      0.0012                 0.0024                 0.0013
 IR Inten    --      0.2744                 1.9805                 1.0389

                      4                      5                      6
                      A                      A                      A
 Frequencies --     48.5116                72.7917                87.5987
 Red. masses --      4.4330                 4.4306                 4.3219
 Frc consts  --      0.0061                 0.0138                 0.0195
 IR Inten    --      2.3495                 2.6821                 1.6314

                      7                      8                      9
                      A                      A                      A
 Frequencies --    106.1395               132.7857               139.1458
 Red. masses --      5.1519                 1.9556                 1.7193
 Frc consts  --      0.0342                 0.0203                 0.0196
 IR Inten    --      4.8568                 0.4437                 1.1173

                     10                     11                     12
                      A                      A                      A
 Frequencies --    155.6189               163.5420               209.0804
 Red. masses --      3.7216                12.0628                 5.6828
 Frc consts  --      0.0531                 0.1901                 0.1464
 IR Inten    --      2.8457                 0.7559                 2.6514

                     13                     14                     15
                      A                      A                      A
 Frequencies --    244.8774               263.2064               286.0943
 Red. masses --      8.3310                 5.7280                 7.2708
 Frc consts  --      0.2943                 0.2338                 0.3506
 IR Inten    --      3.4578                 3.1763                 0.6241

                     16                     17                     18
                      A                      A                      A
 Frequencies --    313.0565               403.2928               475.2241
 Red. masses --     11.6796                17.3646                18.5777
 Frc consts  --      0.6744                 1.6640                 2.4719
 IR Inten    --      6.3551                62.5971                97.8547

                     19                     20                     21
                      A                      A                      A
 Frequencies --    518.6631               526.6661               545.0214
 Red. masses --     22.7820                20.4237                12.7038
 Frc consts  --      3.6109                 3.3378                 2.2234
 IR Inten    --     30.5743                 4.6531                 3.3910

                     22                     23                     24
                      A                      A                      A
 Frequencies --    589.1969               651.9157               676.7767
 Red. masses --     14.2029                15.2799                 6.2305
 Frc consts  --      2.9050                 3.8261                 1.6814
 IR Inten    --     70.4050                10.2735                 0.1895

                     25                     26                     27
                      A                      A                      A
 Frequencies --    680.3467               715.0497               774.3071
 Red. masses --      6.0269                12.5947                15.3411
 Frc consts  --      1.6436                 3.7941                 5.4192
 IR Inten    --      0.3619                14.9171                83.5653

                     28                     29                     30
                      A                      A                      A
 Frequencies --    942.9027               990.3919               992.0807
 Red. masses --     13.9201                 1.2170                 1.1912
 Frc consts  --      7.2916                 0.7033                 0.6908
 IR Inten    --     81.2787                12.7010                 4.1077

                     31                     32                     33
                      A                      A                      A
 Frequencies --    995.4880               996.2172              1175.2367
 Red. masses --      1.2487                 1.2702                13.4479
 Frc consts  --      0.7291                 0.7428                10.9435
 IR Inten    --      2.2228                 9.6620                73.2141

                     34                     35                     36
                      A                      A                      A
 Frequencies --   1312.3138              1376.5141              1381.8747
 Red. masses --     12.0710                 1.1577                 1.1517
 Frc consts  --     12.2481                 1.2924                 1.2957
 IR Inten    --    872.7545                 5.9140                 3.7934

                     37                     38                     39
                      A                      A                      A
 Frequencies --   1478.0113              1489.3975              1502.0143
 Red. masses --      1.0532                 1.0511                 1.0531
 Frc consts  --      1.3555                 1.3737                 1.3998
 IR Inten    --      6.9961                10.0895                14.2242

                     40                     41                     42
                      A                      A                      A
 Frequencies --   1503.1297              1696.0772              2337.7504
 Red. masses --      1.0537                12.4097                12.6516
 Frc consts  --      1.4028                21.0331                40.7372
 IR Inten    --     12.8606               636.0661               173.5456

                     43                     44                     45
                      A                      A                      A
 Frequencies --   3076.9718              3081.5303              3167.9559
 Red. masses --      1.0297                 1.0329                 1.1044
 Frc consts  --      5.7441                 5.7787                 6.5300
 IR Inten    --      9.7312                 9.5315                 1.7432

                     46                     47                     48
                      A                      A                      A
 Frequencies --   3173.7089              3187.3326              3213.9330
 Red. masses --      1.1029                 1.1092                 1.1063
 Frc consts  --      6.5452                 6.6392                 6.7327
 IR Inten    --      1.7972                 2.2007                 0.2590

 - Thermochemistry -
 -------------------
 Temperature   298.150 Kelvin.  Pressure   1.00000 Atm.
 Atom     1 has atomic number  6 and mass  12.00000

 Molecular mass:   241.93121 amu.
 Principal axes and moments of inertia in atomic units:
                           1         2         3
     Eigenvalues --  2528.742525341.921276568.02727
           X            0.99996   0.00595  -0.00716
           Y           -0.00594   0.99998   0.00139
           Z            0.00717  -0.00134   0.99997
 This molecule is an asymmetric top.
 Rotational symmetry number  1.
 Warning -- assumption of classical behavior for rotation
           may cause significant error
 Rotational temperatures (Kelvin)      0.03425     0.01621     0.01319
 Rotational constants (GHZ):           0.71369     0.33784     0.27478
 Zero-point vibrational energy     286671.8 (Joules/Mol)
                                   68.51620 (Kcal/Mol)
 Warning -- explicit consideration of  22 degrees of freedom as
           vibrations may cause significant error
 Vibrational temperatures:     24.92    35.07    52.29    69.80   104.73
          (Kelvin)            126.04   152.71   191.05   200.20   223.90
                              235.30   300.82   352.32   378.70   411.63
                              450.42   580.25   683.74   746.24   757.76
                              784.16   847.72   937.96   973.73   978.87
                             1028.80  1114.06  1356.63  1424.95  1427.38
                             1432.29  1433.33  1690.90  1888.13  1980.50
                             1988.21  2126.53  2142.91  2161.06  2162.67
                             2440.28  3363.50  4427.08  4433.63  4557.98
                             4566.26  4585.86  4624.13

 Zero-point correction=                           0.109188 (Hartree/Particle)
 Thermal correction to Energy=                    0.124885
 Thermal correction to Enthalpy=                  0.125829
 Thermal correction to Gibbs Free Energy=         0.061651
 Sum of electronic and zero-point Energies=          -2008.607241
 Sum of electronic and thermal Energies=             -2008.591543
 Sum of electronic and thermal Enthalpies=           -2008.590599
 Sum of electronic and thermal Free Energies=        -2008.654777

                     E (Thermal)             CV                S
                      KCal/Mol        Cal/Mol-Kelvin    Cal/Mol-Kelvin
 Total                   78.367             50.521            135.074
 Electronic               0.000              0.000              0.000
 Translational            0.889              2.981             42.351
 Rotational               0.889              2.981             32.850
 Vibrational             76.589             44.559             59.872
 Vibration     1          0.593              1.986              6.920
 Vibration     2          0.593              1.985              6.242
 Vibration     3          0.594              1.982              5.449
 Vibration     4          0.595              1.978              4.877
 Vibration     5          0.599              1.967              4.076
 Vibration     6          0.601              1.958              3.713
 Vibration     7          0.605              1.944              3.338
 Vibration     8          0.613              1.921              2.905
 Vibration     9          0.615              1.914              2.816
 Vibration    10          0.620              1.896              2.602
 Vibration    11          0.623              1.887              2.508
 Vibration    12          0.642              1.827              2.052
 Vibration    13          0.660              1.771              1.767
 Vibration    14          0.670              1.740              1.640
 Vibration    15          0.684              1.700              1.497
 Vibration    16          0.701              1.649              1.346
 Vibration    17          0.769              1.463              0.951
 Vibration    18          0.832              1.305              0.723
 Vibration    19          0.874              1.209              0.613
 Vibration    20          0.882              1.191              0.595
 Vibration    21          0.900              1.151              0.555
 Vibration    22          0.946              1.055              0.469

                           ! Non-Optimized Parameters !
 Normal termination of Gaussian 16 at Wed Dec  9 18:07:24 2020.

 ----------------------------------------------------------------------
 # B3LYP/6-311++G(d,p) empiricaldispersion=gd3bj scf=xqc pop=npa geom=c
 heck
 ----------------------------------------------------------------------

 --------------------------------------
 CID_20222798_JID_2799_Energie_neutraal
 --------------------------------------
 Structure from the checkpoint file:  "JID_2799.chk"
 Charge =  0 Multiplicity = 1

 SCF Done:  E(RB3LYP) =  -2008.94567826     A.U. after   15 cycles
 Normal termination of Gaussian 16 at Wed Dec  9 18:09:07 2020.

 ----------------------------------------------------------------------
 # B3LYP/6-311++G(d,p) empiricaldispersion=gd3bj scf=xqc pop=npa geom=c
 heck
 ----------------------------------------------------------------------

 ------------------------------------
 CID_20222798_JID_2799_Energie_kation
 ------------------------------------
 Structure from the checkpoint file:  "JID_2799.chk"
 Charge =  1 Multiplicity = 2

 SCF Done:  E(UB3LYP) =  -2008.60966986     A.U. after   33 cycles
 SCF Done:  E(UB3LYP) =  -2008.60977317     a.u. after    4 cycles
 Normal termination of Gaussian 16 at Wed Dec  9 18:26:20 2020.
 Gaussian 16:  ES64L-G16RevA.03 25-Dec-2016

 ----------------------------------------------------------------------
 # B3LYP/6-311++G(d,p) empiricaldispersion=gd3bj scf=xqc pop=npa geom=c
 heck
 ----------------------------------------------------------------------

 -----------------------------------
 CID_20222798_JID_2799_Energie_anion
 -----------------------------------
 Structure from the checkpoint file:  "JID_2799.chk"
 Charge = -1 Multiplicity = 2

                         Standard orientation:
 ---------------------------------------------------------------------
 Center     Atomic      Atomic             Coordinates (Angstroms)
 Number     Number       Type             X           Y           Z
 ---------------------------------------------------------------------
      1          6           0       -3.933825   -0.206143    1.583613
      2         16           0       -2.811662   -1.220241    0.539524
      3         16           0       -2.449954   -0.030344   -1.058085
      4          8           0       -1.176726    1.063621   -0.518665
      5          6           0        0.107487    0.675269   -0.517529
      6          7           0        1.061050    1.479614   -0.207114
      7          6           0        0.815146    2.755187    0.098700
      8          7           0        0.734217    3.881647    0.395651
      9          8           0        0.302778   -0.604866   -0.818670
     10         16           0        1.948735   -1.200234   -1.068834
     11         16           0        2.775341   -1.448220    0.756020
     12          6           0        3.666623    0.117929    1.116043
     13          1           0       -4.195124   -0.828966    2.444278
     14          1           0       -4.836601    0.058647    1.030960
     15          1           0       -3.415344    0.691320    1.924563
     16          1           0        4.337017    0.368066    0.292799
     17          1           0        2.955003    0.924704    1.281876
     18          1           0        4.247833   -0.081475    2.021501
 ---------------------------------------------------------------------

 SCF Done:  E(UB3LYP) =  -2008.97565078     A.U. after   26 cycles

 The electronic state is 2-A.
 Alpha  occ. eigenvalues --  -88.76231 -88.75626 -88.75615 -88.75140 -19.04179
 Alpha  occ. eigenvalues --  -19.03766 -14.20639 -14.16847 -10.21733 -10.10426
 Alpha  occ. eigenvalues --  -10.09737 -10.08443  -7.84429  -7.84099  -7.83897
 Alpha  occ. eigenvalues --   -7.83619  -5.81062  -5.80576  -5.80550  -5.80512
 Alpha  occ. eigenvalues --   -5.80112  -5.80043  -5.80008  -5.79609  -5.79562
 Alpha  occ. eigenvalues --   -5.79486  -5.79035  -5.79027  -0.99734  -0.91429
 Alpha  occ. eigenvalues --   -0.83101  -0.75739  -0.70411  -0.69858  -0.61735
 Alpha  occ. eigenvalues --   -0.60765  -0.54525  -0.50743  -0.50327  -0.41705
 Alpha  occ. eigenvalues --   -0.40064  -0.36554  -0.33743  -0.33470  -0.32465
 Alpha  occ. eigenvalues --   -0.32343  -0.29832  -0.29033  -0.27940  -0.26948
 Alpha  occ. eigenvalues --   -0.25437  -0.24975  -0.24347  -0.23270  -0.21351
 Alpha  occ. eigenvalues --   -0.19322  -0.16491  -0.14940  -0.14493  -0.14259
 Alpha  occ. eigenvalues --   -0.12383  -0.11737   0.02570
 Alpha virt. eigenvalues --    0.05998   0.07393   0.08153   0.08532   0.09859
 Alpha virt. eigenvalues --    0.10871   0.11166   0.11497   0.11836   0.12185
 Alpha virt. eigenvalues --    0.12430   0.14409   0.14993   0.15222   0.15402

  Beta  occ. eigenvalues --  -88.76053 -88.75609 -88.75393 -88.75111 -19.03765
  Beta  occ. eigenvalues --  -19.03181 -14.20642 -14.16850 -10.21693 -10.10425
  Beta  occ. eigenvalues --  -10.09743 -10.08446  -7.84251  -7.84083  -7.83671
  Beta  occ. eigenvalues --   -7.83591  -5.80733  -5.80507  -5.80306  -5.80204
  Beta  occ. eigenvalues --   -5.80103  -5.80010  -5.79645  -5.79584  -5.79441
  Beta  occ. eigenvalues --   -5.79427  -5.78965  -5.78870  -0.98967  -0.90351
  Beta  occ. eigenvalues --   -0.82926  -0.75703  -0.70111  -0.69460  -0.61210
  Beta  occ. eigenvalues --   -0.60210  -0.54263  -0.50277  -0.49969  -0.40914
  Beta  occ. eigenvalues --   -0.39311  -0.36291  -0.33663  -0.33409  -0.32342
  Beta  occ. eigenvalues --   -0.32270  -0.29428  -0.28230  -0.27771  -0.26391
  Beta  occ. eigenvalues --   -0.25282  -0.24589  -0.23945  -0.23004  -0.21000
  Beta  occ. eigenvalues --   -0.18801  -0.16380  -0.14424  -0.14123  -0.13976
  Beta  occ. eigenvalues --   -0.11875  -0.11130
  Beta virt. eigenvalues --    0.07388   0.08117   0.08262   0.08749   0.08924
  Beta virt. eigenvalues --    0.10240   0.10915   0.11230   0.11617   0.11905
  Beta virt. eigenvalues --    0.12379   0.12535   0.14435   0.15054   0.15278

 Mulliken charges and spin densities:
               1          2
     1  C   -0.607550   0.006478
     2  S    0.184063   0.016462
     3  S   -0.329501   0.476692
     4  O    0.008148   0.014683
     5  C    0.139340   0.038700
     6  N   -0.151989  -0.034118
     7  C    0.040090  -0.022868
     8  N   -0.396089  -0.002448
     9  O   -0.002874   0.021539
    10  S   -0.288632   0.375981
    11  S    0.081257   0.082556
    12  C   -0.567743  -0.009964
    13  H    0.126753  -0.001800
    14  H    0.141082   0.004069
    15  H    0.173469   0.008875
    16  H    0.135620   0.021083
    17  H    0.189075   0.004952
    18  H    0.125482  -0.000872
 Sum of Mulliken charges =  -1.00000   1.00000

 Dipole moment (field-independent basis, Debye):
    X=             -1.0104    Y=             -3.3901    Z=              2.1992  Tot=              4.1653
 Quadrupole moment (field-independent basis, Debye-Ang):
   XX=           -121.6362   YY=           -145.6712   ZZ=           -105.9904
   XY=              0.2368   XZ=             -3.1237   YZ=             -4.6880

 Summary of Natural Population Analysis:

                                       Natural Population
                Natural  -----------------------------------------------
    Atom  No    Charge         Core      Valence    Rydberg      Total
 -----------------------------------------------------------------------
      C    1   -0.35510      0.99963     2.34957    0.00590     3.35510
      S    2    0.04765      4.99969     2.92541    0.02725     7.95235
      S    3    0.22839      4.99976     2.74782    0.02403     7.77161
      O    4   -0.28404      0.99986     3.27292    0.01125     4.28404
      C    5    0.46163      0.99957     1.51200    0.02680     2.53837
      N    6   -0.33669      0.99953     2.82536    0.01179     3.83669
      C    7    0.22717      0.99964     1.75442    0.01877     2.77283
      N    8   -0.24400      0.99978     2.73567    0.00855     3.74400
      O    9   -0.29048      0.99986     3.27972    0.01091     4.29048
      S   10    0.23315      4.99976     2.74261    0.02448     7.76685
      S   11    0.04529      4.99968     2.92781    0.02722     7.95471
      C   12   -0.35088      0.99962     2.34606    0.00520     3.35088
      H   13    0.09831      0.00000     0.40042    0.00128     0.40169
      H   14    0.10103      0.00000     0.39741    0.00156     0.39897
      H   15    0.10642      0.00000     0.39235    0.00123     0.39358
      H   16    0.10064      0.00000     0.39645    0.00291     0.39936
      H   17    0.11519      0.00000     0.38379    0.00102     0.38481
      H   18    0.09632      0.00000     0.40264    0.00104     0.40368
 =======================================================================
   * Total *   -0.00000     27.99639    33.79241    0.21120    62.00000

 Normal termination of Gaussian 16 at Wed Dec  9 18:29:51 2020.
