 Gaussian 16, Revision A.03,

 -----------------------------------------------------------
 # opt freq B3LYP/6-31G(d) empiricaldispersion=gd3bj scf=xqc
 -----------------------------------------------------------

 ------------------------------
 CID_59314086_JID_4086_neutraal
 ------------------------------
 Symbolic Z-matrix:
 Charge =  0 Multiplicity = 1

 SCF Done:  E(RB3LYP) =  -616.216082317     A.U. after   15 cycles
 SCF Done:  E(RB3LYP) =  -616.218866650     A.U. after   13 cycles
 SCF Done:  E(RB3LYP) =  -616.218745478     A.U. after   12 cycles
 SCF Done:  E(RB3LYP) =  -616.219751311     A.U. after   13 cycles
 SCF Done:  E(RB3LYP) =  -616.220144740     A.U. after   13 cycles
 SCF Done:  E(RB3LYP) =  -616.220304838     A.U. after   12 cycles
 SCF Done:  E(RB3LYP) =  -616.220345237     A.U. after   11 cycles
 SCF Done:  E(RB3LYP) =  -616.220353821     A.U. after   10 cycles
 SCF Done:  E(RB3LYP) =  -616.220390195     A.U. after   10 cycles
 SCF Done:  E(RB3LYP) =  -616.220415189     A.U. after   10 cycles
 SCF Done:  E(RB3LYP) =  -616.220428493     A.U. after   10 cycles
 SCF Done:  E(RB3LYP) =  -616.220430174     A.U. after    9 cycles
 SCF Done:  E(RB3LYP) =  -616.220430517     A.U. after    8 cycles
 SCF Done:  E(RB3LYP) =  -616.220430589     A.U. after    8 cycles
 Optimization completed.
    -- Stationary point found.
 Normal termination of Gaussian 16 at Thu Dec 10 09:17:04 2020.

 --------------------------------------------------------------------
 #N Geom=AllCheck Guess=TCheck SCRF=Check GenChk RB3LYP/6-31G(d) Freq
 --------------------------------------------------------------------

 Structure from the checkpoint file:  "JID_4086.chk"
 ------------------------------
 CID_59314086_JID_4086_neutraal
 ------------------------------
 Charge =  0 Multiplicity = 1

 SCF Done:  E(RB3LYP) =  -616.220430589     A.U. after    1 cycles

  Exact polarizability: 167.978   7.987 149.868  -3.613  -2.475  77.789
 Approx polarizability: 251.116  13.275 233.274  -8.895  -8.865 122.776

                      1                      2                      3
                      A                      A                      A
 Frequencies --     34.0108                62.0861                69.0966
 Red. masses --      7.5937                 2.9268                 3.5486
 Frc consts  --      0.0052                 0.0066                 0.0100
 IR Inten    --      0.9316                 0.4796                 0.0103

                      4                      5                      6
                      A                      A                      A
 Frequencies --     96.6013               131.2003               159.4868
 Red. masses --      2.9575                 1.6775                 2.1710
 Frc consts  --      0.0163                 0.0170                 0.0325
 IR Inten    --      0.3936                 0.5286                 0.5178

                      7                      8                      9
                      A                      A                      A
 Frequencies --    182.2495               210.9334               215.8228
 Red. masses --      1.0627                 1.9346                 2.7367
 Frc consts  --      0.0208                 0.0507                 0.0751
 IR Inten    --      0.0972                 0.7295                 0.3903

                     10                     11                     12
                      A                      A                      A
 Frequencies --    232.2182               300.6548               311.2767
 Red. masses --      1.5637                 3.6806                 4.0075
 Frc consts  --      0.0497                 0.1960                 0.2288
 IR Inten    --      1.2255                 4.6401                 0.7118

                     13                     14                     15
                      A                      A                      A
 Frequencies --    363.7938               367.1173               408.2061
 Red. masses --      2.7532                 4.9721                 3.0699
 Frc consts  --      0.2147                 0.3948                 0.3014
 IR Inten    --      1.5035                 2.8712                 1.8847

                     16                     17                     18
                      A                      A                      A
 Frequencies --    443.5094               459.5097               493.3635
 Red. masses --      3.6173                 2.8308                 2.9330
 Frc consts  --      0.4192                 0.3522                 0.4206
 IR Inten    --      0.8408                 3.1114                 2.5624

                     19                     20                     21
                      A                      A                      A
 Frequencies --    509.1418               547.7863               602.4801
 Red. masses --      4.5016                 3.0068                 4.0639
 Frc consts  --      0.6875                 0.5316                 0.8691
 IR Inten    --      2.2303                 4.1760                 4.3314

                     22                     23                     24
                      A                      A                      A
 Frequencies --    617.5477               647.4884               708.2904
 Red. masses --      1.3772                 4.1232                 3.6115
 Frc consts  --      0.3095                 1.0185                 1.0675
 IR Inten    --     76.1449                53.4413                21.3907

                     25                     26                     27
                      A                      A                      A
 Frequencies --    746.7114               769.2610               821.7590
 Red. masses --      4.8471                 2.0631                 2.2269
 Frc consts  --      1.5923                 0.7193                 0.8860
 IR Inten    --     28.3059                37.1211                 1.8362

                     28                     29                     30
                      A                      A                      A
 Frequencies --    832.5822               851.2945               879.6115
 Red. masses --      1.8713                 2.7017                 3.7026
 Frc consts  --      0.7643                 1.1536                 1.6879
 IR Inten    --      9.2628                10.4275                 3.4467

                     31                     32                     33
                      A                      A                      A
 Frequencies --    917.3612               936.1670               978.9320
 Red. masses --      4.0388                 1.3628                 1.4233
 Frc consts  --      2.0025                 0.7037                 0.8036
 IR Inten    --      9.4931                 0.1593                 0.3131

                     34                     35                     36
                      A                      A                      A
 Frequencies --    983.5457              1021.3439              1033.3309
 Red. masses --      1.2949                 1.2480                 1.6390
 Frc consts  --      0.7381                 0.7670                 1.0311
 IR Inten    --      0.3924                 3.7062                 5.2091

                     37                     38                     39
                      A                      A                      A
 Frequencies --   1078.7361              1093.0641              1119.5466
 Red. masses --      1.5124                 1.6205                 1.6617
 Frc consts  --      1.0370                 1.1407                 1.2271
 IR Inten    --      2.3197                25.0945                 0.3260

                     40                     41                     42
                      A                      A                      A
 Frequencies --   1134.0419              1157.8021              1206.1988
 Red. masses --      1.7741                 3.7745                 1.2756
 Frc consts  --      1.3443                 2.9811                 1.0934
 IR Inten    --     15.4076               256.8074                31.5825

                     43                     44                     45
                      A                      A                      A
 Frequencies --   1220.4141              1236.7441              1252.6956
 Red. masses --      1.9265                 2.4953                 2.8369
 Frc consts  --      1.6906                 2.2487                 2.6229
 IR Inten    --     40.6783                85.1199                 5.6338

                     46                     47                     48
                      A                      A                      A
 Frequencies --   1288.1519              1339.6322              1384.9216
 Red. masses --      1.9500                 6.8244                 2.0775
 Frc consts  --      1.9065                 7.2159                 2.3477
 IR Inten    --      6.5906                 7.5255                59.2466

                     49                     50                     51
                      A                      A                      A
 Frequencies --   1388.3509              1438.8982              1446.7023
 Red. masses --      1.6807                 1.3775                 1.2426
 Frc consts  --      1.9087                 1.6804                 1.5323
 IR Inten    --     33.8338                 5.9515                 3.2241

                     52                     53                     54
                      A                      A                      A
 Frequencies --   1448.3235              1484.6923              1501.9663
 Red. masses --      1.2448                 2.6436                 1.0562
 Frc consts  --      1.5385                 3.4333                 1.4039
 IR Inten    --      0.8839                28.8390                 3.9042

                     55                     56                     57
                      A                      A                      A
 Frequencies --   1504.5560              1511.5454              1513.9837
 Red. masses --      1.9891                 1.1004                 1.0848
 Frc consts  --      2.6529                 1.4813                 1.4650
 IR Inten    --      8.8758                 3.7435                 3.8454

                     58                     59                     60
                      A                      A                      A
 Frequencies --   1522.3985              1527.0246              1534.3267
 Red. masses --      1.1058                 1.0648                 1.1496
 Frc consts  --      1.5100                 1.4628                 1.5945
 IR Inten    --     13.9736                10.1648                 6.4811

                     61                     62                     63
                      A                      A                      A
 Frequencies --   1630.1455              1650.8019              1741.0495
 Red. masses --      6.2835                 5.3007                 6.7086
 Frc consts  --      9.8379                 8.5109                11.9813
 IR Inten    --     17.9918                 2.5717                11.4128

                     64                     65                     66
                      A                      A                      A
 Frequencies --   1815.0239              3025.2347              3031.4313
 Red. masses --      9.6124                 1.0398                 1.0407
 Frc consts  --     18.6572                 5.6066                 5.6348
 IR Inten    --    268.1929                19.2640                63.1240

                     67                     68                     69
                      A                      A                      A
 Frequencies --   3056.6599              3070.2511              3073.7576
 Red. masses --      1.0388                 1.0993                 1.0985
 Frc consts  --      5.7184                 6.1053                 6.1152
 IR Inten    --     24.0495                 0.6376                48.0024

                     70                     71                     72
                      A                      A                      A
 Frequencies --   3111.6539              3129.6586              3142.5085
 Red. masses --      1.0982                 1.0990                 1.1007
 Frc consts  --      6.2651                 6.3424                 6.4044
 IR Inten    --     19.9576                20.7953                 3.2087

                     73                     74                     75
                      A                      A                      A
 Frequencies --   3142.8776              3180.4983              3183.3105
 Red. masses --      1.0979                 1.0879                 1.0876
 Frc consts  --      6.3897                 6.4838                 6.4933
 IR Inten    --     24.3642                11.7354                 6.7863

                     76                     77                     78
                      A                      A                      A
 Frequencies --   3204.2891              3243.3339              3702.5394
 Red. masses --      1.0931                 1.0925                 1.0642
 Frc consts  --      6.6124                 6.7709                 8.5953
 IR Inten    --     23.0415                 3.9609                70.2624

 - Thermochemistry -
 -------------------
 Temperature   298.150 Kelvin.  Pressure   1.00000 Atm.
 Atom     1 has atomic number  6 and mass  12.00000

 Molecular mass:   190.09938 amu.
 Principal axes and moments of inertia in atomic units:
                           1         2         3
     Eigenvalues --  2168.136882827.781304542.29861
           X            0.99933   0.03656   0.00217
           Y           -0.03656   0.99933   0.00103
           Z           -0.00213  -0.00111   1.00000
 This molecule is an asymmetric top.
 Rotational symmetry number  1.
 Warning -- assumption of classical behavior for rotation
           may cause significant error
 Rotational temperatures (Kelvin)      0.03995     0.03063     0.01907
 Rotational constants (GHZ):           0.83239     0.63822     0.39732
 Zero-point vibrational energy     612580.8 (Joules/Mol)
                                  146.41033 (Kcal/Mol)
 Warning -- explicit consideration of  22 degrees of freedom as
           vibrations may cause significant error
 Vibrational temperatures:     48.93    89.33    99.41   138.99   188.77
          (Kelvin)            229.47   262.22   303.49   310.52   334.11
                              432.58   447.86   523.42   528.20   587.32
                              638.11   661.13   709.84   732.54   788.14
                              866.83   888.51   931.59  1019.07  1074.35
                             1106.79  1182.33  1197.90  1224.82  1265.56
                             1319.88  1346.94  1408.46  1415.10  1469.49
                             1486.73  1552.06  1572.68  1610.78  1631.63
                             1665.82  1735.45  1755.90  1779.40  1802.35
                             1853.36  1927.43  1992.59  1997.53  2070.25
                             2081.48  2083.81  2136.14  2160.99  2164.72
                             2174.78  2178.28  2190.39  2197.05  2207.55
                             2345.42  2375.14  2504.98  2611.41  4352.64
                             4361.55  4397.85  4417.41  4422.45  4476.98
                             4502.88  4521.37  4521.90  4576.03  4580.07
                             4610.26  4666.43  5327.13

 Zero-point correction=                           0.233320 (Hartree/Particle)
 Thermal correction to Energy=                    0.247355
 Thermal correction to Enthalpy=                  0.248299
 Thermal correction to Gibbs Free Energy=         0.192210
 Sum of electronic and zero-point Energies=           -615.987111
 Sum of electronic and thermal Energies=              -615.973075
 Sum of electronic and thermal Enthalpies=            -615.972131
 Sum of electronic and thermal Free Energies=         -616.028221

                     E (Thermal)             CV                S
                      KCal/Mol        Cal/Mol-Kelvin    Cal/Mol-Kelvin
 Total                  155.218             52.696            118.050
 Electronic               0.000              0.000              0.000
 Translational            0.889              2.981             41.633
 Rotational               0.889              2.981             31.699
 Vibrational            153.440             46.734             44.718
 Vibration     1          0.594              1.983              5.581
 Vibration     2          0.597              1.972              4.390
 Vibration     3          0.598              1.969              4.179
 Vibration     4          0.603              1.952              3.522
 Vibration     5          0.612              1.922              2.928
 Vibration     6          0.621              1.892              2.556
 Vibration     7          0.630              1.864              2.305
 Vibration     8          0.643              1.824              2.036
 Vibration     9          0.645              1.817              1.994
 Vibration    10          0.653              1.792              1.862
 Vibration    11          0.693              1.672              1.413
 Vibration    12          0.700              1.652              1.356
 Vibration    13          0.737              1.547              1.106
 Vibration    14          0.740              1.540              1.092
 Vibration    15          0.773              1.452              0.933
 Vibration    16          0.803              1.375              0.816
 Vibration    17          0.817              1.340              0.768
 Vibration    18          0.849              1.265              0.675
 Vibration    19          0.864              1.230              0.636
 Vibration    20          0.903              1.145              0.549
 Vibration    21          0.961              1.027              0.445
 Vibration    22          0.977              0.995              0.420

                           ! Non-Optimized Parameters !
 Normal termination of Gaussian 16 at Thu Dec 10 09:24:48 2020.

 ----------------------------------------------------------------------
 # B3LYP/6-311++G(d,p) empiricaldispersion=gd3bj scf=xqc pop=npa geom=c
 heck
 ----------------------------------------------------------------------

 --------------------------------------
 CID_59314086_JID_4086_Energie_neutraal
 --------------------------------------
 Structure from the checkpoint file:  "JID_4086.chk"
 Charge =  0 Multiplicity = 1

 SCF Done:  E(RB3LYP) =  -616.395733408     A.U. after   16 cycles
 Normal termination of Gaussian 16 at Thu Dec 10 09:28:05 2020.

 ----------------------------------------------------------------------
 # B3LYP/6-311++G(d,p) empiricaldispersion=gd3bj scf=xqc pop=npa geom=c
 heck
 ----------------------------------------------------------------------

 ------------------------------------
 CID_59314086_JID_4086_Energie_kation
 ------------------------------------
 Structure from the checkpoint file:  "JID_4086.chk"
 Charge =  1 Multiplicity = 2

 SCF Done:  E(UB3LYP) =  -616.097861364     A.U. after   25 cycles
 Normal termination of Gaussian 16 at Thu Dec 10 09:34:28 2020.
 Gaussian 16:  ES64L-G16RevA.03 25-Dec-2016

 ----------------------------------------------------------------------
 # B3LYP/6-311++G(d,p) empiricaldispersion=gd3bj scf=xqc pop=npa geom=c
 heck
 ----------------------------------------------------------------------

 -----------------------------------
 CID_59314086_JID_4086_Energie_anion
 -----------------------------------
 Structure from the checkpoint file:  "JID_4086.chk"
 Charge = -1 Multiplicity = 2

                         Standard orientation:
 ---------------------------------------------------------------------
 Center     Atomic      Atomic             Coordinates (Angstroms)
 Number     Number       Type             X           Y           Z
 ---------------------------------------------------------------------
      1          6           0        1.311481   -2.495059   -0.593411
      2          6           0        0.026303   -1.761423   -0.289901
      3          6           0       -0.047040   -0.349694   -0.305126
      4          6           0       -1.300952    0.265317   -0.062516
      5          6           0       -2.435200   -0.508128    0.220260
      6          6           0       -2.347101   -1.893606    0.250768
      7          6           0       -1.124707   -2.506576   -0.009626
      8          6           0       -1.435360    1.745282   -0.101109
      9          8           0       -0.597860    2.541413   -0.478315
     10          8           0       -2.652919    2.172780    0.339301
     11          6           0        1.160375    0.456291   -0.607653
     12          6           0        2.264921    0.535978    0.149578
     13          6           0        3.434653    1.381905   -0.280907
     14          6           0        2.419256   -0.141801    1.485164
     15          1           0        1.895773   -1.979960   -1.360037
     16          1           0        1.951556   -2.575316    0.293214
     17          1           0        1.099872   -3.512435   -0.936914
     18          1           0       -3.378556   -0.012171    0.411881
     19          1           0       -3.226769   -2.493382    0.464594
     20          1           0       -1.056617   -3.591790   -0.006417
     21          1           0       -2.625501    3.142709    0.248768
     22          1           0        1.112991    1.059336   -1.510248
     23          1           0        3.634233    2.176377    0.451124
     24          1           0        4.352276    0.780576   -0.347510
     25          1           0        3.260470    1.851404   -1.253341
     26          1           0        2.660936    0.598472    2.259747
     27          1           0        1.513627   -0.669575    1.792925
     28          1           0        3.252167   -0.858704    1.471187
 ---------------------------------------------------------------------

 SCF Done:  E(UB3LYP) =  -616.397095464     A.U. after   31 cycles

 The electronic state is 2-A.
 Alpha  occ. eigenvalues --  -19.00433 -18.92900 -10.11184 -10.04695 -10.04019
 Alpha  occ. eigenvalues --  -10.03664 -10.03342 -10.02890 -10.02133 -10.01886
 Alpha  occ. eigenvalues --  -10.01496 -10.00985 -10.00777 -10.00381  -0.94053
 Alpha  occ. eigenvalues --   -0.84481  -0.70924  -0.67672  -0.62747  -0.60885
 Alpha  occ. eigenvalues --   -0.57143  -0.56032  -0.52922  -0.49237  -0.43982
 Alpha  occ. eigenvalues --   -0.42497  -0.38740  -0.35350  -0.33062  -0.32842
 Alpha  occ. eigenvalues --   -0.32153  -0.31568  -0.30361  -0.29732  -0.28617
 Alpha  occ. eigenvalues --   -0.28389  -0.27490  -0.26576  -0.25085  -0.24833
 Alpha  occ. eigenvalues --   -0.24030  -0.23728  -0.22121  -0.20321  -0.19867
 Alpha  occ. eigenvalues --   -0.18402  -0.16670  -0.12826  -0.10549  -0.09861
 Alpha  occ. eigenvalues --   -0.08677   0.05767
 Alpha virt. eigenvalues --    0.08168   0.09404   0.09905   0.10411   0.10737
 Alpha virt. eigenvalues --    0.11488   0.12349   0.12650   0.13073   0.13668
 Alpha virt. eigenvalues --    0.14264   0.14557   0.15111   0.16080   0.16448

  Beta  occ. eigenvalues --  -19.00364 -18.92551 -10.10889 -10.04699 -10.04023
  Beta  occ. eigenvalues --  -10.03583 -10.03335 -10.02988 -10.02152 -10.01642
  Beta  occ. eigenvalues --  -10.01514 -10.00861 -10.00566 -10.00017  -0.93720
  Beta  occ. eigenvalues --   -0.83965  -0.70576  -0.67514  -0.62530  -0.60397
  Beta  occ. eigenvalues --   -0.57126  -0.55738  -0.52729  -0.48553  -0.43855
  Beta  occ. eigenvalues --   -0.42165  -0.38569  -0.35214  -0.32843  -0.32566
  Beta  occ. eigenvalues --   -0.31947  -0.31396  -0.30168  -0.29556  -0.28383
  Beta  occ. eigenvalues --   -0.27322  -0.27272  -0.26539  -0.25022  -0.24752
  Beta  occ. eigenvalues --   -0.23913  -0.23529  -0.21953  -0.19900  -0.19172
  Beta  occ. eigenvalues --   -0.18244  -0.15314  -0.12373  -0.09652  -0.08546
  Beta  occ. eigenvalues --   -0.07824
  Beta virt. eigenvalues --    0.08102   0.09323   0.09854   0.10328   0.10650
  Beta virt. eigenvalues --    0.11158   0.11984   0.12305   0.12829   0.13150
  Beta virt. eigenvalues --    0.13861   0.14237   0.14510   0.15166   0.16015

 Mulliken charges and spin densities:
               1          2
     1  C   -0.543659  -0.031382
     2  C    0.450456  -0.041588
     3  C    0.369370   0.087498
     4  C   -0.022352   0.128555
     5  C   -0.083842   0.191447
     6  C   -0.529902  -0.043566
     7  C   -0.494474   0.355160
     8  C    0.090883   0.175854
     9  O   -0.396366   0.118167
    10  O   -0.217751   0.016782
    11  C   -0.429766  -0.074797
    12  C    0.253771   0.079600
    13  C   -0.580004  -0.010006
    14  C   -0.763495  -0.020214
    15  H    0.126596   0.000374
    16  H    0.097376   0.050115
    17  H    0.142364  -0.008218
    18  H    0.155257  -0.004842
    19  H    0.100839  -0.001238
    20  H    0.076338  -0.015785
    21  H    0.242281  -0.001442
    22  H    0.228205   0.005100
    23  H    0.105566   0.010150
    24  H    0.109251   0.006121
    25  H    0.141611   0.002542
    26  H    0.121382   0.005404
    27  H    0.159506  -0.002834
    28  H    0.090557   0.023043
 Sum of Mulliken charges =  -1.00000   1.00000

 Dipole moment (field-independent basis, Debye):
    X=              2.5389    Y=             -0.6584    Z=              0.3546  Tot=              2.6467
 Quadrupole moment (field-independent basis, Debye-Ang):
   XX=           -106.8784   YY=           -108.5449   ZZ=            -94.3752
   XY=             -2.6344   XZ=             -0.3848   YZ=              2.2852

 Summary of Natural Population Analysis:

                                       Natural Population
                Natural  -----------------------------------------------
    Atom  No    Charge         Core      Valence    Rydberg      Total
 -----------------------------------------------------------------------
      C    1   -0.28979      0.99964     2.28536    0.00479     3.28979
      C    2   -0.06351      0.99954     2.04902    0.01495     3.06351
      C    3    0.08451      0.99944     1.90404    0.01200     2.91549
      C    4   -0.06035      0.99948     2.04351    0.01736     3.06035
      C    5   -0.06349      0.99955     2.05556    0.00838     3.06349
      C    6   -0.12135      0.99957     2.11218    0.00961     3.12135
      C    7   -0.03285      0.99952     2.02490    0.00843     3.03285
      C    8    0.43328      0.99966     1.54364    0.02342     2.56672
      O    9   -0.29824      0.99987     3.29112    0.00725     4.29824
      O   10   -0.35852      0.99988     3.35141    0.00723     4.35852
      C   11   -0.10046      0.99949     2.08622    0.01475     3.10046
      C   12   -0.01258      0.99949     2.00496    0.00813     3.01258
      C   13   -0.28958      0.99964     2.28544    0.00450     3.28958
      C   14   -0.30015      0.99963     2.29553    0.00498     3.30015
      H   15    0.10196      0.00000     0.39694    0.00110     0.39804
      H   16    0.09548      0.00000     0.40279    0.00173     0.40452
      H   17    0.09319      0.00000     0.40580    0.00101     0.40681
      H   18    0.10000      0.00000     0.39882    0.00118     0.40000
      H   19    0.08729      0.00000     0.41106    0.00165     0.41271
      H   20    0.08234      0.00000     0.41627    0.00140     0.41766
      H   21    0.22640      0.00000     0.26810    0.00549     0.27360
      H   22    0.10452      0.00000     0.39419    0.00129     0.39548
      H   23    0.09398      0.00000     0.40478    0.00125     0.40602
      H   24    0.09057      0.00000     0.40821    0.00122     0.40943
      H   25    0.09986      0.00000     0.39929    0.00085     0.40014
      H   26    0.09496      0.00000     0.40381    0.00123     0.40504
      H   27    0.11184      0.00000     0.38737    0.00079     0.38816
      H   28    0.09217      0.00000     0.40635    0.00148     0.40783
 =======================================================================
   * Total *    0.00148     13.99440    36.83668    0.16744    50.99852

 Normal termination of Gaussian 16 at Thu Dec 10 09:43:46 2020.
