 Gaussian 16, Revision A.03,

 -----------------------------------------------------------
 # opt freq B3LYP/6-31G(d) empiricaldispersion=gd3bj scf=xqc
 -----------------------------------------------------------

 -------------------------------
 CID_125497472_JID_4456_neutraal
 -------------------------------
 Symbolic Z-matrix:
 Charge =  0 Multiplicity = 1

 SCF Done:  E(RB3LYP) =  -651.861086829     A.U. after   18 cycles
 SCF Done:  E(RB3LYP) =  -651.868721282     A.U. after   15 cycles
 SCF Done:  E(RB3LYP) =  -651.872745023     A.U. after   16 cycles
 SCF Done:  E(RB3LYP) =  -651.879982989     A.U. after   17 cycles
 SCF Done:  E(RB3LYP) =  -651.885609851     A.U. after   15 cycles
 SCF Done:  E(RB3LYP) =  -651.888956220     A.U. after   17 cycles
 SCF Done:  E(RB3LYP) =  -651.889518749     A.U. after   15 cycles
 SCF Done:  E(RB3LYP) =  -651.890212872     A.U. after   14 cycles
 SCF Done:  E(RB3LYP) =  -651.890398365     A.U. after   13 cycles
 SCF Done:  E(RB3LYP) =  -651.890480276     A.U. after   12 cycles
 SCF Done:  E(RB3LYP) =  -651.890512435     A.U. after   10 cycles
 SCF Done:  E(RB3LYP) =  -651.890518218     A.U. after   10 cycles
 SCF Done:  E(RB3LYP) =  -651.890520840     A.U. after   10 cycles
 SCF Done:  E(RB3LYP) =  -651.890521212     A.U. after    8 cycles
 SCF Done:  E(RB3LYP) =  -651.890521456     A.U. after    8 cycles
 SCF Done:  E(RB3LYP) =  -651.890521500     A.U. after    8 cycles
 Optimization completed.
    -- Stationary point found.
 Normal termination of Gaussian 16 at Thu Dec 10 09:57:33 2020.

 --------------------------------------------------------------------
 #N Geom=AllCheck Guess=TCheck SCRF=Check GenChk RB3LYP/6-31G(d) Freq
 --------------------------------------------------------------------

 Structure from the checkpoint file:  "JID_4456.chk"
 -------------------------------
 CID_125497472_JID_4456_neutraal
 -------------------------------
 Charge =  0 Multiplicity = 1

 SCF Done:  E(RB3LYP) =  -651.890521500     A.U. after    1 cycles

  Exact polarizability: 137.429  -2.848 139.965  -3.605 -10.781 102.261
 Approx polarizability: 166.832  -1.734 252.571  -7.609 -49.740 160.925

                      1                      2                      3
                      A                      A                      A
 Frequencies --     25.7665                36.5663                45.4073
 Red. masses --      3.3643                 3.8091                 4.3306
 Frc consts  --      0.0013                 0.0030                 0.0053
 IR Inten    --      0.0152                 0.7451                 0.2472

                      4                      5                      6
                      A                      A                      A
 Frequencies --     83.2838               108.5712               117.6668
 Red. masses --      3.2341                 5.4380                 3.0126
 Frc consts  --      0.0132                 0.0378                 0.0246
 IR Inten    --      1.1160                 0.8485                 0.1913

                      7                      8                      9
                      A                      A                      A
 Frequencies --    133.1642               147.3690               202.6180
 Red. masses --      4.3017                 2.9263                 2.5797
 Frc consts  --      0.0449                 0.0374                 0.0624
 IR Inten    --      1.9815                 0.8963                 3.4957

                     10                     11                     12
                      A                      A                      A
 Frequencies --    209.0625               238.9164               254.3128
 Red. masses --      1.0942                 1.9235                 1.0602
 Frc consts  --      0.0282                 0.0647                 0.0404
 IR Inten    --      0.1665                 2.9557                 0.0174

                     13                     14                     15
                      A                      A                      A
 Frequencies --    272.3018               287.3618               301.1062
 Red. masses --      1.0753                 2.2882                 2.9253
 Frc consts  --      0.0470                 0.1113                 0.1563
 IR Inten    --      0.0657                 0.0704                 1.8975

                     16                     17                     18
                      A                      A                      A
 Frequencies --    308.8854               339.6576               351.1052
 Red. masses --      2.1201                 3.1991                 2.4905
 Frc consts  --      0.1192                 0.2175                 0.1809
 IR Inten    --      0.2537                14.1107                 1.3976

                     19                     20                     21
                      A                      A                      A
 Frequencies --    391.6248               423.3354               459.9637
 Red. masses --      2.3272                 2.7898                 2.8997
 Frc consts  --      0.2103                 0.2946                 0.3614
 IR Inten    --      0.4055                 1.5890                 3.0403

                     22                     23                     24
                      A                      A                      A
 Frequencies --    476.6583               484.3497               559.3413
 Red. masses --      2.5702                 2.6946                 9.2217
 Frc consts  --      0.3441                 0.3724                 1.6999
 IR Inten    --      3.0540                 0.6032                 2.1900

                     25                     26                     27
                      A                      A                      A
 Frequencies --    570.2514               657.1382               728.8325
 Red. masses --      9.9937                 4.4220                 4.8427
 Frc consts  --      1.9147                 1.1251                 1.5156
 IR Inten    --      4.0421                 5.0340                24.3366

                     28                     29                     30
                      A                      A                      A
 Frequencies --    740.6944               773.2084               814.5557
 Red. masses --      2.1997                 2.2153                 2.3362
 Frc consts  --      0.7110                 0.7803                 0.9133
 IR Inten    --      1.9703                 9.5213                 4.2948

                     31                     32                     33
                      A                      A                      A
 Frequencies --    842.0820               867.5031               911.4877
 Red. masses --      3.8440                 3.0402                 1.6083
 Frc consts  --      1.6060                 1.3480                 0.7873
 IR Inten    --      2.5813                18.8071                 6.0929

                     34                     35                     36
                      A                      A                      A
 Frequencies --    938.0639               940.0856               948.4074
 Red. masses --      1.6346                 1.6279                 2.0241
 Frc consts  --      0.8475                 0.8477                 1.0727
 IR Inten    --      0.0737                 0.5151                 3.3839

                     37                     38                     39
                      A                      A                      A
 Frequencies --    983.0537               984.4194              1067.1658
 Red. masses --      1.1981                 1.7541                 1.4037
 Frc consts  --      0.6822                 1.0015                 0.9419
 IR Inten    --      0.2314                 4.8511                 0.3292

                     40                     41                     42
                      A                      A                      A
 Frequencies --   1071.5061              1080.7367              1097.0787
 Red. masses --      1.4308                 1.9486                 1.6999
 Frc consts  --      0.9679                 1.3410                 1.2055
 IR Inten    --      1.2405                 5.8481                23.6452

                     43                     44                     45
                      A                      A                      A
 Frequencies --   1134.7146              1173.4916              1214.2684
 Red. masses --      1.7708                 3.9629                 1.8695
 Frc consts  --      1.3433                 3.2153                 1.6241
 IR Inten    --      0.6452               303.2526               261.0278

                     46                     47                     48
                      A                      A                      A
 Frequencies --   1237.6852              1278.2727              1286.8546
 Red. masses --      1.7233                 1.3267                 2.7015
 Frc consts  --      1.5554                 1.2772                 2.6358
 IR Inten    --      0.5312                 6.7503                15.7725

                     49                     50                     51
                      A                      A                      A
 Frequencies --   1298.7653              1335.4368              1348.2805
 Red. masses --      2.7451                 1.2081                 4.8769
 Frc consts  --      2.7282                 1.2694                 5.2235
 IR Inten    --     22.5691                 1.3672               154.0826

                     52                     53                     54
                      A                      A                      A
 Frequencies --   1364.6070              1388.4220              1407.3411
 Red. masses --      1.8299                 1.8831                 1.4938
 Frc consts  --      2.0077                 2.1387                 1.7432
 IR Inten    --     36.5812               103.6520                41.5522

                     55                     56                     57
                      A                      A                      A
 Frequencies --   1413.9418              1424.5419              1427.9536
 Red. masses --      1.7075                 1.2814                 1.2965
 Frc consts  --      2.0112                 1.5320                 1.5576
 IR Inten    --     43.2167                17.1283                36.0760

                     58                     59                     60
                      A                      A                      A
 Frequencies --   1448.5219              1452.9534              1500.0686
 Red. masses --      1.2493                 1.2371                 1.0467
 Frc consts  --      1.5445                 1.5388                 1.3877
 IR Inten    --     13.7819                17.0458                 0.4534

                     61                     62                     63
                      A                      A                      A
 Frequencies --   1504.1199              1516.6651              1519.6405
 Red. masses --      1.0781                 1.0864                 1.0468
 Frc consts  --      1.4371                 1.4724                 1.4242
 IR Inten    --      8.7865                 3.5384                 0.1378

                     64                     65                     66
                      A                      A                      A
 Frequencies --   1520.3506              1521.2559              1524.8657
 Red. masses --      1.0531                 1.0691                 1.0667
 Frc consts  --      1.4342                 1.4578                 1.4614
 IR Inten    --      0.2603                 1.6885                20.7578

                     67                     68                     69
                      A                      A                      A
 Frequencies --   1534.2896              1534.6239              1552.5884
 Red. masses --      1.0556                 1.0543                 1.0520
 Frc consts  --      1.4641                 1.4629                 1.4942
 IR Inten    --      6.8062                 0.4468                 5.9476

                     70                     71                     72
                      A                      A                      A
 Frequencies --   1556.7862              1760.7465              2217.3357
 Red. masses --      1.0554                11.2293                13.8083
 Frc consts  --      1.5071                20.5115                39.9993
 IR Inten    --     11.3945               343.7358               434.3295

                     73                     74                     75
                      A                      A                      A
 Frequencies --   3026.3420              3036.1570              3044.5849
 Red. masses --      1.0610                 1.0634                 1.0412
 Frc consts  --      5.7252                 5.7755                 5.6863
 IR Inten    --     21.5923                20.7880                30.1557

                     76                     77                     78
                      A                      A                      A
 Frequencies --   3053.1940              3059.2810              3060.4403
 Red. masses --      1.0696                 1.0355                 1.0382
 Frc consts  --      5.8748                 5.7101                 5.7291
 IR Inten    --     33.3925                 7.6868                23.5402

                     79                     80                     81
                      A                      A                      A
 Frequencies --   3061.9032              3067.6103              3072.3134
 Red. masses --      1.0996                 1.0382                 1.1004
 Frc consts  --      6.0741                 5.7561                 6.1199
 IR Inten    --     31.2918                21.4894                68.6742

                     82                     83                     84
                      A                      A                      A
 Frequencies --   3106.3744              3122.9294              3124.7781
 Red. masses --      1.1005                 1.1026                 1.1024
 Frc consts  --      6.2566                 6.3357                 6.3420
 IR Inten    --     42.8972                 7.4288                18.2776

                     85                     86                     87
                      A                      A                      A
 Frequencies --   3129.6953              3136.8632              3138.4124
 Red. masses --      1.0947                 1.1033                 1.1025
 Frc consts  --      6.3175                 6.3964                 6.3983
 IR Inten    --      6.0201                28.3611                45.6360

                     88                     89                     90
                      A                      A                      A
 Frequencies --   3140.3693              3172.6233              3175.6214
 Red. masses --      1.0995                 1.0998                 1.0992
 Frc consts  --      6.3884                 6.5225                 6.5313
 IR Inten    --     12.3606                 0.8606                12.0026

 - Thermochemistry -
 -------------------
 Temperature   298.150 Kelvin.  Pressure   1.00000 Atm.
 Atom     1 has atomic number  6 and mass  12.00000

 Molecular mass:   198.13683 amu.
 Principal axes and moments of inertia in atomic units:
                           1         2         3
     Eigenvalues --  1804.868864149.712965033.71978
           X            0.99991   0.01328  -0.00104
           Y           -0.01325   0.99958   0.02581
           Z            0.00138  -0.02579   0.99967
 This molecule is an asymmetric top.
 Rotational symmetry number  1.
 Warning -- assumption of classical behavior for rotation
           may cause significant error
 Rotational temperatures (Kelvin)      0.04799     0.02087     0.01721
 Rotational constants (GHZ):           0.99993     0.43491     0.35853
 Zero-point vibrational energy     726154.5 (Joules/Mol)
                                  173.55509 (Kcal/Mol)
 Warning -- explicit consideration of  25 degrees of freedom as
           vibrations may cause significant error
 Vibrational temperatures:     37.07    52.61    65.33   119.83   156.21
          (Kelvin)            169.30   191.59   212.03   291.52   300.79
                              343.75   365.90   391.78   413.45   433.22
                              444.42   488.69   505.16   563.46   609.09
                              661.79   685.80   696.87   804.77   820.46
                              945.48  1048.63  1065.69  1112.47  1171.96
                             1211.57  1248.14  1311.43  1349.66  1352.57
                             1364.55  1414.40  1416.36  1535.41  1541.66
                             1554.94  1578.45  1632.60  1688.39  1747.06
                             1780.75  1839.15  1851.50  1868.63  1921.40
                             1939.87  1963.37  1997.63  2024.85  2034.35
                             2049.60  2054.51  2084.10  2090.48  2158.26
                             2164.09  2182.14  2186.42  2187.45  2188.75
                             2193.94  2207.50  2207.98  2233.83  2239.87
                             2533.32  3190.25  4354.23  4368.35  4380.48
                             4392.87  4401.62  4403.29  4405.40  4413.61
                             4420.37  4469.38  4493.20  4495.86  4502.93
                             4513.25  4515.48  4518.29  4564.70  4569.01

 Zero-point correction=                           0.276578 (Hartree/Particle)
 Thermal correction to Energy=                    0.292978
 Thermal correction to Enthalpy=                  0.293922
 Thermal correction to Gibbs Free Energy=         0.231990
 Sum of electronic and zero-point Energies=           -651.613944
 Sum of electronic and thermal Energies=              -651.597544
 Sum of electronic and thermal Enthalpies=            -651.596600
 Sum of electronic and thermal Free Energies=         -651.658531

                     E (Thermal)             CV                S
                      KCal/Mol        Cal/Mol-Kelvin    Cal/Mol-Kelvin
 Total                  183.846             59.603            130.346
 Electronic               0.000              0.000              0.000
 Translational            0.889              2.981             41.756
 Rotational               0.889              2.981             32.000
 Vibrational            182.069             53.642             56.590
 Vibration     1          0.593              1.985              6.131
 Vibration     2          0.594              1.982              5.437
 Vibration     3          0.595              1.979              5.008
 Vibration     4          0.600              1.961              3.812
 Vibration     5          0.606              1.942              3.294
 Vibration     6          0.608              1.935              3.138
 Vibration     7          0.613              1.920              2.900
 Vibration     8          0.617              1.906              2.706
 Vibration     9          0.639              1.836              2.109
 Vibration    10          0.642              1.827              2.052
 Vibration    11          0.657              1.781              1.811
 Vibration    12          0.665              1.756              1.700
 Vibration    13          0.675              1.724              1.582
 Vibration    14          0.685              1.697              1.489
 Vibration    15          0.693              1.672              1.411
 Vibration    16          0.698              1.657              1.368
 Vibration    17          0.720              1.596              1.214
 Vibration    18          0.728              1.573              1.161
 Vibration    19          0.759              1.488              0.994
 Vibration    20          0.785              1.419              0.881
 Vibration    21          0.818              1.339              0.766
 Vibration    22          0.833              1.302              0.719
 Vibration    23          0.840              1.285              0.698
 Vibration    24          0.915              1.119              0.525
 Vibration    25          0.926              1.096              0.504

                           ! Non-Optimized Parameters !
 Normal termination of Gaussian 16 at Thu Dec 10 10:07:31 2020.

 ----------------------------------------------------------------------
 # B3LYP/6-311++G(d,p) empiricaldispersion=gd3bj scf=xqc pop=npa geom=c
 heck
 ----------------------------------------------------------------------

 ---------------------------------------
 CID_125497472_JID_4456_Energie_neutraal
 ---------------------------------------
 Structure from the checkpoint file:  "JID_4456.chk"
 Charge =  0 Multiplicity = 1

 SCF Done:  E(RB3LYP) =  -652.075690260     A.U. after   18 cycles
 Normal termination of Gaussian 16 at Thu Dec 10 10:13:30 2020.

 ----------------------------------------------------------------------
 # B3LYP/6-311++G(d,p) empiricaldispersion=gd3bj scf=xqc pop=npa geom=c
 heck
 ----------------------------------------------------------------------

 -------------------------------------
 CID_125497472_JID_4456_Energie_kation
 -------------------------------------
 Structure from the checkpoint file:  "JID_4456.chk"
 Charge =  1 Multiplicity = 2

 SCF Done:  E(UB3LYP) =  -651.766825992     A.U. after   24 cycles
 Normal termination of Gaussian 16 at Thu Dec 10 10:24:37 2020.
 Gaussian 16:  ES64L-G16RevA.03 25-Dec-2016

 ----------------------------------------------------------------------
 # B3LYP/6-311++G(d,p) empiricaldispersion=gd3bj scf=xqc pop=npa geom=c
 heck
 ----------------------------------------------------------------------

 ------------------------------------
 CID_125497472_JID_4456_Energie_anion
 ------------------------------------
 Structure from the checkpoint file:  "JID_4456.chk"
 Charge = -1 Multiplicity = 2

                         Standard orientation:
 ---------------------------------------------------------------------
 Center     Atomic      Atomic             Coordinates (Angstroms)
 Number     Number       Type             X           Y           Z
 ---------------------------------------------------------------------
      1          6           0       -2.825869   -2.204903   -0.380351
      2          6           0       -2.980499   -0.824247   -1.025951
      3          6           0       -3.330372    0.294153   -0.035392
      4          6           0       -2.268043    0.548586    1.050585
      5          6           0       -0.900851    0.893532    0.508465
      6          7           0       -0.720754    2.045744   -0.082909
      7          7           0       -0.590219    3.060717   -0.585785
      8          6           0        0.224036   -0.039431    0.550847
      9          8           0        0.145291   -1.140730    1.072778
     10          8           0        1.317929    0.478294   -0.047058
     11          6           0        2.566390   -0.294131   -0.154325
     12          6           0        2.321712   -1.561541   -0.975433
     13          6           0        3.487915    0.669572   -0.900651
     14          6           0        3.111320   -0.599496    1.241997
     15          1           0       -1.965950   -2.236364    0.294946
     16          1           0       -2.676096   -2.976218   -1.144176
     17          1           0       -3.723172   -2.473945    0.191517
     18          1           0       -2.053711   -0.562511   -1.554260
     19          1           0       -3.766613   -0.861825   -1.791198
     20          1           0       -3.501909    1.227450   -0.589587
     21          1           0       -4.278482    0.055914    0.466151
     22          1           0       -2.617290    1.341850    1.723402
     23          1           0       -2.116927   -0.345295    1.661314
     24          1           0        1.878579   -1.304944   -1.943573
     25          1           0        3.275975   -2.066749   -1.160007
     26          1           0        1.655349   -2.247299   -0.450854
     27          1           0        3.619528    1.594995   -0.331393
     28          1           0        4.469746    0.208927   -1.049304
     29          1           0        3.069357    0.922290   -1.879807
     30          1           0        3.217481    0.326338    1.817226
     31          1           0        2.450335   -1.278736    1.781548
     32          1           0        4.100421   -1.062204    1.154400
 ---------------------------------------------------------------------

 SCF Done:  E(UB3LYP) =  -652.077789730     A.U. after   32 cycles

 The electronic state is 2-A.
 Alpha  occ. eigenvalues --  -19.02151 -18.95694 -14.24087 -14.19162 -10.15279
 Alpha  occ. eigenvalues --  -10.12690 -10.05631 -10.05481 -10.05331 -10.04975
 Alpha  occ. eigenvalues --  -10.04854 -10.04821 -10.04809 -10.04756  -0.96092
 Alpha  occ. eigenvalues --   -0.92432  -0.87518  -0.71430  -0.69370  -0.67001
 Alpha  occ. eigenvalues --   -0.60432  -0.58423  -0.58344  -0.53520  -0.52063
 Alpha  occ. eigenvalues --   -0.46843  -0.43067  -0.39128  -0.36118  -0.35509
 Alpha  occ. eigenvalues --   -0.34666  -0.34524  -0.32951  -0.32499  -0.31588
 Alpha  occ. eigenvalues --   -0.29922  -0.29834  -0.28624  -0.28296  -0.27870
 Alpha  occ. eigenvalues --   -0.27248  -0.26610  -0.26570  -0.25785  -0.24566
 Alpha  occ. eigenvalues --   -0.23687  -0.23624  -0.21998  -0.21741  -0.21441
 Alpha  occ. eigenvalues --   -0.20854  -0.16952  -0.13725  -0.06487   0.05117
 Alpha virt. eigenvalues --    0.07036   0.07749   0.09245   0.09525   0.09955
 Alpha virt. eigenvalues --    0.10126   0.10368   0.11856   0.12068   0.12482
 Alpha virt. eigenvalues --    0.12682   0.13130   0.13333   0.13712   0.13839

  Beta  occ. eigenvalues --  -19.02152 -18.95703 -14.23487 -14.18314 -10.15216
  Beta  occ. eigenvalues --  -10.12690 -10.05630 -10.05552 -10.05335 -10.04948
  Beta  occ. eigenvalues --  -10.04852 -10.04806 -10.04795 -10.04684  -0.96040
  Beta  occ. eigenvalues --   -0.91151  -0.87513  -0.71073  -0.69310  -0.66674
  Beta  occ. eigenvalues --   -0.60241  -0.58395  -0.58304  -0.53381  -0.51749
  Beta  occ. eigenvalues --   -0.46731  -0.42874  -0.39073  -0.35860  -0.35302
  Beta  occ. eigenvalues --   -0.34646  -0.34487  -0.32594  -0.32129  -0.31424
  Beta  occ. eigenvalues --   -0.29769  -0.29582  -0.28192  -0.27633  -0.27071
  Beta  occ. eigenvalues --   -0.26836  -0.26458  -0.25747  -0.25710  -0.23802
  Beta  occ. eigenvalues --   -0.23608  -0.23122  -0.21806  -0.21662  -0.21326
  Beta  occ. eigenvalues --   -0.20571  -0.16994  -0.13515  -0.06276
  Beta virt. eigenvalues --    0.07403   0.07790   0.09206   0.09642   0.10028
  Beta virt. eigenvalues --    0.10059   0.10467   0.11810   0.12121   0.12401
  Beta virt. eigenvalues --    0.12623   0.13085   0.13590   0.13692   0.13838

 Mulliken charges and spin densities:
               1          2
     1  C   -0.562765  -0.041241
     2  C   -0.106435   0.006706
     3  C   -0.399425   0.056896
     4  C    0.105260  -0.122290
     5  C   -0.061279  -0.136145
     6  N    0.605326   0.062567
     7  N   -0.633335   0.622323
     8  C   -0.549071  -0.129141
     9  O   -0.273392  -0.006042
    10  O    0.151956  -0.000388
    11  C   -0.920478   0.919703
    12  C    0.249346  -0.662385
    13  C    0.130895  -0.539145
    14  C    0.177120  -0.566134
    15  H    0.202538  -0.015788
    16  H    0.078721   0.029343
    17  H    0.104449   0.001309
    18  H    0.130563   0.004689
    19  H    0.125692   0.011964
    20  H    0.154597  -0.002455
    21  H    0.090802   0.004455
    22  H    0.158256  -0.012625
    23  H    0.138919   0.045784
    24  H    0.116244   0.008193
    25  H   -0.094341   0.243966
    26  H    0.069478   0.107002
    27  H   -0.050815   0.204107
    28  H   -0.193137   0.329872
    29  H   -0.050571   0.208933
    30  H    0.113279   0.013197
    31  H    0.127697   0.064471
    32  H   -0.136094   0.288297
 Sum of Mulliken charges =  -1.00000   1.00000

 Dipole moment (field-independent basis, Debye):
    X=             -3.3112    Y=             -3.2806    Z=              0.6021  Tot=              4.6999
 Quadrupole moment (field-independent basis, Debye-Ang):
   XX=           -130.1812   YY=           -125.9841   ZZ=           -103.3878
   XY=              3.5167   XZ=              3.3748   YZ=              6.9639

 Summary of Natural Population Analysis:

                                       Natural Population
                Natural  -----------------------------------------------
    Atom  No    Charge         Core      Valence    Rydberg      Total
 -----------------------------------------------------------------------
      C    1   -0.29344      0.99967     2.28874    0.00503     3.29344
      C    2   -0.19068      0.99964     2.18500    0.00603     3.19068
      C    3   -0.18551      0.99963     2.17938    0.00649     3.18551
      C    4   -0.19084      0.99961     2.17914    0.01209     3.19084
      C    5   -0.09440      0.99948     2.08108    0.01383     3.09440
      N    6    0.08353      0.99964     2.40003    0.01679     3.41647
      N    7    0.10126      0.99982     2.38497    0.01395     3.39874
      C    8    0.38240      0.99960     1.59185    0.02616     2.61760
      O    9   -0.35454      0.99987     3.34957    0.00510     4.35454
      O   10   -0.29827      0.99985     3.28814    0.01028     4.29827
      C   11    0.13318      0.99954     1.85344    0.01384     2.86682
      C   12   -0.30175      0.99960     2.29560    0.00655     3.30175
      C   13   -0.28851      0.99960     2.28169    0.00721     3.28851
      C   14   -0.30177      0.99960     2.29559    0.00658     3.30177
      H   15    0.11439      0.00000     0.38444    0.00117     0.38561
      H   16    0.09263      0.00000     0.40634    0.00103     0.40737
      H   17    0.08750      0.00000     0.41130    0.00120     0.41250
      H   18    0.10025      0.00000     0.39822    0.00153     0.39975
      H   19    0.08682      0.00000     0.41210    0.00108     0.41318
      H   20    0.09603      0.00000     0.40299    0.00098     0.40397
      H   21    0.08602      0.00000     0.41284    0.00115     0.41398
      H   22    0.09254      0.00000     0.40649    0.00097     0.40746
      H   23    0.10914      0.00000     0.38941    0.00145     0.39086
      H   24    0.10097      0.00000     0.39813    0.00089     0.39903
      H   25    0.09789      0.00000     0.40125    0.00086     0.40211
      H   26    0.11489      0.00000     0.38415    0.00096     0.38511
      H   27    0.10423      0.00000     0.39469    0.00108     0.39577
      H   28    0.09781      0.00000     0.40102    0.00117     0.40219
      H   29    0.10438      0.00000     0.39453    0.00109     0.39562
      H   30    0.10103      0.00000     0.39816    0.00081     0.39897
      H   31    0.11517      0.00000     0.38391    0.00092     0.38483
      H   32    0.09765      0.00000     0.40148    0.00087     0.40235
 =======================================================================
   * Total *   -0.00000     13.99516    39.83568    0.16915    54.00000

 Normal termination of Gaussian 16 at Thu Dec 10 10:39:43 2020.
