 Gaussian 16, Revision A.03,

 -----------------------------------------------------------
 # opt freq B3LYP/6-31G(d) empiricaldispersion=gd3bj scf=xqc
 -----------------------------------------------------------

 -------------------------------
 CID_105797289_JID_5770_neutraal
 -------------------------------
 Symbolic Z-matrix:
 Charge =  0 Multiplicity = 1

 SCF Done:  E(RB3LYP) =  -656.501395822     A.U. after   14 cycles
 SCF Done:  E(RB3LYP) =  -656.504747676     A.U. after   11 cycles
 SCF Done:  E(RB3LYP) =  -656.505690996     A.U. after   12 cycles
 SCF Done:  E(RB3LYP) =  -656.506854524     A.U. after   14 cycles
 SCF Done:  E(RB3LYP) =  -656.507839631     A.U. after   12 cycles
 SCF Done:  E(RB3LYP) =  -656.508507087     A.U. after   12 cycles
 SCF Done:  E(RB3LYP) =  -656.508820532     A.U. after   13 cycles
 SCF Done:  E(RB3LYP) =  -656.508996995     A.U. after   11 cycles
 SCF Done:  E(RB3LYP) =  -656.509218650     A.U. after   11 cycles
 SCF Done:  E(RB3LYP) =  -656.509312577     A.U. after   11 cycles
 SCF Done:  E(RB3LYP) =  -656.509385681     A.U. after    9 cycles
 SCF Done:  E(RB3LYP) =  -656.509387801     A.U. after    8 cycles
 SCF Done:  E(RB3LYP) =  -656.509389710     A.U. after    9 cycles
 SCF Done:  E(RB3LYP) =  -656.509389855     A.U. after    7 cycles
 SCF Done:  E(RB3LYP) =  -656.509389894     A.U. after    7 cycles
 Optimization completed.
    -- Stationary point found.
 Normal termination of Gaussian 16 at Thu Dec 10 17:17:01 2020.

 --------------------------------------------------------------------
 #N Geom=AllCheck Guess=TCheck SCRF=Check GenChk RB3LYP/6-31G(d) Freq
 --------------------------------------------------------------------

 Structure from the checkpoint file:  "JID_5770.chk"
 -------------------------------
 CID_105797289_JID_5770_neutraal
 -------------------------------
 Charge =  0 Multiplicity = 1

 SCF Done:  E(RB3LYP) =  -656.509389894     A.U. after    1 cycles

  Exact polarizability: 172.352   3.571 131.125  -4.198  -1.030 121.282
 Approx polarizability: 205.519   8.357 192.948  -9.136  -8.539 181.354

                      1                      2                      3
                      A                      A                      A
 Frequencies --     26.1226                31.6791                34.6643
 Red. masses --      3.8562                 2.9194                 3.5290
 Frc consts  --      0.0016                 0.0017                 0.0025
 IR Inten    --      0.9388                 0.0087                 0.6766

                      4                      5                      6
                      A                      A                      A
 Frequencies --     52.6855                72.9617                94.5503
 Red. masses --      3.2149                 3.2306                 4.8594
 Frc consts  --      0.0053                 0.0101                 0.0256
 IR Inten    --      0.2114                 0.2518                 0.6650

                      7                      8                      9
                      A                      A                      A
 Frequencies --    121.9415               139.3957               182.8964
 Red. masses --      3.9548                 3.4450                 2.7202
 Frc consts  --      0.0346                 0.0394                 0.0536
 IR Inten    --      0.4035                 2.0453                 0.8377

                     10                     11                     12
                      A                      A                      A
 Frequencies --    223.8224               233.4117               251.0064
 Red. masses --      1.6623                 1.0281                 1.8815
 Frc consts  --      0.0491                 0.0330                 0.0698
 IR Inten    --      0.6517                 0.0162                 5.8325

                     13                     14                     15
                      A                      A                      A
 Frequencies --    258.1191               267.4742               273.8477
 Red. masses --      1.2001                 1.3397                 1.1531
 Frc consts  --      0.0471                 0.0565                 0.0509
 IR Inten    --      1.1485                 1.0261                 0.4402

                     16                     17                     18
                      A                      A                      A
 Frequencies --    301.4197               320.3828               325.2381
 Red. masses --      2.5424                 2.7461                 2.5450
 Frc consts  --      0.1361                 0.1661                 0.1586
 IR Inten    --      8.0742                 2.7760                 4.7352

                     19                     20                     21
                      A                      A                      A
 Frequencies --    363.6944               375.8752               396.8022
 Red. masses --      2.5024                 2.2689                 2.3415
 Frc consts  --      0.1950                 0.1889                 0.2172
 IR Inten    --      1.4246                 0.2698                 1.2794

                     22                     23                     24
                      A                      A                      A
 Frequencies --    435.0965               468.8284               488.0937
 Red. masses --      2.8890                 2.8188                 2.5449
 Frc consts  --      0.3222                 0.3650                 0.3572
 IR Inten    --      1.4950                 3.9837                 4.6932

                     25                     26                     27
                      A                      A                      A
 Frequencies --    498.4766               529.4843               545.7530
 Red. masses --      1.7769                 3.6597                 3.4881
 Frc consts  --      0.2601                 0.6045                 0.6121
 IR Inten    --     19.4177                 5.4445                11.9332

                     28                     29                     30
                      A                      A                      A
 Frequencies --    646.7651               656.2632               727.2813
 Red. masses --      2.1638                 2.0517                 2.3988
 Frc consts  --      0.5333                 0.5206                 0.7476
 IR Inten    --     52.4908                34.6567                11.1119

                     31                     32                     33
                      A                      A                      A
 Frequencies --    779.3356               809.6660               842.5883
 Red. masses --      2.5756                 1.1151                 1.7457
 Frc consts  --      0.9217                 0.4307                 0.7302
 IR Inten    --     36.8935                 2.0707                58.7669

                     34                     35                     36
                      A                      A                      A
 Frequencies --    874.7218               890.2281               932.3653
 Red. masses --      2.2500                 2.4957                 2.2087
 Frc consts  --      1.0143                 1.1653                 1.1313
 IR Inten    --     23.1499                 9.4898                10.4042

                     37                     38                     39
                      A                      A                      A
 Frequencies --    938.7192               942.8439               947.2650
 Red. masses --      1.8139                 1.2313                 1.4753
 Frc consts  --      0.9418                 0.6449                 0.7800
 IR Inten    --      4.9938                 1.0000                 0.8790

                     40                     41                     42
                      A                      A                      A
 Frequencies --    959.0590               961.1309               971.9551
 Red. masses --      1.5152                 1.4245                 1.4462
 Frc consts  --      0.8211                 0.7753                 0.8050
 IR Inten    --      3.2966                 0.8788                 0.9958

                     43                     44                     45
                      A                      A                      A
 Frequencies --    984.0360               994.7575              1003.2068
 Red. masses --      1.8459                 1.9257                 1.8750
 Frc consts  --      1.0531                 1.1227                 1.1118
 IR Inten    --      1.1451                21.1126                 6.4900

                     46                     47                     48
                      A                      A                      A
 Frequencies --   1035.4547              1065.1679              1089.8547
 Red. masses --      1.9426                 1.3888                 1.3804
 Frc consts  --      1.2272                 0.9284                 0.9660
 IR Inten    --      8.6408                 8.3412                 4.0934

                     49                     50                     51
                      A                      A                      A
 Frequencies --   1118.5948              1130.9676              1155.6685
 Red. masses --      1.7530                 1.8852                 2.1862
 Frc consts  --      1.2924                 1.4207                 1.7203
 IR Inten    --     17.7399                 4.4737                11.6429

                     52                     53                     54
                      A                      A                      A
 Frequencies --   1156.8533              1182.1419              1199.5700
 Red. masses --      2.1421                 3.9834                 1.9057
 Frc consts  --      1.6890                 3.2798                 1.6157
 IR Inten    --      8.3448                54.5964                 1.3624

                     55                     56                     57
                      A                      A                      A
 Frequencies --   1204.1160              1207.5680              1214.8247
 Red. masses --      1.3877                 1.8360                 2.4659
 Frc consts  --      1.1854                 1.5774                 2.1442
 IR Inten    --      1.2543                 6.2228                36.0374

                     58                     59                     60
                      A                      A                      A
 Frequencies --   1245.3927              1295.6636              1318.4969
 Red. masses --      1.3197                 1.5913                 1.5994
 Frc consts  --      1.2060                 1.5739                 1.6382
 IR Inten    --      8.8600                 3.9397               100.7233

                     61                     62                     63
                      A                      A                      A
 Frequencies --   1319.9593              1363.0045              1366.9447
 Red. masses --      1.7459                 1.3881                 1.5148
 Frc consts  --      1.7922                 1.5194                 1.6676
 IR Inten    --     75.0608                 2.4105                 6.5289

                     64                     65                     66
                      A                      A                      A
 Frequencies --   1369.7443              1377.2697              1397.3708
 Red. masses --      1.4857                 1.3202                 1.6266
 Frc consts  --      1.6424                 1.4755                 1.8713
 IR Inten    --      1.9025                 8.0351                10.1744

                     67                     68                     69
                      A                      A                      A
 Frequencies --   1414.0679              1425.4457              1429.6660
 Red. masses --      1.9189                 1.2630                 1.2623
 Frc consts  --      2.2607                 1.5120                 1.5202
 IR Inten    --     63.2108                 6.0559                 9.0378

                     70                     71                     72
                      A                      A                      A
 Frequencies --   1445.1723              1448.6574              1450.6590
 Red. masses --      1.2524                 1.2956                 1.3898
 Frc consts  --      1.5412                 1.6020                 1.7232
 IR Inten    --      8.2558                 3.8176                18.9844

                     73                     74                     75
                      A                      A                      A
 Frequencies --   1485.5685              1497.4541              1499.0347
 Red. masses --      1.3426                 1.1247                 1.1726
 Frc consts  --      1.7458                 1.4859                 1.5524
 IR Inten    --     26.0192                23.3554                22.1515

                     76                     77                     78
                      A                      A                      A
 Frequencies --   1514.1979              1517.5181              1518.2373
 Red. masses --      1.0433                 1.0461                 1.0567
 Frc consts  --      1.4093                 1.4193                 1.4352
 IR Inten    --      0.4864                 0.9679                 6.1372

                     79                     80                     81
                      A                      A                      A
 Frequencies --   1524.0617              1528.6716              1532.7028
 Red. masses --      1.0718                 1.1454                 1.1172
 Frc consts  --      1.4668                 1.5770                 1.5464
 IR Inten    --      0.8954                 6.3851                 7.5154

                     82                     83                     84
                      A                      A                      A
 Frequencies --   1533.5364              1534.9410              1538.5007
 Red. masses --      1.0791                 1.2169                 1.0984
 Frc consts  --      1.4953                 1.6893                 1.5319
 IR Inten    --     12.0185                24.3723                 1.6688

                     85                     86                     87
                      A                      A                      A
 Frequencies --   1547.4508              1550.9708              1772.4577
 Red. masses --      1.0900                 1.0797                 8.1168
 Frc consts  --      1.5379                 1.5303                15.0241
 IR Inten    --      6.2283                 1.4647               364.8522

                     88                     89                     90
                      A                      A                      A
 Frequencies --   2988.8498              3006.2661              3031.1440
 Red. masses --      1.0691                 1.0833                 1.0654
 Frc consts  --      5.6268                 5.7686                 5.7673
 IR Inten    --     39.6474                32.5545                49.7054

                     91                     92                     93
                      A                      A                      A
 Frequencies --   3041.2918              3045.7963              3046.9167
 Red. masses --      1.0380                 1.0409                 1.0372
 Frc consts  --      5.6565                 5.6891                 5.6734
 IR Inten    --     24.4513                21.6518                17.6810

                     94                     95                     96
                      A                      A                      A
 Frequencies --   3051.3442              3052.5139              3081.6664
 Red. masses --      1.0383                 1.0847                 1.0936
 Frc consts  --      5.6956                 5.9550                 6.1190
 IR Inten    --     25.1069                52.7198                 8.7711

                     97                     98                     99
                      A                      A                      A
 Frequencies --   3089.1428              3102.3566              3109.9569
 Red. masses --      1.0877                 1.1017                 1.1022
 Frc consts  --      6.1156                 6.2476                 6.2806
 IR Inten    --      8.4461                33.9472                50.9501

                    100                    101                    102
                      A                      A                      A
 Frequencies --   3111.9716              3113.8804              3124.7096
 Red. masses --      1.1021                 1.1005                 1.0993
 Frc consts  --      6.2882                 6.2869                 6.3237
 IR Inten    --     32.7563                 2.6491                59.4895

                    103                    104                    105
                      A                      A                      A
 Frequencies --   3128.3659              3139.1700              3139.7421
 Red. masses --      1.1025                 1.1036                 1.0507
 Frc consts  --      6.3570                 6.4077                 6.1028
 IR Inten    --     31.1183                27.2004                19.5435

                    106                    107                    108
                      A                      A                      A
 Frequencies --   3143.1161              3143.7926              3214.5067
 Red. masses --      1.0780                 1.0790                 1.1191
 Frc consts  --      6.2749                 6.2830                 6.8131
 IR Inten    --      2.4804                29.0717                 4.1654

                    109                    110                    111
                      A                      A                      A
 Frequencies --   3228.4202              3485.5005              3560.3246
 Red. masses --      1.1165                 1.0724                 1.0752
 Frc consts  --      6.8563                 7.6758                 8.0301
 IR Inten    --     19.8857                 2.1662                10.1313

 - Thermochemistry -
 -------------------
 Temperature   298.150 Kelvin.  Pressure   1.00000 Atm.
 Atom     1 has atomic number  6 and mass  12.00000

 Molecular mass:   212.18886 amu.
 Principal axes and moments of inertia in atomic units:
                           1         2         3
     Eigenvalues --  1472.961607639.155758037.36211
           X            1.00000   0.00131  -0.00281
           Y           -0.00121   0.99935   0.03592
           Z            0.00286  -0.03591   0.99935
 This molecule is an asymmetric top.
 Rotational symmetry number  1.
 Warning -- assumption of classical behavior for rotation
           may cause significant error
 Rotational temperatures (Kelvin)      0.05880     0.01134     0.01078
 Rotational constants (GHZ):           1.22525     0.23625     0.22454
 Zero-point vibrational energy     932371.0 (Joules/Mol)
                                  222.84202 (Kcal/Mol)
 Warning -- explicit consideration of  27 degrees of freedom as
           vibrations may cause significant error
 Vibrational temperatures:     37.58    45.58    49.87    75.80   104.98
          (Kelvin)            136.04   175.45   200.56   263.15   322.03
                              335.83   361.14   371.38   384.84   394.01
                              433.68   460.96   467.95   523.28   540.80
                              570.91   626.01   674.54   702.26   717.20
                              761.81   785.22   930.55   944.22  1046.40
                             1121.29  1164.93  1212.30  1258.53  1280.84
                             1341.47  1350.61  1356.54  1362.90  1379.87
                             1382.85  1398.43  1415.81  1431.23  1443.39
                             1489.79  1532.54  1568.06  1609.41  1627.21
                             1662.75  1664.45  1700.84  1725.91  1732.45
                             1737.42  1747.86  1791.84  1864.17  1897.02
                             1899.13  1961.06  1966.73  1970.76  1981.58
                             2010.50  2034.53  2050.90  2056.97  2079.28
                             2084.29  2087.17  2137.40  2154.50  2156.78
                             2178.59  2183.37  2184.40  2192.78  2199.42
                             2205.22  2206.42  2208.44  2213.56  2226.44
                             2231.50  2550.17  4300.29  4325.35  4361.14
                             4375.74  4382.22  4383.83  4390.20  4391.89
                             4433.83  4444.59  4463.60  4474.53  4477.43
                             4480.18  4495.76  4501.02  4516.57  4517.39
                             4522.24  4523.22  4624.96  4644.98  5014.86
                             5122.51

 Zero-point correction=                           0.355121 (Hartree/Particle)
 Thermal correction to Energy=                    0.372955
 Thermal correction to Enthalpy=                  0.373899
 Thermal correction to Gibbs Free Energy=         0.308142
 Sum of electronic and zero-point Energies=           -656.154269
 Sum of electronic and thermal Energies=              -656.136435
 Sum of electronic and thermal Enthalpies=            -656.135490
 Sum of electronic and thermal Free Energies=         -656.201247

                     E (Thermal)             CV                S
                      KCal/Mol        Cal/Mol-Kelvin    Cal/Mol-Kelvin
 Total                  234.033             66.598            138.397
 Electronic               0.000              0.000              0.000
 Translational            0.889              2.981             41.960
 Rotational               0.889              2.981             32.869
 Vibrational            232.256             60.636             63.567
 Vibration     1          0.593              1.985              6.104
 Vibration     2          0.594              1.983              5.721
 Vibration     3          0.594              1.983              5.543
 Vibration     4          0.596              1.977              4.714
 Vibration     5          0.599              1.967              4.072
 Vibration     6          0.603              1.953              3.564
 Vibration     7          0.609              1.931              3.069
 Vibration     8          0.615              1.914              2.812
 Vibration     9          0.630              1.863              2.299
 Vibration    10          0.649              1.805              1.928
 Vibration    11          0.654              1.790              1.853
 Vibration    12          0.663              1.761              1.724
 Vibration    13          0.667              1.749              1.674
 Vibration    14          0.673              1.733              1.612
 Vibration    15          0.676              1.722              1.572
 Vibration    16          0.693              1.671              1.409
 Vibration    17          0.706              1.635              1.308
 Vibration    18          0.709              1.625              1.284
 Vibration    19          0.737              1.547              1.106
 Vibration    20          0.747              1.522              1.056
 Vibration    21          0.763              1.477              0.974
 Vibration    22          0.796              1.394              0.842
 Vibration    23          0.826              1.319              0.741
 Vibration    24          0.844              1.276              0.689
 Vibration    25          0.854              1.253              0.662
 Vibration    26          0.884              1.185              0.588
 Vibration    27          0.901              1.149              0.553

 Optimization completed.
    -- Stationary point found.
 Normal termination of Gaussian 16 at Thu Dec 10 17:30:20 2020.

 ----------------------------------------------------------------------
 # B3LYP/6-311++G(d,p) empiricaldispersion=gd3bj scf=xqc pop=npa geom=c
 heck
 ----------------------------------------------------------------------

 ---------------------------------------
 CID_105797289_JID_5770_Energie_neutraal
 ---------------------------------------
 Structure from the checkpoint file:  "JID_5770.chk"
 Charge =  0 Multiplicity = 1

 SCF Done:  E(RB3LYP) =  -656.701090488     A.U. after   14 cycles
 Normal termination of Gaussian 16 at Thu Dec 10 17:36:18 2020.

 ----------------------------------------------------------------------
 # B3LYP/6-311++G(d,p) empiricaldispersion=gd3bj scf=xqc pop=npa geom=c
 heck
 ----------------------------------------------------------------------

 -------------------------------------
 CID_105797289_JID_5770_Energie_kation
 -------------------------------------
 Structure from the checkpoint file:  "JID_5770.chk"
 Charge =  1 Multiplicity = 2

 SCF Done:  E(UB3LYP) =  -656.399604335     A.U. after   25 cycles
 Normal termination of Gaussian 16 at Thu Dec 10 17:50:44 2020.
 Gaussian 16:  ES64L-G16RevA.03 25-Dec-2016

 ----------------------------------------------------------------------
 # B3LYP/6-311++G(d,p) empiricaldispersion=gd3bj scf=xqc pop=npa geom=c
 heck
 ----------------------------------------------------------------------

 ------------------------------------
 CID_105797289_JID_5770_Energie_anion
 ------------------------------------
 Structure from the checkpoint file:  "JID_5770.chk"
 Charge = -1 Multiplicity = 2

                         Standard orientation:
 ---------------------------------------------------------------------
 Center     Atomic      Atomic             Coordinates (Angstroms)
 Number     Number       Type             X           Y           Z
 ---------------------------------------------------------------------
      1          6           0        3.807872   -1.421106    1.302191
      2          6           0        3.633057   -0.571756    0.036539
      3          6           0        3.397159   -1.459433   -1.193900
      4          6           0        2.559408    0.506236    0.219831
      5          6           0        3.024472    1.845610    0.746105
      6          6           0        2.615034    1.706634   -0.700515
      7          6           0        1.166411    0.085259    0.652762
      8          7           0        0.474824   -0.684394   -0.391875
      9          6           0       -0.953051   -0.763931   -0.162027
     10          6           0       -1.684081    0.560020   -0.461238
     11          8           0       -1.108361    1.484885   -1.028066
     12          7           0       -2.991681    0.664399   -0.079950
     13          6           0       -3.883670   -0.401478    0.378409
     14          6           0       -4.920239    0.191601    1.335385
     15          6           0       -4.545409   -1.131517   -0.798438
     16          1           0        2.928948   -2.051969    1.478325
     17          1           0        3.956709   -0.790397    2.186495
     18          1           0        4.674394   -2.085631    1.207860
     19          1           0        4.577109   -0.031183   -0.128089
     20          1           0        2.476857   -2.038817   -1.083360
     21          1           0        3.303932   -0.852028   -2.101842
     22          1           0        4.236365   -2.151467   -1.335716
     23          1           0        2.368982    2.398813    1.413356
     24          1           0        4.082228    1.959673    0.968982
     25          1           0        3.397418    1.731993   -1.454926
     26          1           0        1.671766    2.147822   -1.011581
     27          1           0        1.216490   -0.538211    1.555246
     28          1           0        0.606722    0.995183    0.922859
     29          1           0        0.613000   -0.182905   -1.269089
     30          1           0       -1.389079   -1.547016   -0.798671
     31          1           0       -1.131190   -1.073762    0.874451
     32          1           0       -3.430461    1.524824   -0.392144
     33          1           0       -3.272679   -1.117086    0.936949
     34          1           0       -5.542728    0.933856    0.819557
     35          1           0       -5.584389   -0.590394    1.717091
     36          1           0       -4.432667    0.682780    2.182813
     37          1           0       -3.792532   -1.552262   -1.472657
     38          1           0       -5.183371   -1.948195   -0.442170
     39          1           0       -5.168721   -0.439571   -1.377071
 ---------------------------------------------------------------------

 SCF Done:  E(UB3LYP) =  -656.689977529     A.U. after   33 cycles
 SCF Done:  E(UB3LYP) =  -656.689977529     a.u. after    1 cycles

 The electronic state is 2-A.
 Alpha  occ. eigenvalues --  -18.99504 -14.23890 -14.20168 -10.17662 -10.12170
 Alpha  occ. eigenvalues --  -10.10794 -10.09763 -10.09430 -10.08899 -10.08400
 Alpha  occ. eigenvalues --  -10.08032 -10.07061 -10.06626 -10.06537 -10.06308
 Alpha  occ. eigenvalues --   -0.94548  -0.83126  -0.81901  -0.77669  -0.69336
 Alpha  occ. eigenvalues --   -0.68378  -0.63278  -0.59713  -0.59555  -0.56795
 Alpha  occ. eigenvalues --   -0.52180  -0.51915  -0.51490  -0.48098  -0.45294
 Alpha  occ. eigenvalues --   -0.41713  -0.39927  -0.39727  -0.38203  -0.36882
 Alpha  occ. eigenvalues --   -0.35969  -0.35094  -0.34524  -0.33533  -0.32653
 Alpha  occ. eigenvalues --   -0.32107  -0.31191  -0.30267  -0.29764  -0.29426
 Alpha  occ. eigenvalues --   -0.28890  -0.28319  -0.27833  -0.27087  -0.25715
 Alpha  occ. eigenvalues --   -0.25555  -0.25444  -0.25081  -0.23082  -0.20206
 Alpha  occ. eigenvalues --   -0.19001  -0.17204  -0.16125  -0.13700   0.04133
 Alpha virt. eigenvalues --    0.05529   0.07075   0.07221   0.07668   0.07924
 Alpha virt. eigenvalues --    0.08225   0.09548   0.09627   0.10001   0.10302
 Alpha virt. eigenvalues --    0.10368   0.10882   0.11182   0.11799   0.11993

  Beta  occ. eigenvalues --  -18.99501 -14.23877 -14.20164 -10.17660 -10.12155
  Beta  occ. eigenvalues --  -10.10769 -10.09753 -10.09429 -10.08894 -10.08395
  Beta  occ. eigenvalues --  -10.08029 -10.07046 -10.06569 -10.06487 -10.06300
  Beta  occ. eigenvalues --   -0.94539  -0.83102  -0.81893  -0.77662  -0.69323
  Beta  occ. eigenvalues --   -0.68328  -0.63243  -0.59630  -0.59516  -0.56760
  Beta  occ. eigenvalues --   -0.52155  -0.51828  -0.51474  -0.48055  -0.45277
  Beta  occ. eigenvalues --   -0.41693  -0.39907  -0.39708  -0.38163  -0.36851
  Beta  occ. eigenvalues --   -0.35924  -0.35049  -0.34502  -0.33514  -0.32606
  Beta  occ. eigenvalues --   -0.32088  -0.31166  -0.30243  -0.29727  -0.29395
  Beta  occ. eigenvalues --   -0.28858  -0.28276  -0.27822  -0.27054  -0.25673
  Beta  occ. eigenvalues --   -0.25535  -0.25415  -0.25020  -0.23069  -0.20198
  Beta  occ. eigenvalues --   -0.18994  -0.17196  -0.16109  -0.13685
  Beta virt. eigenvalues --    0.05759   0.06763   0.07264   0.07430   0.08257
  Beta virt. eigenvalues --    0.08406   0.08843   0.09580   0.10025   0.10170
  Beta virt. eigenvalues --    0.10465   0.10631   0.11029   0.11450   0.12237

 Mulliken charges and spin densities:
               1          2
     1  C   -0.076598  -0.601120
     2  C   -0.001563   0.581116
     3  C   -0.430336  -0.328709
     4  C    0.226656   0.450416
     5  C   -0.337870  -0.119971
     6  C   -0.475609  -0.123740
     7  C   -0.126224  -0.868276
     8  N    0.004973   0.121197
     9  C    0.347484  -0.800969
    10  C   -0.088149   0.031716
    11  O   -0.320963  -0.005861
    12  N   -0.032100   0.016691
    13  C   -1.239140   1.253288
    14  C    0.805549  -1.282689
    15  C    1.670256  -2.163314
    16  H    0.006383   0.146209
    17  H    0.021949   0.115136
    18  H   -0.056788   0.200423
    19  H   -0.061614   0.208713
    20  H    0.165013   0.035885
    21  H    0.089123   0.037621
    22  H   -0.029671   0.157896
    23  H    0.035372   0.109484
    24  H    0.099426   0.042369
    25  H    0.103164   0.033301
    26  H    0.192313   0.012608
    27  H    0.056881   0.098129
    28  H    0.234097  -0.092243
    29  H    0.243311  -0.003569
    30  H   -0.079480   0.270300
    31  H   -0.136958   0.361927
    32  H    0.193909   0.078333
    33  H   -0.042258   0.182513
    34  H   -0.299110   0.435160
    35  H   -0.378029   0.539476
    36  H   -0.445573   0.602789
    37  H   -0.258225   0.389331
    38  H   -0.419299   0.568169
    39  H   -0.160304   0.310265
 Sum of Mulliken charges =  -1.00000   1.00000

 Dipole moment (field-independent basis, Debye):
    X=              8.3881    Y=              2.5971    Z=             -1.6256  Tot=              8.9301
 Quadrupole moment (field-independent basis, Debye-Ang):
   XX=           -210.8657   YY=           -137.5534   ZZ=           -132.4865
   XY=             -5.9179   XZ=              6.7044   YZ=              2.4380

 Summary of Natural Population Analysis:

                                       Natural Population
                Natural  -----------------------------------------------
    Atom  No    Charge         Core      Valence    Rydberg      Total
 -----------------------------------------------------------------------
      C    1   -0.28447      0.99965     2.27988    0.00494     3.28447
      C    2   -0.10732      0.99957     2.09608    0.01168     3.10732
      C    3   -0.28752      0.99964     2.28280    0.00508     3.28752
      C    4   -0.04243      0.99952     2.02991    0.01301     3.04243
      C    5   -0.19327      0.99959     2.18578    0.00790     3.19327
      C    6   -0.20159      0.99958     2.19376    0.00824     3.20159
      C    7   -0.08537      0.99956     2.07361    0.01220     3.08537
      N    8   -0.33971      0.99975     2.82864    0.01131     3.83971
      C    9   -0.13191      0.99959     2.12223    0.01010     3.13191
      C   10    0.34001      0.99968     1.63855    0.02176     2.65999
      O   11   -0.33578      0.99988     3.32993    0.00598     4.33578
      N   12   -0.31794      0.99966     2.80734    0.01094     3.81794
      C   13   -0.01568      0.99961     2.00508    0.01100     3.01568
      C   14   -0.28602      0.99965     2.28029    0.00608     3.28602
      C   15   -0.28762      0.99964     2.28232    0.00566     3.28762
      H   16    0.10009      0.00000     0.39895    0.00096     0.39991
      H   17    0.09893      0.00000     0.40011    0.00096     0.40107
      H   18    0.09770      0.00000     0.40143    0.00087     0.40230
      H   19    0.09048      0.00000     0.40744    0.00208     0.40952
      H   20    0.11052      0.00000     0.38803    0.00145     0.38948
      H   21    0.09673      0.00000     0.40241    0.00086     0.40327
      H   22    0.09360      0.00000     0.40551    0.00089     0.40640
      H   23    0.10229      0.00000     0.39679    0.00091     0.39771
      H   24    0.09951      0.00000     0.39950    0.00099     0.40049
      H   25    0.09953      0.00000     0.39960    0.00087     0.40047
      H   26    0.11390      0.00000     0.38512    0.00098     0.38610
      H   27    0.09374      0.00000     0.40500    0.00125     0.40626
      H   28    0.08835      0.00000     0.40983    0.00182     0.41165
      H   29    0.17821      0.00000     0.31852    0.00327     0.32179
      H   30    0.10750      0.00000     0.39108    0.00141     0.39250
      H   31    0.10390      0.00000     0.39447    0.00163     0.39610
      H   32    0.19141      0.00000     0.30602    0.00258     0.30859
      H   33    0.09805      0.00000     0.39894    0.00301     0.40195
      H   34    0.09715      0.00000     0.40125    0.00160     0.40285
      H   35    0.10699      0.00000     0.39103    0.00198     0.39301
      H   36    0.10418      0.00000     0.39422    0.00160     0.39582
      H   37    0.10014      0.00000     0.39845    0.00141     0.39986
      H   38    0.10530      0.00000     0.39285    0.00185     0.39470
      H   39    0.09842      0.00000     0.40024    0.00134     0.40158
 =======================================================================
   * Total *   -0.00000     14.99457    43.82298    0.18246    59.00000

 Normal termination of Gaussian 16 at Thu Dec 10 18:06:58 2020.
