 Gaussian 16, Revision A.03,

 -----------------------------------------------------------
 # opt freq B3LYP/6-31G(d) empiricaldispersion=gd3bj scf=xqc
 -----------------------------------------------------------

 -------------------------------
 CID_117276385_JID_2260_neutraal
 -------------------------------
 Symbolic Z-matrix:
 Charge =  0 Multiplicity = 1

 SCF Done:  E(RB3LYP) =  -574.668689972     A.U. after   15 cycles
 SCF Done:  E(RB3LYP) =  -574.661172590     A.U. after   14 cycles
 SCF Done:  E(RB3LYP) =  -574.669447518     A.U. after   13 cycles
 SCF Done:  E(RB3LYP) =  -574.669816590     A.U. after   13 cycles
 SCF Done:  E(RB3LYP) =  -574.671666855     A.U. after   13 cycles
 SCF Done:  E(RB3LYP) =  -574.671191460     A.U. after   13 cycles
 SCF Done:  E(RB3LYP) =  -574.671834246     A.U. after   11 cycles
 SCF Done:  E(RB3LYP) =  -574.671488954     A.U. after   13 cycles
 SCF Done:  E(RB3LYP) =  -574.671894998     A.U. after   11 cycles
 SCF Done:  E(RB3LYP) =  -574.671905509     A.U. after   10 cycles
 SCF Done:  E(RB3LYP) =  -574.671909064     A.U. after    9 cycles
 SCF Done:  E(RB3LYP) =  -574.671909497     A.U. after    8 cycles
 Optimization completed.
    -- Stationary point found.

 1\1\GINC-NODE115\FOpt\RB3LYP\6-31G(d)\C9H10O3\VSC10255\09-Dec-2020\0\\
 # opt freq B3LYP/6-31G(d) empiricaldispersion=gd3bj scf=xqc\\CID_11727
 6385_JID_2260_neutraal\\0,1\C,-0.6640307188,-1.2091776276,-0.002336665
 9\C,0.6839810313,-1.2601145225,-0.3305544626\C,1.4734553389,-0.1028595
 912,-0.3363223384\C,0.889035383,1.1359246523,-0.0246714074\C,-0.469748
 049,1.1721812132,0.3210701228\C,-1.2466217216,0.0159861473,0.336624123
 8\O,-2.5802442102,0.0180563079,0.6643555895\C,1.6764568053,2.427051803
 4,-0.0755285422\C,2.1688205369,2.9172592315,1.2951957652\C,3.337617115

 Normal termination of Gaussian 16 at Wed Dec  9 16:55:29 2020.

 --------------------------------------------------------------------
 #N Geom=AllCheck Guess=TCheck SCRF=Check GenChk RB3LYP/6-31G(d) Freq
 --------------------------------------------------------------------

 Structure from the checkpoint file:  "JID_2260.chk"
 -------------------------------
 CID_117276385_JID_2260_neutraal
 -------------------------------
 Charge =  0 Multiplicity = 1

 SCF Done:  E(RB3LYP) =  -574.671909497     A.U. after    1 cycles

  Exact polarizability: 123.339  -1.732 112.961   9.527  -4.745  59.271
 Approx polarizability: 181.597   9.169 196.267  23.864  -7.793  89.131

                      1                      2                      3
                      A                      A                      A
 Frequencies --     49.1834               106.0399               129.3683
 Red. masses --      6.7082                 3.6122                 4.6780
 Frc consts  --      0.0096                 0.0239                 0.0461
 IR Inten    --      0.0936                 1.4646                 2.2476

                      4                      5                      6
                      A                      A                      A
 Frequencies --    183.2185               187.8162               222.1974
 Red. masses --      3.4111                 3.7760                 5.6249
 Frc consts  --      0.0675                 0.0785                 0.1636
 IR Inten    --      0.4157                 0.7164                14.7003

                      7                      8                      9
                      A                      A                      A
 Frequencies --    303.6881               317.7919               332.5052
 Red. masses --      3.7756                 1.1026                 2.6486
 Frc consts  --      0.2052                 0.0656                 0.1725
 IR Inten    --      2.3027               115.3645                 3.1380

                     10                     11                     12
                      A                      A                      A
 Frequencies --    364.1800               391.5271               453.4479
 Red. masses --      5.3867                 4.3801                 4.3528
 Frc consts  --      0.4209                 0.3956                 0.5273
 IR Inten    --      6.5021                 4.6544                 4.9173

                     13                     14                     15
                      A                      A                      A
 Frequencies --    487.2078               509.9523               566.9875
 Red. masses --      4.3904                 3.4741                 2.9778
 Frc consts  --      0.6140                 0.5323                 0.5640
 IR Inten    --      8.4713                10.7605                 2.3781

                     16                     17                     18
                      A                      A                      A
 Frequencies --    604.4821               607.5240               686.5694
 Red. masses --      1.9369                 1.6642                 2.4511
 Frc consts  --      0.4170                 0.3619                 0.6807
 IR Inten    --     22.2635                57.6616                24.9169

                     19                     20                     21
                      A                      A                      A
 Frequencies --    708.2871               720.4789               768.7675
 Red. masses --      2.3464                 4.5179                 3.0061
 Frc consts  --      0.6935                 1.3817                 1.0468
 IR Inten    --      5.0335                 4.9671                21.5395

                     22                     23                     24
                      A                      A                      A
 Frequencies --    805.9761               834.6021               843.1159
 Red. masses --      2.7255                 1.5668                 1.6031
 Frc consts  --      1.0431                 0.6430                 0.6714
 IR Inten    --     10.2836                 4.1794                32.1493

                     25                     26                     27
                      A                      A                      A
 Frequencies --    867.9026               947.7690               952.7843
 Red. masses --      2.9741                 1.3030                 2.2442
 Frc consts  --      1.3199                 0.6896                 1.2003
 IR Inten    --     17.8898                 0.3532                 2.3959

                     28                     29                     30
                      A                      A                      A
 Frequencies --    977.2453              1035.5311              1075.7295
 Red. masses --      2.3308                 1.8955                 1.9681
 Frc consts  --      1.3115                 1.1976                 1.3418
 IR Inten    --     12.4605                 7.1328                 2.6046

                     31                     32                     33
                      A                      A                      A
 Frequencies --   1131.3695              1182.7633              1205.2062
 Red. masses --      1.7461                 1.6296                 1.3888
 Frc consts  --      1.3168                 1.3431                 1.1886
 IR Inten    --      4.3452                25.6603                31.7150

                     34                     35                     36
                      A                      A                      A
 Frequencies --   1213.3653              1260.1717              1264.9561
 Red. masses --      1.3544                 1.3509                 1.6041
 Frc consts  --      1.1749                 1.2640                 1.5123
 IR Inten    --    147.1457                42.8835                34.1169

                     37                     38                     39
                      A                      A                      A
 Frequencies --   1288.4413              1345.2441              1365.8432
 Red. masses --      2.1916                 3.1712                 2.0169
 Frc consts  --      2.1436                 3.3812                 2.2168
 IR Inten    --     93.9619                 0.5583                28.0541

                     40                     41                     42
                      A                      A                      A
 Frequencies --   1385.0960              1398.6949              1411.5343
 Red. masses --      1.7509                 1.5800                 1.6955
 Frc consts  --      1.9792                 1.8212                 1.9903
 IR Inten    --     21.1363                55.0731                46.4428

                     43                     44                     45
                      A                      A                      A
 Frequencies --   1440.2846              1467.4623              1508.3201
 Red. masses --      1.1809                 1.0998                 2.3135
 Frc consts  --      1.4433                 1.3954                 3.1010
 IR Inten    --     11.6643                24.5283                52.1173

                     46                     47                     48
                      A                      A                      A
 Frequencies --   1524.6544              1557.8811              1659.5311
 Red. masses --      1.2003                 3.1189                 5.8446
 Frc consts  --      1.6439                 4.4599                 9.4837
 IR Inten    --      6.5685               153.4646                 1.4649

                     49                     50                     51
                      A                      A                      A
 Frequencies --   1682.7853              1814.4070              2949.7560
 Red. masses --      6.3443                 9.4241                 1.0848
 Frc consts  --     10.5850                18.2793                 5.5612
 IR Inten    --     20.0343               123.9532               126.2365

                     52                     53                     54
                      A                      A                      A
 Frequencies --   3014.9174              3054.8075              3066.5492
 Red. masses --      1.0682                 1.0892                 1.0662
 Frc consts  --      5.7208                 5.9884                 5.9074
 IR Inten    --     38.0293                 3.1608                31.8924

                     55                     56                     57
                      A                      A                      A
 Frequencies --   3110.2010              3143.2824              3208.7735
 Red. masses --      1.1011                 1.0893                 1.0877
 Frc consts  --      6.2755                 6.3413                 6.5982
 IR Inten    --      7.9779                23.3792                 6.1064

                     58                     59                     60
                      A                      A                      A
 Frequencies --   3223.3643              3573.7580              3755.8818
 Red. masses --      1.0951                 1.0661                 1.0659
 Frc consts  --      6.7038                 8.0222                 8.8592
 IR Inten    --      8.6876               491.6570                31.2161

 - Thermochemistry -
 -------------------
 Temperature   298.150 Kelvin.  Pressure   1.00000 Atm.
 Atom     1 has atomic number  6 and mass  12.00000

 Molecular mass:   166.06299 amu.
 Principal axes and moments of inertia in atomic units:
                           1         2         3
     Eigenvalues --  1086.751702877.506503558.42028
           X            0.99973  -0.02274   0.00394
           Y            0.02280   0.99962  -0.01575
           Z           -0.00358   0.01583   0.99987
 This molecule is an asymmetric top.
 Rotational symmetry number  1.
 Warning -- assumption of classical behavior for rotation
           may cause significant error
 Rotational temperatures (Kelvin)      0.07970     0.03010     0.02434
 Rotational constants (GHZ):           1.66067     0.62719     0.50717
 Zero-point vibrational energy     462064.7 (Joules/Mol)
                                  110.43611 (Kcal/Mol)
 Warning -- explicit consideration of  17 degrees of freedom as
           vibrations may cause significant error
 Vibrational temperatures:     70.76   152.57   186.13   263.61   270.23
          (Kelvin)            319.69   436.94   457.23   478.40   523.97
                              563.32   652.41   700.98   733.71   815.77
                              869.71   874.09   987.82  1019.07  1036.61
                             1106.08  1159.62  1200.81  1213.06  1248.72
                             1363.63  1370.84  1406.04  1489.90  1547.73
                             1627.79  1701.73  1734.02  1745.76  1813.11
                             1819.99  1853.78  1935.51  1965.14  1992.84
                             2012.41  2030.88  2072.25  2111.35  2170.14
                             2193.64  2241.44  2387.70  2421.15  2610.53
                             4244.04  4337.79  4395.19  4412.08  4474.89
                             4522.48  4616.71  4637.70  5141.84  5403.88

 Zero-point correction=                           0.175991 (Hartree/Particle)
 Thermal correction to Energy=                    0.186884
 Thermal correction to Enthalpy=                  0.187828
 Thermal correction to Gibbs Free Energy=         0.139370
 Sum of electronic and zero-point Energies=           -574.495918
 Sum of electronic and thermal Energies=              -574.485025
 Sum of electronic and thermal Enthalpies=            -574.484081
 Sum of electronic and thermal Free Energies=         -574.532539

                     E (Thermal)             CV                S
                      KCal/Mol        Cal/Mol-Kelvin    Cal/Mol-Kelvin
 Total                  117.272             42.134            101.989
 Electronic               0.000              0.000              0.000
 Translational            0.889              2.981             41.230
 Rotational               0.889              2.981             30.788
 Vibrational            115.494             36.173             29.972
 Vibration     1          0.595              1.978              4.850
 Vibration     2          0.605              1.944              3.340
 Vibration     3          0.612              1.924              2.955
 Vibration     4          0.631              1.863              2.295
 Vibration     5          0.632              1.857              2.249
 Vibration     6          0.648              1.807              1.941
 Vibration     7          0.695              1.667              1.396
 Vibration     8          0.704              1.640              1.321
 Vibration     9          0.714              1.611              1.248
 Vibration    10          0.738              1.546              1.104
 Vibration    11          0.759              1.488              0.994
 Vibration    12          0.812              1.353              0.785
 Vibration    13          0.843              1.278              0.691
 Vibration    14          0.865              1.228              0.634
 Vibration    15          0.923              1.103              0.510
 Vibration    16          0.963              1.022              0.442
 Vibration    17          0.966              1.016              0.437

                           ! Non-Optimized Parameters !

 1\1\GINC-NODE115\Freq\RB3LYP\6-31G(d)\C9H10O3\VSC10255\09-Dec-2020\0\\
 #N Geom=AllCheck Guess=TCheck SCRF=Check GenChk RB3LYP/6-31G(d) Freq\\
 CID_117276385_JID_2260_neutraal\\0,1\C,-0.6640307188,-1.2091776276,-0.
 0023366659\C,0.6839810313,-1.2601145225,-0.3305544626\C,1.4734553389,-
 0.1028595912,-0.3363223384\C,0.889035383,1.1359246523,-0.0246714074\C,
 -0.469748049,1.1721812132,0.3210701228\C,-1.2466217216,0.0159861473,0.
 3366241238\O,-2.5802442102,0.0180563079,0.6643555895\C,1.6764568053,2.
 4270518034,-0.0755285422\C,2.1688205369,2.9172592315,1.2951957652\C,3.

 Normal termination of Gaussian 16 at Wed Dec  9 17:00:26 2020.

 ----------------------------------------------------------------------
 # B3LYP/6-311++G(d,p) empiricaldispersion=gd3bj scf=xqc pop=npa geom=c
 heck
 ----------------------------------------------------------------------

 ---------------------------------------
 CID_117276385_JID_2260_Energie_neutraal
 ---------------------------------------
 Structure from the checkpoint file:  "JID_2260.chk"
 Charge =  0 Multiplicity = 1

 SCF Done:  E(RB3LYP) =  -574.850135810     A.U. after   15 cycles
 Normal termination of Gaussian 16 at Wed Dec  9 17:02:36 2020.

 ----------------------------------------------------------------------
 # B3LYP/6-311++G(d,p) empiricaldispersion=gd3bj scf=xqc pop=npa geom=c
 heck
 ----------------------------------------------------------------------

 -------------------------------------
 CID_117276385_JID_2260_Energie_kation
 -------------------------------------
 Structure from the checkpoint file:  "JID_2260.chk"
 Charge =  1 Multiplicity = 2

 SCF Done:  E(UB3LYP) =  -574.568080430     A.U. after   22 cycles
 Normal termination of Gaussian 16 at Wed Dec  9 17:07:21 2020.
 Gaussian 16:  ES64L-G16RevA.03 25-Dec-2016

 ------------------------------------
 CID_117276385_JID_2260_Energie_anion
 ------------------------------------
 Structure from the checkpoint file:  "JID_2260.chk"
 Charge = -1 Multiplicity = 2

                         Standard orientation:
 ---------------------------------------------------------------------
 Center     Atomic      Atomic             Coordinates (Angstroms)
 Number     Number       Type             X           Y           Z
 ---------------------------------------------------------------------
      1          6           0       -2.423959    0.929916   -0.372767
      2          6           0       -1.305543    1.720489   -0.145616
      3          6           0       -0.100029    1.161547    0.298077
      4          6           0       -0.024096   -0.220477    0.537876
      5          6           0       -1.155727   -1.010861    0.289186
      6          6           0       -2.348089   -0.450586   -0.163502
      7          8           0       -3.475307   -1.195100   -0.410564
      8          6           0        1.231280   -0.870805    1.077075
      9          6           0        2.097745   -1.549575    0.004639
     10          6           0        2.891882   -0.618922   -0.870460
     11          8           0        2.973511    0.587162   -0.733742
     12          8           0        0.947691    2.011831    0.524633
     13          1           0       -3.358184    1.361454   -0.716784
     14          1           0       -1.338764    2.792143   -0.312814
     15          1           0       -1.103306   -2.083149    0.479480
     16          1           0       -3.285860   -2.122157   -0.200754
     17          1           0        1.833315   -0.133201    1.617300
     18          1           0        0.946235   -1.636594    1.806905
     19          1           0        2.833545   -2.231584    0.461579
     20          1           0        1.488588   -2.185919   -0.653615
     21          1           0        3.462511   -1.110765   -1.685252
     22          1           0        1.773972    1.574264    0.234301
 ---------------------------------------------------------------------

 SCF Done:  E(UB3LYP) =  -574.847869131     A.U. after   33 cycles
 SCF Done:  E(UB3LYP) =  -574.847869131     a.u. after    1 cycles

 The electronic state is 2-A.
 Alpha  occ. eigenvalues --  -19.04053 -19.01194 -18.98987 -10.11902 -10.11601
 Alpha  occ. eigenvalues --  -10.10963 -10.06894 -10.06433 -10.06324 -10.06128
 Alpha  occ. eigenvalues --  -10.06049 -10.05993  -0.94945  -0.92978  -0.91904
 Alpha  occ. eigenvalues --   -0.74087  -0.68493  -0.63324  -0.61745  -0.56031
 Alpha  occ. eigenvalues --   -0.51050  -0.48603  -0.44681  -0.42809  -0.41560
 Alpha  occ. eigenvalues --   -0.38719  -0.36004  -0.34758  -0.32793  -0.32414
 Alpha  occ. eigenvalues --   -0.31098  -0.30118  -0.29112  -0.28523  -0.27782
 Alpha  occ. eigenvalues --   -0.27644  -0.24951  -0.24306  -0.23256  -0.21645
 Alpha  occ. eigenvalues --   -0.18984  -0.14664  -0.13572  -0.09619   0.04560
 Alpha virt. eigenvalues --    0.06569   0.07989   0.08862   0.09043   0.09804
 Alpha virt. eigenvalues --    0.10895   0.10963   0.11687   0.12139   0.12893
 Alpha virt. eigenvalues --    0.13962   0.15015   0.15537   0.16138   0.17623

  Beta  occ. eigenvalues --  -19.04015 -19.01193 -18.98683 -10.11905 -10.11236
  Beta  occ. eigenvalues --  -10.10963 -10.06887 -10.06418 -10.06337 -10.06115
  Beta  occ. eigenvalues --  -10.06037 -10.05960  -0.94868  -0.92821  -0.91447
  Beta  occ. eigenvalues --   -0.74054  -0.68402  -0.63194  -0.61683  -0.55779
  Beta  occ. eigenvalues --   -0.50962  -0.48503  -0.44314  -0.42651  -0.41430
  Beta  occ. eigenvalues --   -0.38657  -0.35761  -0.34446  -0.32678  -0.32179
  Beta  occ. eigenvalues --   -0.31046  -0.30038  -0.29020  -0.28216  -0.27645
  Beta  occ. eigenvalues --   -0.27361  -0.24396  -0.24010  -0.22767  -0.21576
  Beta  occ. eigenvalues --   -0.18934  -0.14504  -0.13398  -0.09572
  Beta virt. eigenvalues --    0.07774   0.08550   0.09031   0.09102   0.10140
  Beta virt. eigenvalues --    0.10398   0.11103   0.11360   0.11863   0.12396
  Beta virt. eigenvalues --    0.13084   0.14448   0.15158   0.15677   0.16102

 Mulliken charges and spin densities:
               1          2
     1  C    1.005326  -0.904903
     2  C   -0.427231   0.192833
     3  C   -1.327553   0.209555
     4  C    0.359013   1.040194
     5  C   -0.744596   0.693016
     6  C    0.923692  -1.552743
     7  O   -0.314545   0.060563
     8  C    0.565166  -0.765381
     9  C    0.851108  -1.140352
    10  C   -0.248983   0.329062
    11  O   -0.362289   0.081204
    12  O   -0.297205   0.002905
    13  H    0.173641  -0.018847
    14  H    0.154887   0.004869
    15  H   -0.758397   0.899292
    16  H   -0.264177   0.540157
    17  H    0.127798   0.056123
    18  H   -0.284817   0.450767
    19  H   -0.374274   0.553426
    20  H   -0.011641   0.167586
    21  H   -0.048695   0.106771
    22  H    0.303773  -0.006098
 Sum of Mulliken charges =  -1.00000   1.00000

 Dipole moment (field-independent basis, Debye):
    X=             -0.3615    Y=              4.1704    Z=             -0.8310  Tot=              4.2677
 Quadrupole moment (field-independent basis, Debye-Ang):
   XX=           -118.8545   YY=           -111.6949   ZZ=            -91.5965
   XY=             -9.4098   XZ=              0.2294   YZ=              4.5216

 Summary of Natural Population Analysis:

                                       Natural Population
                Natural  -----------------------------------------------
    Atom  No    Charge         Core      Valence    Rydberg      Total
 -----------------------------------------------------------------------
      C    1   -0.12659      0.99953     2.11688    0.01018     3.12659
      C    2   -0.11170      0.99953     2.10402    0.00815     3.11170
      C    3    0.14301      0.99933     1.84209    0.01557     2.85699
      C    4   -0.03186      0.99947     2.02178    0.01061     3.03186
      C    5   -0.12987      0.99948     2.12051    0.00988     3.12987
      C    6    0.14669      0.99937     1.84071    0.01323     2.85331
      O    7   -0.34700      0.99988     3.34027    0.00685     4.34700
      C    8   -0.20456      0.99960     2.19277    0.01220     3.20456
      C    9   -0.23943      0.99960     2.23100    0.00882     3.23943
      C   10    0.28277      0.99973     1.69755    0.01995     2.71723
      O   11   -0.28362      0.99986     3.27671    0.00706     4.28362
      O   12   -0.36656      0.99987     3.36051    0.00618     4.36656
      H   13    0.10109      0.00000     0.39810    0.00081     0.39891
      H   14    0.10095      0.00000     0.39820    0.00085     0.39905
      H   15    0.10137      0.00000     0.39623    0.00240     0.39863
      H   16    0.23723      0.00000     0.25631    0.00646     0.26277
      H   17    0.10547      0.00000     0.39320    0.00133     0.39453
      H   18    0.10760      0.00000     0.39086    0.00154     0.39240
      H   19    0.11505      0.00000     0.38110    0.00384     0.38495
      H   20    0.10872      0.00000     0.38959    0.00169     0.39128
      H   21    0.03861      0.00000     0.45885    0.00254     0.46139
      H   22    0.25263      0.00000     0.24422    0.00315     0.24737
 =======================================================================
   * Total *    0.00000     11.99526    31.85147    0.15328    44.00000

 Normal termination of Gaussian 16 at Wed Dec  9 17:14:17 2020.
