 Gaussian 16, Revision A.03,

 -----------------------------------------------------------
 # opt freq B3LYP/6-31G(d) empiricaldispersion=gd3bj scf=xqc
 -----------------------------------------------------------

 ------------------------------
 CID_23615097_JID_5056_neutraal
 ------------------------------
 Symbolic Z-matrix:
 Charge =  0 Multiplicity = 1

 SCF Done:  E(RB3LYP) =  -1333.54289971     A.U. after   15 cycles
 SCF Done:  E(RB3LYP) =  -1333.54919023     A.U. after   13 cycles
 SCF Done:  E(RB3LYP) =  -1333.54990413     A.U. after   14 cycles
 SCF Done:  E(RB3LYP) =  -1333.55105398     A.U. after   14 cycles
 SCF Done:  E(RB3LYP) =  -1333.55150914     A.U. after   12 cycles
 SCF Done:  E(RB3LYP) =  -1333.55181427     A.U. after   12 cycles
 SCF Done:  E(RB3LYP) =  -1333.55191934     A.U. after   12 cycles
 SCF Done:  E(RB3LYP) =  -1333.55208569     A.U. after   11 cycles
 SCF Done:  E(RB3LYP) =  -1333.55233164     A.U. after   13 cycles
 SCF Done:  E(RB3LYP) =  -1333.55240284     A.U. after   11 cycles
 SCF Done:  E(RB3LYP) =  -1333.55252815     A.U. after   11 cycles
 SCF Done:  E(RB3LYP) =  -1333.55252984     A.U. after   11 cycles
 SCF Done:  E(RB3LYP) =  -1333.55253516     A.U. after   11 cycles
 SCF Done:  E(RB3LYP) =  -1333.55253596     A.U. after   11 cycles
 SCF Done:  E(RB3LYP) =  -1333.55253615     A.U. after   10 cycles
 Optimization completed.
    -- Stationary point found.
 Normal termination of Gaussian 16 at Thu Dec 10 14:52:01 2020.

 --------------------------------------------------------------------
 #N Geom=AllCheck Guess=TCheck SCRF=Check GenChk RB3LYP/6-31G(d) Freq
 --------------------------------------------------------------------

 Structure from the checkpoint file:  "JID_5056.chk"
 ------------------------------
 CID_23615097_JID_5056_neutraal
 ------------------------------
 Charge =  0 Multiplicity = 1

 SCF Done:  E(RB3LYP) =  -1333.55253615     A.U. after    1 cycles

  Exact polarizability: 262.954   6.287 152.588 -11.448   3.942  90.851
 Approx polarizability: 367.424  10.558 284.503 -22.173  13.569 143.890

                      1                      2                      3
                      A                      A                      A
 Frequencies --     10.8440                46.9940                55.5459
 Red. masses --      5.9576                 4.2072                 3.4548
 Frc consts  --      0.0004                 0.0055                 0.0063
 IR Inten    --      0.2339                 0.1329                 1.3134

                      4                      5                      6
                      A                      A                      A
 Frequencies --    101.3691               153.4219               182.4841
 Red. masses --      6.9148                 3.8821                 5.9559
 Frc consts  --      0.0419                 0.0538                 0.1169
 IR Inten    --      0.4368                 1.5768                 2.1893

                      7                      8                      9
                      A                      A                      A
 Frequencies --    191.2531               226.4543               241.8492
 Red. masses --      5.8082                 2.3625                 1.1691
 Frc consts  --      0.1252                 0.0714                 0.0403
 IR Inten    --      0.8824                 6.5832                 4.3596

                     10                     11                     12
                      A                      A                      A
 Frequencies --    273.6151               286.7011               290.1514
 Red. masses --      1.1101                 6.6901                 1.0404
 Frc consts  --      0.0490                 0.3240                 0.0516
 IR Inten    --     15.9041                 0.0092                16.2262

                     13                     14                     15
                      A                      A                      A
 Frequencies --    332.4127               358.9859               382.6672
 Red. masses --      3.1148                 2.4504                 8.2266
 Frc consts  --      0.2028                 0.1861                 0.7098
 IR Inten    --      1.6127                 3.0819                 3.3174

                     16                     17                     18
                      A                      A                      A
 Frequencies --    398.5691               412.4540               435.9395
 Red. masses --      3.2357                 3.5233                 3.2430
 Frc consts  --      0.3028                 0.3531                 0.3631
 IR Inten    --      0.9461                 1.2304                 3.2423

                     19                     20                     21
                      A                      A                      A
 Frequencies --    444.4183               502.2714               510.8920
 Red. masses --      2.4554                 2.8785                 8.8868
 Frc consts  --      0.2857                 0.4279                 1.3666
 IR Inten    --      4.7344                11.7170                 0.2370

                     22                     23                     24
                      A                      A                      A
 Frequencies --    527.2968               596.8796               598.9210
 Red. masses --      5.8081                 7.1949                 6.8809
 Frc consts  --      0.9515                 1.5102                 1.4542
 IR Inten    --      0.5468                 0.5203                 0.4025

                     25                     26                     27
                      A                      A                      A
 Frequencies --    654.3284               718.2949               730.8387
 Red. masses --      9.4353                 6.8374                 4.5981
 Frc consts  --      2.3801                 2.0785                 1.4470
 IR Inten    --     15.7334                 4.5176                 4.2660

                     28                     29                     30
                      A                      A                      A
 Frequencies --    736.7919               768.4530               780.0798
 Red. masses --      2.7593                 1.5680                 4.1371
 Frc consts  --      0.8825                 0.5455                 1.4833
 IR Inten    --      9.5571                42.8202                 6.1808

                     31                     32                     33
                      A                      A                      A
 Frequencies --    865.0436               867.6033               875.0094
 Red. masses --      1.8190                 1.3701                 6.3498
 Frc consts  --      0.8020                 0.6076                 2.8644
 IR Inten    --     24.8628                 0.5862                 1.4140

                     34                     35                     36
                      A                      A                      A
 Frequencies --    889.7068               937.1525               938.5973
 Red. masses --      1.6905                 1.5572                 1.3518
 Frc consts  --      0.7884                 0.8058                 0.7017
 IR Inten    --    100.4066                25.2864                 1.6966

                     37                     38                     39
                      A                      A                      A
 Frequencies --    952.4259               980.7463               983.3248
 Red. masses --      1.5684                 1.2544                 1.8135
 Frc consts  --      0.8383                 0.7109                 1.0332
 IR Inten    --     10.1034                 0.0349                11.5787

                     40                     41                     42
                      A                      A                      A
 Frequencies --   1009.9879              1041.6222              1051.2203
 Red. masses --      6.0369                 1.3753                 2.0713
 Frc consts  --      3.6282                 0.8792                 1.3486
 IR Inten    --    107.7170                 3.3525                 0.6413

                     43                     44                     45
                      A                      A                      A
 Frequencies --   1090.7550              1108.3325              1154.3145
 Red. masses --      5.5132                 1.5753                 1.4671
 Frc consts  --      3.8646                 1.1401                 1.1518
 IR Inten    --      6.8434                 4.0752                 5.5573

                     46                     47                     48
                      A                      A                      A
 Frequencies --   1171.2044              1193.8064              1208.2575
 Red. masses --      1.2514                 1.1566                 1.8998
 Frc consts  --      1.0114                 0.9712                 1.6341
 IR Inten    --      3.8592                 0.1242                48.6441

                     49                     50                     51
                      A                      A                      A
 Frequencies --   1276.7303              1300.2455              1314.9123
 Red. masses --      2.7016                 1.9596                 1.9841
 Frc consts  --      2.5946                 1.9519                 2.0212
 IR Inten    --     16.6361                27.4092                 6.3570

                     52                     53                     54
                      A                      A                      A
 Frequencies --   1328.3986              1365.3950              1380.2914
 Red. masses --      1.5240                 6.0476                 1.7847
 Frc consts  --      1.5845                 6.6428                 2.0033
 IR Inten    --      1.2387                 6.4603                 4.6285

                     55                     56                     57
                      A                      A                      A
 Frequencies --   1427.3896              1446.4124              1482.7125
 Red. masses --      1.2834                 1.2483                 2.5813
 Frc consts  --      1.5406                 1.5387                 3.3435
 IR Inten    --      5.9347                 9.1130                83.4472

                     58                     59                     60
                      A                      A                      A
 Frequencies --   1492.7865              1505.2466              1514.3817
 Red. masses --      1.0955                 2.4952                 1.0477
 Frc consts  --      1.4383                 3.3309                 1.4156
 IR Inten    --      3.5986                 9.9098                 2.7579

                     61                     62                     63
                      A                      A                      A
 Frequencies --   1517.2121              1532.1812              1534.0659
 Red. masses --      1.0619                 1.0886                 6.4685
 Frc consts  --      1.4402                 1.5057                 8.9689
 IR Inten    --      2.4160                10.4913               229.9096

                     64                     65                     66
                      A                      A                      A
 Frequencies --   1541.0283              1619.0412              1653.9222
 Red. masses --      1.0849                 5.5724                 6.3095
 Frc consts  --      1.5180                 8.6062                10.1689
 IR Inten    --      8.5660                 2.1245                 2.3530

                     67                     68                     69
                      A                      A                      A
 Frequencies --   1695.9609              3036.7553              3055.9876
 Red. masses --      1.0940                 1.0352                 1.0405
 Frc consts  --      1.8539                 5.6247                 5.7250
 IR Inten    --     36.1970                25.0300                20.0989

                     70                     71                     72
                      A                      A                      A
 Frequencies --   3073.8692              3103.8725              3111.6944
 Red. masses --      1.0641                 1.1019                 1.1021
 Frc consts  --      5.9241                 6.2546                 6.2873
 IR Inten    --     17.4533                27.8214                15.6357

                     73                     74                     75
                      A                      A                      A
 Frequencies --   3123.2973              3136.3891              3153.4178
 Red. masses --      1.0974                 1.1000                 1.1025
 Frc consts  --      6.3072                 6.3755                 6.4593
 IR Inten    --     47.8755                13.7394                10.3794

                     76                     77                     78
                      A                      A                      A
 Frequencies --   3191.0779              3202.9595              3213.8440
 Red. masses --      1.0857                 1.0899                 1.0948
 Frc consts  --      6.5137                 6.5877                 6.6626
 IR Inten    --      1.5523                10.8305                24.4109

                     79                     80                     81
                      A                      A                      A
 Frequencies --   3223.3979              3455.7293              3544.8403
 Red. masses --      1.0952                 1.0498                 1.0920
 Frc consts  --      6.7048                 7.3865                 8.0849
 IR Inten    --     13.4115                 2.0254                 0.2916

 - Thermochemistry -
 -------------------
 Temperature   298.150 Kelvin.  Pressure   1.00000 Atm.
 Atom     1 has atomic number  6 and mass  12.00000

 Molecular mass:   238.05984 amu.
 Principal axes and moments of inertia in atomic units:
                           1         2         3
     Eigenvalues --  1305.447627596.272148415.28405
           X            0.99995  -0.01007  -0.00034
           Y            0.01007   0.99995  -0.00071
           Z            0.00034   0.00070   1.00000
 This molecule is an asymmetric top.
 Rotational symmetry number  1.
 Warning -- assumption of classical behavior for rotation
           may cause significant error
 Rotational temperatures (Kelvin)      0.06635     0.01140     0.01029
 Rotational constants (GHZ):           1.38247     0.23758     0.21446
 Zero-point vibrational energy     615034.5 (Joules/Mol)
                                  146.99677 (Kcal/Mol)
 Warning -- explicit consideration of  24 degrees of freedom as
           vibrations may cause significant error
 Vibrational temperatures:     15.60    67.61    79.92   145.85   220.74
          (Kelvin)            262.55   275.17   325.82   347.97   393.67
                              412.50   417.46   478.27   516.50   550.57
                              573.45   593.43   627.22   639.42   722.66
                              735.06   758.66   858.78   861.71   941.43
                             1033.47  1051.51  1060.08  1105.63  1122.36
                             1244.60  1248.29  1258.94  1280.09  1348.35
                             1350.43  1370.33  1411.08  1414.79  1453.15
                             1498.66  1512.47  1569.35  1594.64  1660.80
                             1685.10  1717.62  1738.41  1836.93  1870.76
                             1891.87  1911.27  1964.50  1985.93  2053.70
                             2081.06  2133.29  2147.79  2165.71  2178.86
                             2182.93  2204.47  2207.18  2217.20  2329.44
                             2379.63  2440.11  4369.21  4396.88  4422.61
                             4465.78  4477.03  4493.73  4512.56  4537.06
                             4591.25  4608.34  4624.00  4637.75  4972.02
                             5100.23

 Zero-point correction=                           0.234254 (Hartree/Particle)
 Thermal correction to Energy=                    0.249126
 Thermal correction to Enthalpy=                  0.250070
 Thermal correction to Gibbs Free Energy=         0.190829
 Sum of electronic and zero-point Energies=          -1333.318282
 Sum of electronic and thermal Energies=             -1333.303411
 Sum of electronic and thermal Enthalpies=           -1333.302466
 Sum of electronic and thermal Free Energies=        -1333.361707

                     E (Thermal)             CV                S
                      KCal/Mol        Cal/Mol-Kelvin    Cal/Mol-Kelvin
 Total                  156.329             57.308            124.683
 Electronic               0.000              0.000              0.000
 Translational            0.889              2.981             42.303
 Rotational               0.889              2.981             32.790
 Vibrational            154.551             51.346             49.590
 Vibration     1          0.593              1.987              7.850
 Vibration     2          0.595              1.979              4.940
 Vibration     3          0.596              1.975              4.609
 Vibration     4          0.604              1.948              3.428
 Vibration     5          0.619              1.899              2.629
 Vibration     6          0.630              1.864              2.303
 Vibration     7          0.634              1.852              2.216
 Vibration     8          0.650              1.801              1.907
 Vibration     9          0.658              1.776              1.789
 Vibration    10          0.676              1.722              1.573
 Vibration    11          0.684              1.698              1.493
 Vibration    12          0.686              1.692              1.473
 Vibration    13          0.714              1.611              1.248
 Vibration    14          0.734              1.557              1.126
 Vibration    15          0.752              1.507              1.029
 Vibration    16          0.765              1.473              0.968
 Vibration    17          0.776              1.443              0.918
 Vibration    18          0.796              1.392              0.839
 Vibration    19          0.804              1.373              0.813
 Vibration    20          0.858              1.245              0.652
 Vibration    21          0.866              1.226              0.631
 Vibration    22          0.882              1.190              0.593
 Vibration    23          0.955              1.038              0.455
 Vibration    24          0.957              1.034              0.452

 Optimization completed.
    -- Stationary point found.
 Normal termination of Gaussian 16 at Thu Dec 10 14:59:39 2020.

 ----------------------------------------------------------------------
 # B3LYP/6-311++G(d,p) empiricaldispersion=gd3bj scf=xqc pop=npa geom=c
 heck
 ----------------------------------------------------------------------

 --------------------------------------
 CID_23615097_JID_5056_Energie_neutraal
 --------------------------------------
 Structure from the checkpoint file:  "JID_5056.chk"
 Charge =  0 Multiplicity = 1

 SCF Done:  E(RB3LYP) =  -1333.75394463     A.U. after   16 cycles
 Normal termination of Gaussian 16 at Thu Dec 10 15:04:24 2020.

 ----------------------------------------------------------------------
 # B3LYP/6-311++G(d,p) empiricaldispersion=gd3bj scf=xqc pop=npa geom=c
 heck
 ----------------------------------------------------------------------

 ------------------------------------
 CID_23615097_JID_5056_Energie_kation
 ------------------------------------
 Structure from the checkpoint file:  "JID_5056.chk"
 Charge =  1 Multiplicity = 2

 SCF Done:  E(UB3LYP) =  -1333.47303608     A.U. after   27 cycles
 Normal termination of Gaussian 16 at Thu Dec 10 15:18:37 2020.
 Gaussian 16:  ES64L-G16RevA.03 25-Dec-2016

 ----------------------------------------------------------------------
 # B3LYP/6-311++G(d,p) empiricaldispersion=gd3bj scf=xqc pop=npa geom=c
 heck
 ----------------------------------------------------------------------

 -----------------------------------
 CID_23615097_JID_5056_Energie_anion
 -----------------------------------
 Structure from the checkpoint file:  "JID_5056.chk"
 Charge = -1 Multiplicity = 2

                         Standard orientation:
 ---------------------------------------------------------------------
 Center     Atomic      Atomic             Coordinates (Angstroms)
 Number     Number       Type             X           Y           Z
 ---------------------------------------------------------------------
      1          6           0        2.737681   -0.898125    1.406929
      2          6           0        3.438440   -0.342019    0.164235
      3          6           0        4.258683   -1.455692   -0.518596
      4          6           0        2.430504    0.194703   -0.870155
      5         16           0        1.340708    1.538238   -0.248005
      6          6           0       -0.246183    0.782448   -0.193722
      7          7           0       -1.303076    1.500869    0.001162
      8          6           0       -2.447092    0.721322    0.060859
      9          6           0       -3.745999    1.207039    0.256071
     10          6           0       -4.806190    0.307557    0.281459
     11          6           0       -4.589767   -1.069115    0.112746
     12          6           0       -3.305346   -1.572736   -0.084768
     13          6           0       -2.243017   -0.670215   -0.105707
     14         16           0       -0.529847   -0.987924   -0.323361
     15          7           0        4.267351    0.801380    0.580222
     16          1           0        2.063024   -1.718147    1.143519
     17          1           0        2.161376   -0.115345    1.906160
     18          1           0        3.478771   -1.287257    2.115548
     19          1           0        3.628989   -2.301629   -0.819148
     20          1           0        4.765661   -1.076806   -1.414937
     21          1           0        5.024844   -1.834021    0.167899
     22          1           0        2.979280    0.631871   -1.711330
     23          1           0        1.814198   -0.608177   -1.281324
     24          1           0       -3.898379    2.273706    0.382589
     25          1           0       -5.816820    0.674894    0.433211
     26          1           0       -5.432551   -1.753549    0.135958
     27          1           0       -3.139880   -2.637461   -0.215520
     28          1           0        4.868933    0.526365    1.355260
     29          1           0        4.888570    1.073791   -0.181828
 ---------------------------------------------------------------------

 SCF Done:  E(UB3LYP) =  -1333.74964429     A.U. after   33 cycles
 SCF Done:  E(UB3LYP) =  -1333.74964429     a.u. after    1 cycles

 The electronic state is 2-A.
 Alpha  occ. eigenvalues --  -88.76619 -88.74870 -14.19407 -14.18943 -10.13806
 Alpha  occ. eigenvalues --  -10.11327 -10.10134 -10.09840 -10.09777 -10.07794
 Alpha  occ. eigenvalues --  -10.07518 -10.06927 -10.06743 -10.05860 -10.05462
 Alpha  occ. eigenvalues --   -7.85258  -7.83430  -5.81567  -5.81230  -5.80775
 Alpha  occ. eigenvalues --   -5.79816  -5.79427  -5.78843  -0.85412  -0.79817
 Alpha  occ. eigenvalues --   -0.74854  -0.70092  -0.68650  -0.65603  -0.63579
 Alpha  occ. eigenvalues --   -0.61507  -0.59073  -0.56421  -0.50321  -0.49385
 Alpha  occ. eigenvalues --   -0.46008  -0.44727  -0.39255  -0.38519  -0.37942
 Alpha  occ. eigenvalues --   -0.37761  -0.35581  -0.34676  -0.33757  -0.31899
 Alpha  occ. eigenvalues --   -0.31547  -0.30855  -0.29635  -0.29081  -0.27348
 Alpha  occ. eigenvalues --   -0.27117  -0.26616  -0.25473  -0.24898  -0.23951
 Alpha  occ. eigenvalues --   -0.23355  -0.21717  -0.19741  -0.16825  -0.16621
 Alpha  occ. eigenvalues --   -0.14429  -0.13381  -0.10881   0.04110
 Alpha virt. eigenvalues --    0.05934   0.06823   0.08078   0.08118   0.08477
 Alpha virt. eigenvalues --    0.08752   0.09126   0.10000   0.10781   0.11188
 Alpha virt. eigenvalues --    0.11249   0.11836   0.12107   0.12281   0.12708

  Beta  occ. eigenvalues --  -88.76602 -88.74862 -14.19398 -14.18900 -10.13488
  Beta  occ. eigenvalues --  -10.11328 -10.10136 -10.09810 -10.09711 -10.07744
  Beta  occ. eigenvalues --  -10.07556 -10.06807 -10.06647 -10.05809 -10.05437
  Beta  occ. eigenvalues --   -7.85241  -7.83423  -5.81557  -5.81224  -5.80725
  Beta  occ. eigenvalues --   -5.79808  -5.79429  -5.78814  -0.85196  -0.79764
  Beta  occ. eigenvalues --   -0.74704  -0.69948  -0.68560  -0.65461  -0.63419
  Beta  occ. eigenvalues --   -0.61370  -0.59005  -0.56282  -0.50113  -0.49313
  Beta  occ. eigenvalues --   -0.45875  -0.44581  -0.39190  -0.38426  -0.37834
  Beta  occ. eigenvalues --   -0.37649  -0.35461  -0.34602  -0.33683  -0.31690
  Beta  occ. eigenvalues --   -0.31186  -0.30754  -0.29566  -0.29024  -0.27268
  Beta  occ. eigenvalues --   -0.27055  -0.26545  -0.25299  -0.24539  -0.23724
  Beta  occ. eigenvalues --   -0.23286  -0.21626  -0.19433  -0.16603  -0.16248
  Beta  occ. eigenvalues --   -0.14382  -0.12999  -0.10444
  Beta virt. eigenvalues --    0.06647   0.06873   0.07906   0.08210   0.08465
  Beta virt. eigenvalues --    0.08969   0.09057   0.09386   0.10277   0.10986
  Beta virt. eigenvalues --    0.11428   0.11517   0.12002   0.12334   0.12764

 Mulliken charges and spin densities:
               1          2
     1  C   -0.046485  -0.711258
     2  C   -0.791176   1.007366
     3  C    1.234246  -1.717707
     4  C    0.221662  -0.876514
     5  S    0.267230  -0.030423
     6  C   -0.075336   0.312625
     7  N    0.176877   0.013133
     8  C   -1.112552  -0.231219
     9  C   -0.767470   0.101680
    10  C   -0.336732  -0.078545
    11  C   -0.127132   0.115714
    12  C   -0.217490   0.283055
    13  C    1.814143   0.027966
    14  S   -0.451615  -0.102184
    15  N   -0.294261   0.103963
    16  H   -0.058586   0.213086
    17  H    0.073359   0.077983
    18  H   -0.090030   0.231728
    19  H   -0.042792   0.182679
    20  H   -0.438531   0.578173
    21  H   -0.411394   0.567220
    22  H    0.091196   0.201457
    23  H    0.007619   0.100781
    24  H    0.147277   0.002634
    25  H    0.129832   0.001070
    26  H    0.120846  -0.002497
    27  H    0.098915   0.045228
    28  H   -0.046524   0.278643
    29  H   -0.075097   0.304163
 Sum of Mulliken charges =  -1.00000   1.00000

 Dipole moment (field-independent basis, Debye):
    X=             -6.9680    Y=             -1.1937    Z=             -0.3000  Tot=              7.0759
 Quadrupole moment (field-independent basis, Debye-Ang):
   XX=           -194.1258   YY=           -132.7426   ZZ=           -128.0429
   XY=              5.4275   XZ=             -0.5587   YZ=              0.1762

 Summary of Natural Population Analysis:

                                       Natural Population
                Natural  -----------------------------------------------
    Atom  No    Charge         Core      Valence    Rydberg      Total
 -----------------------------------------------------------------------
      C    1   -0.29279      0.99961     2.28546    0.00773     3.29279
      C    2    0.04062      0.99958     1.94550    0.01431     2.95938
      C    3   -0.29140      0.99962     2.28408    0.00770     3.29140
      C    4   -0.25268      0.99950     2.23978    0.01339     3.25268
      S    5    0.16816      4.99944     2.81138    0.02102     7.83184
      C    6    0.01462      0.99959     1.96826    0.01754     2.98538
      N    7   -0.26263      0.99960     2.74897    0.01406     3.76263
      C    8    0.06996      0.99942     1.91765    0.01297     2.93004
      C    9   -0.08530      0.99952     2.07702    0.00875     3.08530
      C   10   -0.11823      0.99958     2.10963    0.00901     3.11823
      C   11   -0.09172      0.99958     2.08284    0.00930     3.09172
      C   12   -0.10579      0.99951     2.09604    0.01025     3.10579
      C   13   -0.10309      0.99940     2.09366    0.01003     3.10309
      S   14    0.16017      4.99941     2.82146    0.01897     7.83983
      N   15   -0.42453      0.99975     2.91342    0.01136     3.92453
      H   16    0.10383      0.00000     0.39508    0.00109     0.39617
      H   17    0.11031      0.00000     0.38849    0.00120     0.38969
      H   18    0.09850      0.00000     0.40059    0.00091     0.40150
      H   19    0.09953      0.00000     0.39932    0.00114     0.40047
      H   20    0.10048      0.00000     0.39761    0.00190     0.39952
      H   21    0.10286      0.00000     0.39520    0.00194     0.39714
      H   22    0.10788      0.00000     0.39093    0.00120     0.39212
      H   23    0.11092      0.00000     0.38740    0.00168     0.38908
      H   24    0.10124      0.00000     0.39743    0.00133     0.39876
      H   25    0.09467      0.00000     0.40436    0.00098     0.40533
      H   26    0.09350      0.00000     0.40556    0.00094     0.40650
      H   27    0.09920      0.00000     0.39953    0.00126     0.40080
      H   28    0.17637      0.00000     0.32144    0.00218     0.32363
      H   29    0.17533      0.00000     0.32213    0.00254     0.32467
 =======================================================================
   * Total *    0.00000     22.99311    39.80021    0.20668    63.00000

 Normal termination of Gaussian 16 at Thu Dec 10 15:31:26 2020.
