 Gaussian 16, Revision A.03,

 -----------------------------------------------------------
 # opt freq B3LYP/6-31G(d) empiricaldispersion=gd3bj scf=xqc
 -----------------------------------------------------------

 -------------------------------
 CID_53523741_JID_10362_neutraal
 -------------------------------
 Symbolic Z-matrix:
 Charge =  0 Multiplicity = 1

 SCF Done:  E(RB3LYP) =  -936.106374792     A.U. after   15 cycles
 SCF Done:  E(RB3LYP) =  -936.108400970     A.U. after   14 cycles
 SCF Done:  E(RB3LYP) =  -936.108399410     A.U. after   14 cycles
 SCF Done:  E(RB3LYP) =  -936.113815538     A.U. after   13 cycles
 SCF Done:  E(RB3LYP) =  -936.113822337     A.U. after   14 cycles
 SCF Done:  E(RB3LYP) =  -936.115190119     A.U. after   13 cycles
 SCF Done:  E(RB3LYP) =  -936.113304473     A.U. after   13 cycles
 SCF Done:  E(RB3LYP) =  -936.116530951     A.U. after   12 cycles
 SCF Done:  E(RB3LYP) =  -936.117395250     A.U. after   13 cycles
 SCF Done:  E(RB3LYP) =  -936.114251379     A.U. after   15 cycles
 SCF Done:  E(RB3LYP) =  -936.119410578     A.U. after    7 cycles
 SCF Done:  E(RB3LYP) =  -936.119410736     A.U. after    8 cycles
 SCF Done:  E(RB3LYP) =  -936.119410804     A.U. after    8 cycles
 SCF Done:  E(RB3LYP) =  -936.119410844     A.U. after    7 cycles
 Optimization completed.
    -- Stationary point found.
 Normal termination of Gaussian 16 at Sat Dec 12 15:46:11 2020.

 --------------------------------------------------------------------
 #N Geom=AllCheck Guess=TCheck SCRF=Check GenChk RB3LYP/6-31G(d) Freq
 --------------------------------------------------------------------

 Structure from the checkpoint file:  "JID_10362.chk"
 -------------------------------
 CID_53523741_JID_10362_neutraal
 -------------------------------
 Charge =  0 Multiplicity = 1

 SCF Done:  E(RB3LYP) =  -936.119410844     A.U. after    1 cycles

  Exact polarizability: 161.131  -6.515 159.796   1.864   3.276 170.204
 Approx polarizability: 206.529 -11.395 236.355  10.056  -1.468 287.308

                      1                      2                      3
                      A                      A                      A
 Frequencies --     23.4454                32.8202                51.9150
 Red. masses --      6.8566                 6.6840                 6.6062
 Frc consts  --      0.0022                 0.0042                 0.0105
 IR Inten    --      0.9440                 0.4579                 0.3650

                      4                      5                      6
                      A                      A                      A
 Frequencies --     70.6568                71.8028                87.7035
 Red. masses --      3.1456                 4.0838                 4.3228
 Frc consts  --      0.0093                 0.0124                 0.0196
 IR Inten    --      1.4773                 2.6413                 0.9073

                      7                      8                      9
                      A                      A                      A
 Frequencies --     89.2395               120.3376               134.8467
 Red. masses --      4.5648                 4.0406                 4.6658
 Frc consts  --      0.0214                 0.0345                 0.0500
 IR Inten    --      1.9520                 0.2677                 0.5366

                     10                     11                     12
                      A                      A                      A
 Frequencies --    168.6900               182.5493               193.6862
 Red. masses --      3.8821                 4.7713                 2.9814
 Frc consts  --      0.0651                 0.0937                 0.0659
 IR Inten    --      0.3021                 5.8556                 2.1036

                     13                     14                     15
                      A                      A                      A
 Frequencies --    249.4555               257.2175               278.2227
 Red. masses --      1.1488                 2.3541                 2.5077
 Frc consts  --      0.0421                 0.0918                 0.1144
 IR Inten    --      0.5008                 0.2154                 5.5603

                     16                     17                     18
                      A                      A                      A
 Frequencies --    287.1588               296.4619               317.7915
 Red. masses --      4.4521                 2.5307                 1.5531
 Frc consts  --      0.2163                 0.1310                 0.0924
 IR Inten    --      1.1406                 1.3089                 1.1795

                     19                     20                     21
                      A                      A                      A
 Frequencies --    331.5325               363.4650               374.3754
 Red. masses --      2.3241                 3.1729                 3.6338
 Frc consts  --      0.1505                 0.2470                 0.3001
 IR Inten    --      0.7666                 1.9902                 5.7526

                     22                     23                     24
                      A                      A                      A
 Frequencies --    386.9261               428.6994               462.8393
 Red. masses --      2.6255                 3.9917                 2.8154
 Frc consts  --      0.2316                 0.4322                 0.3553
 IR Inten    --      0.1959                 1.0181                 4.2775

                     25                     26                     27
                      A                      A                      A
 Frequencies --    483.9316               541.0018               562.3243
 Red. masses --      3.0470                 2.1944                 1.8688
 Frc consts  --      0.4204                 0.3784                 0.3482
 IR Inten    --      7.8095               114.6972                31.4642

                     28                     29                     30
                      A                      A                      A
 Frequencies --    596.8014               604.3050               615.1378
 Red. masses --      2.7025                 3.0352                 3.5310
 Frc consts  --      0.5671                 0.6530                 0.7872
 IR Inten    --     15.1597                 5.0687                 2.6984

                     31                     32                     33
                      A                      A                      A
 Frequencies --    622.6649               670.9054               709.4502
 Red. masses --      1.6239                 2.4878                 3.1584
 Frc consts  --      0.3710                 0.6598                 0.9366
 IR Inten    --     56.9414                26.6708                 2.3447

                     34                     35                     36
                      A                      A                      A
 Frequencies --    722.3531               729.3466               744.9473
 Red. masses --      2.8271                 3.4624                 1.5178
 Frc consts  --      0.8691                 1.0852                 0.4963
 IR Inten    --     31.4790                11.7660                40.0264

                     37                     38                     39
                      A                      A                      A
 Frequencies --    767.3185               797.3475               809.4196
 Red. masses --      4.1534                 3.4555                 2.8007
 Frc consts  --      1.4408                 1.2944                 1.0811
 IR Inten    --     21.8232                 1.0803                22.9204

                     40                     41                     42
                      A                      A                      A
 Frequencies --    819.2572               845.2969               869.8215
 Red. masses --      1.3999                 4.0516                 1.2991
 Frc consts  --      0.5536                 1.7057                 0.5791
 IR Inten    --     12.1999                 6.1202                 0.7775

                     43                     44                     45
                      A                      A                      A
 Frequencies --    907.8513               913.0863               930.1972
 Red. masses --      2.3737                 5.8642                 3.1679
 Frc consts  --      1.1527                 2.8806                 1.6150
 IR Inten    --      0.5262                 5.3841                15.5285

                     46                     47                     48
                      A                      A                      A
 Frequencies --    939.9308               963.9194               971.5385
 Red. masses --      2.5209                 2.9322                 2.2675
 Frc consts  --      1.3122                 1.6052                 1.2610
 IR Inten    --     11.0264                 3.8773                15.0247

                     49                     50                     51
                      A                      A                      A
 Frequencies --    986.9568              1043.4419              1043.9714
 Red. masses --      2.0745                 1.8951                 1.5982
 Frc consts  --      1.1906                 1.2157                 1.0263
 IR Inten    --      9.8095                17.6458                 7.8329

                     52                     53                     54
                      A                      A                      A
 Frequencies --   1058.2750              1078.2505              1084.7359
 Red. masses --      2.1439                 2.2811                 1.6974
 Frc consts  --      1.4146                 1.5625                 1.1768
 IR Inten    --     80.2512                 3.9392                18.9706

                     55                     56                     57
                      A                      A                      A
 Frequencies --   1096.7521              1112.4356              1134.1282
 Red. masses --      1.9002                 2.6373                 1.2471
 Frc consts  --      1.3467                 1.9229                 0.9451
 IR Inten    --     41.2948                 3.5894                 6.0468

                     58                     59                     60
                      A                      A                      A
 Frequencies --   1141.2201              1155.6262              1185.5049
 Red. masses --      2.3229                 2.9462                 1.8486
 Frc consts  --      1.7825                 2.3182                 1.5307
 IR Inten    --     12.6578                19.8655                20.5060

                     61                     62                     63
                      A                      A                      A
 Frequencies --   1194.6013              1194.9097              1215.9871
 Red. masses --      1.4488                 1.5015                 1.4533
 Frc consts  --      1.2182                 1.2631                 1.2661
 IR Inten    --      6.0550                12.3165                48.0799

                     64                     65                     66
                      A                      A                      A
 Frequencies --   1217.7495              1251.2378              1266.0970
 Red. masses --      2.3568                 1.7843                 3.0309
 Frc consts  --      2.0592                 1.6459                 2.8625
 IR Inten    --     10.5661                 2.5257                12.6404

                     67                     68                     69
                      A                      A                      A
 Frequencies --   1292.0354              1304.2524              1321.8953
 Red. masses --      1.5149                 1.3162                 1.8068
 Frc consts  --      1.4900                 1.3192                 1.8602
 IR Inten    --     26.0264                 2.8845                30.1032

                     70                     71                     72
                      A                      A                      A
 Frequencies --   1324.2144              1334.2642              1346.2213
 Red. masses --      1.6458                 1.4085                 1.4597
 Frc consts  --      1.7004                 1.4773                 1.5587
 IR Inten    --     21.7207                15.2762                19.2213

                     73                     74                     75
                      A                      A                      A
 Frequencies --   1357.0523              1373.5561              1389.4608
 Red. masses --      1.2908                 1.4554                 1.6403
 Frc consts  --      1.4006                 1.6178                 1.8658
 IR Inten    --     13.3138                43.3587                73.8206

                     76                     77                     78
                      A                      A                      A
 Frequencies --   1396.8168              1411.6278              1414.4090
 Red. masses --      1.5695                 1.5428                 1.3941
 Frc consts  --      1.8042                 1.8113                 1.6433
 IR Inten    --     17.1190                 7.0855                15.2603

                     79                     80                     81
                      A                      A                      A
 Frequencies --   1431.3217              1433.9301              1472.1352
 Red. masses --      1.6503                 2.1290                 1.1630
 Frc consts  --      1.9920                 2.5792                 1.4850
 IR Inten    --     35.4532                 6.6316                 6.4933

                     82                     83                     84
                      A                      A                      A
 Frequencies --   1479.8573              1500.5703              1502.4707
 Red. masses --      1.9832                 1.1683                 1.0892
 Frc consts  --      2.5589                 1.5499                 1.4487
 IR Inten    --     68.9132                 7.1386                 8.6754

                     85                     86                     87
                      A                      A                      A
 Frequencies --   1507.0580              1512.6933              1522.4728
 Red. masses --      1.3139                 1.1251                 1.2293
 Frc consts  --      1.7583                 1.5168                 1.6788
 IR Inten    --     32.6782                 8.3847                22.7574

                     88                     89                     90
                      A                      A                      A
 Frequencies --   1531.9484              1539.2879              1543.5034
 Red. masses --      1.0831                 1.0648                 1.1027
 Frc consts  --      1.4977                 1.4864                 1.5479
 IR Inten    --     37.3431                 4.3507                 8.6561

                     91                     92                     93
                      A                      A                      A
 Frequencies --   1545.0996              1550.3431              1559.6868
 Red. masses --      1.3082                 2.4498                 1.0932
 Frc consts  --      1.8401                 3.4692                 1.5668
 IR Inten    --      5.2588                11.7871                 3.1495

                     94                     95                     96
                      A                      A                      A
 Frequencies --   1642.8279              1771.6357              1809.5561
 Red. masses --      5.9136                 7.1522                 9.0167
 Frc consts  --      9.4035                13.2262                17.3957
 IR Inten    --      1.6077               347.3139               385.3491

                     97                     98                     99
                      A                      A                      A
 Frequencies --   2922.9853              2943.8275              3022.7991
 Red. masses --      1.0640                 1.0621                 1.0759
 Frc consts  --      5.3562                 5.4228                 5.7922
 IR Inten    --     73.3093               101.4878                43.0223

                    100                    101                    102
                      A                      A                      A
 Frequencies --   3039.8949              3045.1635              3056.5686
 Red. masses --      1.0705                 1.0735                 1.0834
 Frc consts  --      5.8285                 5.8652                 5.9638
 IR Inten    --     17.2870                38.8637                22.0795

                    103                    104                    105
                      A                      A                      A
 Frequencies --   3074.5539              3079.0194              3079.5753
 Red. masses --      1.0706                 1.0743                 1.0611
 Frc consts  --      5.9627                 6.0009                 5.9292
 IR Inten    --     33.3180                56.9688                22.9538

                    106                    107                    108
                      A                      A                      A
 Frequencies --   3100.6885              3120.3226              3120.5402
 Red. masses --      1.0902                 1.0990                 1.1034
 Frc consts  --      6.1758                 6.3046                 6.3308
 IR Inten    --      2.0744                36.4835                25.0996

                    109                    110                    111
                      A                      A                      A
 Frequencies --   3137.9653              3168.1980              3169.3957
 Red. masses --      1.0941                 1.0891                 1.0959
 Frc consts  --      6.3476                 6.4410                 6.4860
 IR Inten    --     13.0206                 1.8577                 6.1714

                    112                    113                    114
                      A                      A                      A
 Frequencies --   3182.8123              3259.4974              3275.1922
 Red. masses --      1.0900                 1.0939                 1.0953
 Frc consts  --      6.5059                 6.8476                 6.9222
 IR Inten    --      1.7993                 3.0105                 0.9328

                    115                    116                    117
                      A                      A                      A
 Frequencies --   3308.0134              3606.1176              3610.6574
 Red. masses --      1.1045                 1.0768                 1.0746
 Frc consts  --      7.1210                 8.2502                 8.2541
 IR Inten    --      0.2544                26.2046                26.9158

 - Thermochemistry -
 -------------------
 Temperature   298.150 Kelvin.  Pressure   1.00000 Atm.
 Atom     1 has atomic number  6 and mass  12.00000

 Molecular mass:   279.15829 amu.
 Principal axes and moments of inertia in atomic units:
                           1         2         3
     Eigenvalues --  4031.239826844.741797079.53232
           X            0.99950  -0.00980  -0.02991
           Y            0.01704   0.96748   0.25238
           Z            0.02646  -0.25277   0.96717
 This molecule is an asymmetric top.
 Rotational symmetry number  1.
 Warning -- assumption of classical behavior for rotation
           may cause significant error
 Rotational temperatures (Kelvin)      0.02149     0.01265     0.01223
 Rotational constants (GHZ):           0.44769     0.26367     0.25492
 Zero-point vibrational energy     922966.0 (Joules/Mol)
                                  220.59417 (Kcal/Mol)
 Warning -- explicit consideration of  30 degrees of freedom as
           vibrations may cause significant error
 Vibrational temperatures:     33.73    47.22    74.69   101.66   103.31
          (Kelvin)            126.19   128.40   173.14   194.01   242.71
                              262.65   278.67   358.91   370.08   400.30
                              413.16   426.54   457.23   477.00   522.95
                              538.64   556.70   616.80   665.92   696.27
                              778.38   809.06   858.66   869.46   885.05
                              895.88   965.28  1020.74  1039.30  1049.37
                             1071.81  1104.00  1147.21  1164.57  1178.73
                             1216.19  1251.48  1306.20  1313.73  1338.35
                             1352.35  1386.87  1397.83  1420.01  1501.28
                             1502.04  1522.62  1551.36  1560.69  1577.98
                             1600.55  1631.76  1641.96  1662.69  1705.68
                             1718.76  1719.21  1749.53  1752.07  1800.25
                             1821.63  1858.95  1876.53  1901.91  1905.25
                             1919.71  1936.91  1952.50  1976.24  1999.12
                             2009.71  2031.02  2035.02  2059.35  2063.11
                             2118.07  2129.18  2158.99  2161.72  2168.32
                             2176.43  2190.50  2204.13  2214.69  2220.76
                             2223.05  2230.60  2244.04  2363.66  2548.99
                             2603.55  4205.52  4235.51  4349.13  4373.73
                             4381.31  4397.72  4423.60  4430.02  4430.82
                             4461.20  4489.45  4489.76  4514.83  4558.33
                             4560.05  4579.36  4689.69  4712.27  4759.49
                             5188.40  5194.93

 Zero-point correction=                           0.351539 (Hartree/Particle)
 Thermal correction to Energy=                    0.370877
 Thermal correction to Enthalpy=                  0.371821
 Thermal correction to Gibbs Free Energy=         0.302809
 Sum of electronic and zero-point Energies=           -935.767872
 Sum of electronic and thermal Energies=              -935.748534
 Sum of electronic and thermal Enthalpies=            -935.747590
 Sum of electronic and thermal Free Energies=         -935.816602

                     E (Thermal)             CV                S
                      KCal/Mol        Cal/Mol-Kelvin    Cal/Mol-Kelvin
 Total                  232.729             73.720            145.248
 Electronic               0.000              0.000              0.000
 Translational            0.889              2.981             42.778
 Rotational               0.889              2.981             33.635
 Vibrational            230.951             67.758             68.835
 Vibration     1          0.593              1.985              6.319
 Vibration     2          0.594              1.983              5.651
 Vibration     3          0.596              1.977              4.743
 Vibration     4          0.598              1.968              4.135
 Vibration     5          0.598              1.967              4.103
 Vibration     6          0.601              1.958              3.711
 Vibration     7          0.602              1.957              3.677
 Vibration     8          0.609              1.932              3.095
 Vibration     9          0.613              1.919              2.876
 Vibration    10          0.625              1.881              2.450
 Vibration    11          0.630              1.864              2.302
 Vibration    12          0.635              1.849              2.192
 Vibration    13          0.662              1.764              1.734
 Vibration    14          0.667              1.751              1.681
 Vibration    15          0.679              1.714              1.545
 Vibration    16          0.684              1.698              1.491
 Vibration    17          0.690              1.680              1.437
 Vibration    18          0.704              1.640              1.321
 Vibration    19          0.714              1.613              1.253
 Vibration    20          0.737              1.547              1.107
 Vibration    21          0.745              1.525              1.062
 Vibration    22          0.755              1.498              1.012
 Vibration    23          0.790              1.408              0.863
 Vibration    24          0.820              1.332              0.758
 Vibration    25          0.840              1.286              0.700
 Vibration    26          0.896              1.159              0.563
 Vibration    27          0.918              1.113              0.519
 Vibration    28          0.955              1.039              0.455
 Vibration    29          0.963              1.023              0.442
 Vibration    30          0.975              1.000              0.424

                           ! Non-Optimized Parameters !
 Normal termination of Gaussian 16 at Sat Dec 12 16:15:16 2020.

 ----------------------------------------------------------------------
 # B3LYP/6-311++G(d,p) empiricaldispersion=gd3bj scf=xqc pop=npa geom=c
 heck
 ----------------------------------------------------------------------

 ---------------------------------------
 CID_53523741_JID_10362_Energie_neutraal
 ---------------------------------------
 Structure from the checkpoint file:  "JID_10362.chk"
 Charge =  0 Multiplicity = 1

 SCF Done:  E(RB3LYP) =  -936.390288912     A.U. after   16 cycles
 Normal termination of Gaussian 16 at Sat Dec 12 16:28:56 2020.

 ----------------------------------------------------------------------
 # B3LYP/6-311++G(d,p) empiricaldispersion=gd3bj scf=xqc pop=npa geom=c
 heck
 ----------------------------------------------------------------------

 -------------------------------------
 CID_53523741_JID_10362_Energie_kation
 -------------------------------------
 Structure from the checkpoint file:  "JID_10362.chk"
 Charge =  1 Multiplicity = 2

 SCF Done:  E(UB3LYP) =  -936.098044086     A.U. after   33 cycles
 SCF Done:  E(UB3LYP) =  -936.098044495     a.u. after    3 cycles
 Normal termination of Gaussian 16 at Sat Dec 12 18:22:16 2020.
 Gaussian 16:  ES64L-G16RevA.03 25-Dec-2016

 ----------------------------------------------------------------------
 # B3LYP/6-311++G(d,p) empiricaldispersion=gd3bj scf=xqc pop=npa geom=c
 heck
 ----------------------------------------------------------------------

 ------------------------------------
 CID_53523741_JID_10362_Energie_anion
 ------------------------------------
 Structure from the checkpoint file:  "JID_10362.chk"
 Charge = -1 Multiplicity = 2

                         Standard orientation:
 ---------------------------------------------------------------------
 Center     Atomic      Atomic             Coordinates (Angstroms)
 Number     Number       Type             X           Y           Z
 ---------------------------------------------------------------------
      1          6           0        3.461557   -1.255196    0.251425
      2          7           0        2.953402   -0.725089   -1.005640
      3          6           0        3.219479   -1.633148   -2.109102
      4          6           0        1.575467   -0.209927   -0.999526
      5          6           0        0.451824   -1.216959   -0.606938
      6          7           0        0.339891   -1.528653    0.805742
      7          6           0       -0.599742   -1.164079    1.737393
      8          8           0       -0.381915   -1.364315    2.928076
      9          6           0       -1.943648   -0.560515    1.305231
     10          6           0       -2.763686   -1.468653    0.353927
     11          6           0       -3.740647   -0.649886   -0.507707
     12          6           0       -2.982030    0.355654   -1.363980
     13          8           0       -3.202009    0.561405   -2.549177
     14          7           0       -1.966180    0.970118   -0.677564
     15          6           0       -1.848520    0.897295    0.771174
     16          6           0        1.465118    1.096816   -0.276750
     17          6           0        1.199135    2.361220   -0.720714
     18          6           0        1.198072    3.218067    0.431190
     19          6           0        1.467700    2.416367    1.497419
     20          8           0        1.627078    1.122567    1.085011
     21          1           0        4.552360   -1.338869    0.185737
     22          1           0        3.078580   -2.266676    0.494178
     23          1           0        3.220136   -0.580283    1.073537
     24          1           0        2.715589   -2.614815   -2.018747
     25          1           0        2.909053   -1.175699   -3.054462
     26          1           0        4.297113   -1.823157   -2.162256
     27          1           0        1.363738    0.040326   -2.046431
     28          1           0       -0.490121   -0.791935   -0.946776
     29          1           0        0.616912   -2.144963   -1.169674
     30          1           0        1.159870   -1.914241    1.255607
     31          1           0       -2.476428   -0.496336    2.256396
     32          1           0       -3.307054   -2.212674    0.944617
     33          1           0       -2.101879   -2.033113   -0.309729
     34          1           0       -4.449480   -0.110412    0.136645
     35          1           0       -4.323704   -1.284791   -1.178303
     36          1           0       -1.450641    1.687025   -1.172104
     37          1           0       -2.648280    1.484211    1.243580
     38          1           0       -0.906744    1.363025    1.059918
     39          1           0        1.044131    2.650963   -1.751221
     40          1           0        1.025777    4.284745    0.454591
     41          1           0        1.575582    2.583446    2.557589
 ---------------------------------------------------------------------

 SCF Done:  E(UB3LYP) =  -936.381733288     A.U. after   33 cycles
 SCF Done:  E(UB3LYP) =  -936.381733287     a.u. after    1 cycles

 The electronic state is 2-A.
 Alpha  occ. eigenvalues --  -19.11120 -19.00333 -18.99879 -14.25110 -14.24826
 Alpha  occ. eigenvalues --  -14.22661 -10.18659 -10.18591 -10.14860 -10.14378
 Alpha  occ. eigenvalues --  -10.13714 -10.12998 -10.12538 -10.10626 -10.10379
 Alpha  occ. eigenvalues --  -10.10226 -10.09996 -10.09741 -10.09583 -10.09276
 Alpha  occ. eigenvalues --   -1.03528  -0.95289  -0.95055  -0.85343  -0.84721
 Alpha  occ. eigenvalues --   -0.82803  -0.72746  -0.72519  -0.70497  -0.67490
 Alpha  occ. eigenvalues --   -0.64815  -0.62409  -0.59174  -0.58766  -0.55070
 Alpha  occ. eigenvalues --   -0.52802  -0.52065  -0.50656  -0.47954  -0.47654
 Alpha  occ. eigenvalues --   -0.45413  -0.41930  -0.41504  -0.40807  -0.40387
 Alpha  occ. eigenvalues --   -0.39317  -0.38811  -0.37968  -0.37098  -0.36087
 Alpha  occ. eigenvalues --   -0.35514  -0.34448  -0.33943  -0.33610  -0.33031
 Alpha  occ. eigenvalues --   -0.32730  -0.32040  -0.31875  -0.31255  -0.30555
 Alpha  occ. eigenvalues --   -0.30440  -0.29637  -0.28656  -0.28192  -0.27698
 Alpha  occ. eigenvalues --   -0.27096  -0.26132  -0.25159  -0.20858  -0.18240
 Alpha  occ. eigenvalues --   -0.17448  -0.17028  -0.16367  -0.15207  -0.13164
 Alpha  occ. eigenvalues --    0.03661
 Alpha virt. eigenvalues --    0.05284   0.05822   0.06838   0.07163   0.07375
 Alpha virt. eigenvalues --    0.08053   0.08315   0.08506   0.09011   0.09619
 Alpha virt. eigenvalues --    0.09868   0.10241   0.10602   0.11015   0.11367

  Beta  occ. eigenvalues --  -19.11109 -19.00330 -18.99875 -14.25101 -14.24819
  Beta  occ. eigenvalues --  -14.22658 -10.18660 -10.18591 -10.14855 -10.14369
  Beta  occ. eigenvalues --  -10.13708 -10.12976 -10.12518 -10.10620 -10.10354
  Beta  occ. eigenvalues --  -10.10184 -10.09982 -10.09720 -10.09569 -10.09259
  Beta  occ. eigenvalues --   -1.03507  -0.95283  -0.95049  -0.85327  -0.84706
  Beta  occ. eigenvalues --   -0.82788  -0.72718  -0.72491  -0.70470  -0.67458
  Beta  occ. eigenvalues --   -0.64784  -0.62358  -0.59134  -0.58723  -0.55043
  Beta  occ. eigenvalues --   -0.52771  -0.52012  -0.50630  -0.47920  -0.47615
  Beta  occ. eigenvalues --   -0.45379  -0.41892  -0.41476  -0.40771  -0.40350
  Beta  occ. eigenvalues --   -0.39281  -0.38784  -0.37933  -0.37082  -0.36056
  Beta  occ. eigenvalues --   -0.35478  -0.34421  -0.33917  -0.33587  -0.33006
  Beta  occ. eigenvalues --   -0.32706  -0.32018  -0.31852  -0.31229  -0.30526
  Beta  occ. eigenvalues --   -0.30414  -0.29605  -0.28625  -0.28165  -0.27672
  Beta  occ. eigenvalues --   -0.27072  -0.26109  -0.25134  -0.20821  -0.18225
  Beta  occ. eigenvalues --   -0.17429  -0.17018  -0.16353  -0.15171  -0.13138
  Beta virt. eigenvalues --    0.05677   0.06184   0.06539   0.07105   0.07451
  Beta virt. eigenvalues --    0.07856   0.08502   0.08708   0.08894   0.09129
  Beta virt. eigenvalues --    0.09740   0.09997   0.10546   0.10955   0.11331

 Mulliken charges and spin densities:
               1          2
     1  C    0.136954  -0.464518
     2  N    0.087163   0.086091
     3  C    0.872268  -1.094095
     4  C   -0.416113   0.002127
     5  C    0.561554  -0.831676
     6  N   -0.239229   0.085560
     7  C   -0.889840   0.421641
     8  O   -0.285882   0.003896
     9  C    0.673877  -0.619587
    10  C   -0.430043   0.351652
    11  C    0.441749  -0.926439
    12  C   -0.215324   0.190349
    13  O   -0.304445  -0.000776
    14  N   -0.198674  -0.044956
    15  C    0.149095  -0.309265
    16  C   -0.269009  -0.182234
    17  C   -0.438403   0.090760
    18  C   -0.205119  -0.079515
    19  C    0.493159  -0.393784
    20  O    0.088448   0.006598
    21  H   -0.108128   0.265064
    22  H   -0.117236   0.216741
    23  H    0.081755   0.081769
    24  H   -0.263775   0.381904
    25  H   -0.344364   0.475474
    26  H   -0.120307   0.281595
    27  H    0.220356   0.026692
    28  H    0.444491  -0.289666
    29  H   -0.018334   0.261139
    30  H    0.322905   0.028811
    31  H    0.126844   0.140105
    32  H   -0.123671   0.327439
    33  H    0.009233   0.170338
    34  H    0.010641   0.153362
    35  H   -0.002800   0.222947
    36  H    0.353476   0.039226
    37  H   -0.526079   0.752133
    38  H    0.453321  -0.359881
    39  H   -0.277919   0.428887
    40  H   -0.740849   0.928551
    41  H    0.008259   0.175541
 Sum of Mulliken charges =  -1.00000   1.00000

 Dipole moment (field-independent basis, Debye):
    X=              0.2987    Y=             -0.2772    Z=              1.9532  Tot=              1.9952
 Quadrupole moment (field-independent basis, Debye-Ang):
   XX=           -192.5343   YY=           -177.5076   ZZ=           -179.9965
   XY=              7.4274   XZ=              3.6981   YZ=              2.2397

 Summary of Natural Population Analysis:

                                       Natural Population
                Natural  -----------------------------------------------
    Atom  No    Charge         Core      Valence    Rydberg      Total
 -----------------------------------------------------------------------
      C    1   -0.18344      0.99963     2.17534    0.00847     3.18344
      N    2   -0.27421      0.99972     2.76187    0.01262     3.77421
      C    3   -0.17657      0.99964     2.16844    0.00849     3.17657
      C    4   -0.02954      0.99951     2.01538    0.01465     3.02954
      C    5   -0.10132      0.99957     2.09055    0.01120     3.10132
      N    6   -0.32051      0.99966     2.81114    0.00971     3.82051
      C    7    0.35084      0.99963     1.62677    0.02275     2.64916
      O    8   -0.32407      0.99988     3.31870    0.00549     4.32407
      C    9   -0.15236      0.99954     2.14135    0.01147     3.15236
      C   10   -0.18826      0.99961     2.17993    0.00871     3.18826
      C   11   -0.23442      0.99959     2.22708    0.00775     3.23442
      C   12    0.34547      0.99966     1.63259    0.02228     2.65453
      O   13   -0.31991      0.99988     3.31423    0.00580     4.31991
      N   14   -0.32783      0.99967     2.81849    0.00968     3.82783
      C   15   -0.09059      0.99959     2.07895    0.01205     3.09059
      C   16    0.15505      0.99942     1.82795    0.01758     2.84495
      C   17   -0.15053      0.99948     2.14187    0.00918     3.15053
      C   18   -0.14757      0.99956     2.13865    0.00935     3.14757
      C   19    0.05497      0.99950     1.93175    0.01378     2.94503
      O   20   -0.23762      0.99986     3.22964    0.00812     4.23762
      H   21    0.09749      0.00000     0.40156    0.00095     0.40251
      H   22    0.07564      0.00000     0.42278    0.00159     0.42436
      H   23    0.10535      0.00000     0.39310    0.00155     0.39465
      H   24    0.08167      0.00000     0.41632    0.00201     0.41833
      H   25    0.09706      0.00000     0.40172    0.00122     0.40294
      H   26    0.09773      0.00000     0.40104    0.00123     0.40227
      H   27    0.11124      0.00000     0.38670    0.00206     0.38876
      H   28    0.11120      0.00000     0.38638    0.00242     0.38880
      H   29    0.10015      0.00000     0.39839    0.00146     0.39985
      H   30    0.19614      0.00000     0.30097    0.00289     0.30386
      H   31    0.11636      0.00000     0.38234    0.00130     0.38364
      H   32    0.10646      0.00000     0.39257    0.00097     0.39354
      H   33    0.10081      0.00000     0.39753    0.00166     0.39919
      H   34    0.10901      0.00000     0.38952    0.00147     0.39099
      H   35    0.11376      0.00000     0.38529    0.00096     0.38624
      H   36    0.20116      0.00000     0.29634    0.00250     0.29884
      H   37    0.09555      0.00000     0.40280    0.00166     0.40445
      H   38    0.11067      0.00000     0.38644    0.00289     0.38933
      H   39    0.11293      0.00000     0.38586    0.00121     0.38707
      H   40    0.11277      0.00000     0.38579    0.00144     0.38723
      H   41    0.09928      0.00000     0.39987    0.00086     0.40072
 =======================================================================
   * Total *    0.00000     19.99261    54.74396    0.26343    75.00000

 Normal termination of Gaussian 16 at Sat Dec 12 19:00:06 2020.
