 Gaussian 16, Revision A.03,

 -----------------------------------------------------------
 # opt freq B3LYP/6-31G(d) empiricaldispersion=gd3bj scf=xqc
 -----------------------------------------------------------

 -----------------------------
 CID_69239666_JID_859_neutraal
 -----------------------------
 Symbolic Z-matrix:
 Charge =  0 Multiplicity = 1

 SCF Done:  E(RB3LYP) =  -514.386054443     A.U. after   14 cycles
 SCF Done:  E(RB3LYP) =  -514.390798631     A.U. after   12 cycles
 SCF Done:  E(RB3LYP) =  -514.391318537     A.U. after   12 cycles
 SCF Done:  E(RB3LYP) =  -514.392341671     A.U. after   12 cycles
 SCF Done:  E(RB3LYP) =  -514.392573606     A.U. after   12 cycles
 SCF Done:  E(RB3LYP) =  -514.392658299     A.U. after   12 cycles
 SCF Done:  E(RB3LYP) =  -514.392707657     A.U. after   10 cycles
 SCF Done:  E(RB3LYP) =  -514.392740874     A.U. after   10 cycles
 SCF Done:  E(RB3LYP) =  -514.392748099     A.U. after   10 cycles
 SCF Done:  E(RB3LYP) =  -514.392749512     A.U. after    8 cycles
 SCF Done:  E(RB3LYP) =  -514.392750030     A.U. after    8 cycles
 SCF Done:  E(RB3LYP) =  -514.392750344     A.U. after    7 cycles
 Optimization completed.
    -- Stationary point found.
 Normal termination of Gaussian 16 at Tue Dec  8 12:42:23 2020.

 --------------------------------------------------------------------
 #N Geom=AllCheck Guess=TCheck SCRF=Check GenChk RB3LYP/6-31G(d) Freq
 --------------------------------------------------------------------

 Structure from the checkpoint file:  "JID_859.chk"
 -----------------------------
 CID_69239666_JID_859_neutraal
 -----------------------------
 Charge =  0 Multiplicity = 1

 SCF Done:  E(RB3LYP) =  -514.392750344     A.U. after    1 cycles

  Exact polarizability:  97.096  12.027  59.034  -1.175   9.892  69.615
 Approx polarizability: 134.296  24.903  93.298  -6.916  17.052 113.365

                      1                      2                      3
                      A                      A                      A
 Frequencies --     48.9263               102.6162               125.8355
 Red. masses --      6.2657                 3.8079                 3.0212
 Frc consts  --      0.0088                 0.0236                 0.0282
 IR Inten    --      0.8812                 3.3560                 1.9609

                      4                      5                      6
                      A                      A                      A
 Frequencies --    186.3087               197.6482               272.1820
 Red. masses --      3.0041                 1.3077                 3.4596
 Frc consts  --      0.0614                 0.0301                 0.1510
 IR Inten    --     28.9868                89.1169                 5.8229

                      7                      8                      9
                      A                      A                      A
 Frequencies --    306.1863               372.4050               391.5707
 Red. masses --      5.4537                 3.0961                 5.6172
 Frc consts  --      0.3012                 0.2530                 0.5074
 IR Inten    --      4.2210                 0.8643                 4.2738

                     10                     11                     12
                      A                      A                      A
 Frequencies --    470.6469               482.3884               529.3168
 Red. masses --      1.3129                 2.9118                 1.9854
 Frc consts  --      0.1713                 0.3992                 0.3277
 IR Inten    --     59.4862                24.9013                 2.3602

                     13                     14                     15
                      A                      A                      A
 Frequencies --    583.5786               605.7258               616.1337
 Red. masses --      6.3987                 1.7019                 2.7312
 Frc consts  --      1.2839                 0.3679                 0.6109
 IR Inten    --      5.6672                 0.9796                 8.0986

                     16                     17                     18
                      A                      A                      A
 Frequencies --    660.8137               717.1209               735.9549
 Red. masses --      2.1196                 4.2917                 1.5785
 Frc consts  --      0.5453                 1.3004                 0.5037
 IR Inten    --     25.5889                13.0424                88.3524

                     19                     20                     21
                      A                      A                      A
 Frequencies --    770.1179               830.9115               951.0285
 Red. masses --      1.2186                 2.6990                 2.4357
 Frc consts  --      0.4258                 1.0979                 1.2980
 IR Inten    --      1.8561                24.5705                12.4417

                     22                     23                     24
                      A                      A                      A
 Frequencies --   1001.0242              1006.1471              1034.1397
 Red. masses --      2.5673                 3.3915                 3.9006
 Frc consts  --      1.5157                 2.0229                 2.4578
 IR Inten    --     39.3797                14.4230                38.6263

                     25                     26                     27
                      A                      A                      A
 Frequencies --   1081.1427              1089.9305              1130.1541
 Red. masses --      1.2594                 2.4483                 3.2995
 Frc consts  --      0.8673                 1.7136                 2.4830
 IR Inten    --     16.7346                20.0997                46.0364

                     28                     29                     30
                      A                      A                      A
 Frequencies --   1158.9306              1203.6310              1232.9838
 Red. masses --      1.5828                 1.7312                 1.1067
 Frc consts  --      1.2525                 1.4777                 0.9913
 IR Inten    --     79.8937                 6.1074                21.1601

                     31                     32                     33
                      A                      A                      A
 Frequencies --   1295.0650              1313.4210              1370.5446
 Red. masses --      1.3706                 1.1669                 4.6697
 Frc consts  --      1.3544                 1.1860                 5.1681
 IR Inten    --     70.9933                 4.7772                16.8600

                     34                     35                     36
                      A                      A                      A
 Frequencies --   1400.9428              1418.8904              1433.0238
 Red. masses --      1.4991                 1.4409                 1.9195
 Frc consts  --      1.7335                 1.7091                 2.3224
 IR Inten    --      3.3494                25.3081                12.7107

                     37                     38                     39
                      A                      A                      A
 Frequencies --   1446.1108              1468.0864              1497.4617
 Red. masses --      1.6051                 5.5203                 1.1238
 Frc consts  --      1.9777                 7.0100                 1.4848
 IR Inten    --     12.0257                94.9207                 8.5383

                     40                     41                     42
                      A                      A                      A
 Frequencies --   1512.8263              1521.2379              1647.6221
 Red. masses --      1.1027                 3.2255                 5.1360
 Frc consts  --      1.4869                 4.3979                 8.2146
 IR Inten    --      4.9247                29.6795                69.3964

                     43                     44                     45
                      A                      A                      A
 Frequencies --   3006.1758              3065.4346              3090.0730
 Red. masses --      1.0688                 1.0615                 1.0939
 Frc consts  --      5.6909                 5.8768                 6.1542
 IR Inten    --     43.4655                17.2916                48.6946

                     46                     47                     48
                      A                      A                      A
 Frequencies --   3131.6332              3250.1165              3300.2616
 Red. masses --      1.1061                 1.0938                 1.0991
 Frc consts  --      6.3911                 6.8075                 7.0529
 IR Inten    --     25.5214                 3.3371                 1.0159

                     49                     50                     51
                      A                      A                      A
 Frequencies --   3315.7297              3686.5216              3771.6229
 Red. masses --      1.0980                 1.0663                 1.0663
 Frc consts  --      7.1125                 8.5383                 8.9370
 IR Inten    --      1.9218               145.9232                47.1968

 - Thermochemistry -
 -------------------
 Temperature   298.150 Kelvin.  Pressure   1.00000 Atm.
 Atom     1 has atomic number  6 and mass  12.00000

 Molecular mass:   143.05824 amu.
 Principal axes and moments of inertia in atomic units:
                           1         2         3
     Eigenvalues --   736.051911962.725212116.19516
           X            0.99992   0.00505   0.01116
           Y           -0.00654   0.99045   0.13768
           Z           -0.01036  -0.13775   0.99041
 This molecule is an asymmetric top.
 Rotational symmetry number  1.
 Warning -- assumption of classical behavior for rotation
           may cause significant error
 Rotational temperatures (Kelvin)      0.11767     0.04413     0.04093
 Rotational constants (GHZ):           2.45192     0.91951     0.85282
 Zero-point vibrational energy     399781.8 (Joules/Mol)
                                   95.55015 (Kcal/Mol)
 Warning -- explicit consideration of  15 degrees of freedom as
           vibrations may cause significant error
 Vibrational temperatures:     70.39   147.64   181.05   268.06   284.37
          (Kelvin)            391.61   440.53   535.81   563.38   677.16
                              694.05   761.57   839.64   871.50   886.48
                              950.76  1031.78  1058.87  1108.03  1195.50
                             1368.32  1440.25  1447.62  1487.90  1555.52
                             1568.17  1626.04  1667.44  1731.76  1773.99
                             1863.31  1889.72  1971.91  2015.64  2041.47
                             2061.80  2080.63  2112.25  2154.51  2176.62
                             2188.72  2370.56  4325.22  4410.48  4445.93
                             4505.72  4676.19  4748.34  4770.60  5304.08
                             5426.52

 Zero-point correction=                           0.152269 (Hartree/Particle)
 Thermal correction to Energy=                    0.162037
 Thermal correction to Enthalpy=                  0.162981
 Thermal correction to Gibbs Free Energy=         0.117087
 Sum of electronic and zero-point Energies=           -514.240481
 Sum of electronic and thermal Energies=              -514.230714
 Sum of electronic and thermal Enthalpies=            -514.229770
 Sum of electronic and thermal Free Energies=         -514.275663

                     E (Thermal)             CV                S
                      KCal/Mol        Cal/Mol-Kelvin    Cal/Mol-Kelvin
 Total                  101.679             36.687             96.591
 Electronic               0.000              0.000              0.000
 Translational            0.889              2.981             40.785
 Rotational               0.889              2.981             29.504
 Vibrational             99.902             30.725             26.302
 Vibration     1          0.595              1.978              4.860
 Vibration     2          0.605              1.947              3.404
 Vibration     3          0.611              1.927              3.009
 Vibration     4          0.632              1.859              2.264
 Vibration     5          0.637              1.843              2.155
 Vibration     6          0.675              1.725              1.582
 Vibration     7          0.697              1.662              1.383
 Vibration     8          0.744              1.529              1.070
 Vibration     9          0.759              1.488              0.994
 Vibration    10          0.828              1.315              0.736
 Vibration    11          0.839              1.289              0.704
 Vibration    12          0.884              1.185              0.589
 Vibration    13          0.940              1.067              0.479
 Vibration    14          0.964              1.020              0.440
 Vibration    15          0.976              0.998              0.423

                           ! Non-Optimized Parameters !
 Normal termination of Gaussian 16 at Tue Dec  8 12:50:33 2020.

 ----------------------------------------------------------------------
 # B3LYP/6-311++G(d,p) empiricaldispersion=gd3bj scf=xqc pop=npa geom=c
 heck
 ----------------------------------------------------------------------

 -------------------------------------
 CID_69239666_JID_859_Energie_neutraal
 -------------------------------------
 Structure from the checkpoint file:  "JID_859.chk"
 Charge =  0 Multiplicity = 1

 SCF Done:  E(RB3LYP) =  -514.560592366     A.U. after   14 cycles
 Normal termination of Gaussian 16 at Tue Dec  8 12:52:10 2020.

 ----------------------------------------------------------------------
 # B3LYP/6-311++G(d,p) empiricaldispersion=gd3bj scf=xqc pop=npa geom=c
 heck
 ----------------------------------------------------------------------

 -----------------------------------
 CID_69239666_JID_859_Energie_kation
 -----------------------------------
 Structure from the checkpoint file:  "JID_859.chk"
 Charge =  1 Multiplicity = 2

 SCF Done:  E(UB3LYP) =  -514.264028021     A.U. after   22 cycles
 Normal termination of Gaussian 16 at Tue Dec  8 13:08:44 2020.
 Gaussian 16:  ES64L-G16RevA.03 25-Dec-2016

 ----------------------------------------------------------------------
 # B3LYP/6-311++G(d,p) empiricaldispersion=gd3bj scf=xqc pop=npa geom=c
 heck
 ----------------------------------------------------------------------

 ----------------------------------
 CID_69239666_JID_859_Energie_anion
 ----------------------------------
 Structure from the checkpoint file:  "JID_859.chk"
 Charge = -1 Multiplicity = 2

                         Standard orientation:
 ---------------------------------------------------------------------
 Center     Atomic      Atomic             Coordinates (Angstroms)
 Number     Number       Type             X           Y           Z
 ---------------------------------------------------------------------
      1          6           0        1.587984    0.529321    1.071685
      2          6           0        0.347596    0.003134    1.408261
      3          7           0       -0.020790   -0.824011    0.386302
      4          6           0        0.920056   -0.839386   -0.620163
      5          6           0        1.939993   -0.006496   -0.200449
      6          8           0        3.081843    0.211783   -0.920797
      7          8           0       -1.268896   -1.404753    0.291512
      8          6           0       -2.152908   -0.628446   -0.558061
      9          6           0       -2.379724    0.809059   -0.098487
     10          8           0       -1.377229    1.717093   -0.510054
     11          1           0        2.191525    1.178599    1.692457
     12          1           0       -0.276236    0.115274    2.281022
     13          1           0        0.788996   -1.425013   -1.514671
     14          1           0        3.648871    0.811685   -0.414624
     15          1           0       -1.769630   -0.630276   -1.585192
     16          1           0       -3.083042   -1.202767   -0.514226
     17          1           0       -3.309926    1.160358   -0.559889
     18          1           0       -2.532037    0.816732    0.992819
     19          1           0       -0.576714    1.547375    0.016182
 ---------------------------------------------------------------------

 SCF Done:  E(UB3LYP) =  -514.545832844     A.U. after   29 cycles

 The electronic state is 2-A.
 Alpha  occ. eigenvalues --  -19.08846 -19.04215 -19.01960 -14.31259 -10.13018
 Alpha  occ. eigenvalues --  -10.12355 -10.12261 -10.10241 -10.09160 -10.06585
 Alpha  occ. eigenvalues --   -1.02375  -0.95061  -0.92321  -0.84818  -0.68102
 Alpha  occ. eigenvalues --   -0.64232  -0.62865  -0.54427  -0.50870  -0.46635
 Alpha  occ. eigenvalues --   -0.46059  -0.42461  -0.40285  -0.39566  -0.36561
 Alpha  occ. eigenvalues --   -0.35275  -0.33700  -0.32749  -0.31714  -0.30422
 Alpha  occ. eigenvalues --   -0.29603  -0.26156  -0.25616  -0.23330  -0.21322
 Alpha  occ. eigenvalues --   -0.17717  -0.13878  -0.10945   0.04640
 Alpha virt. eigenvalues --    0.06089   0.07788   0.08986   0.09539   0.09946
 Alpha virt. eigenvalues --    0.10573   0.11820   0.12228   0.12873   0.14239
 Alpha virt. eigenvalues --    0.15028   0.15565   0.16782   0.17326   0.17603

  Beta  occ. eigenvalues --  -19.08844 -19.04160 -19.01953 -14.31259 -10.12991
  Beta  occ. eigenvalues --  -10.12354 -10.12231 -10.10229 -10.09148 -10.06554
  Beta  occ. eigenvalues --   -1.02367  -0.94954  -0.92307  -0.84800  -0.68061
  Beta  occ. eigenvalues --   -0.64200  -0.62819  -0.54363  -0.50787  -0.46596
  Beta  occ. eigenvalues --   -0.46012  -0.42433  -0.40242  -0.39497  -0.36521
  Beta  occ. eigenvalues --   -0.35229  -0.33659  -0.32714  -0.31654  -0.30383
  Beta  occ. eigenvalues --   -0.29564  -0.26121  -0.25566  -0.23310  -0.21307
  Beta  occ. eigenvalues --   -0.17687  -0.13859  -0.10924
  Beta virt. eigenvalues --    0.07391   0.08207   0.08496   0.09464   0.10102
  Beta virt. eigenvalues --    0.10743   0.10918   0.12217   0.12464   0.12950
  Beta virt. eigenvalues --    0.14580   0.15170   0.15604   0.16970   0.17467

 Mulliken charges and spin densities:
               1          2
     1  C    0.588324  -0.319238
     2  C   -0.303828  -0.056178
     3  N   -0.415403   0.101222
     4  C    1.512603  -1.168675
     5  C   -0.240569  -0.606814
     6  O   -0.302293   0.035176
     7  O    0.231440  -0.027576
     8  C    0.018100  -0.238503
     9  C    0.800983  -1.135110
    10  O   -0.272790   0.023995
    11  H   -1.011864   1.210128
    12  H   -0.248843   0.415514
    13  H    0.050386   0.112738
    14  H   -0.539153   0.824951
    15  H    0.233778  -0.067676
    16  H   -0.840780   1.015049
    17  H   -0.460092   0.616589
    18  H   -0.064566   0.226573
    19  H    0.264567   0.037834
 Sum of Mulliken charges =  -1.00000   1.00000

 Dipole moment (field-independent basis, Debye):
    X=             -1.6057    Y=             -3.0706    Z=             -1.0396  Tot=              3.6177
 Quadrupole moment (field-independent basis, Debye-Ang):
   XX=           -139.5935   YY=            -91.7012   ZZ=            -86.8555
   XY=            -10.7918   XZ=             -3.8486   YZ=             -0.2798

 Summary of Natural Population Analysis:

                                       Natural Population
                Natural  -----------------------------------------------
    Atom  No    Charge         Core      Valence    Rydberg      Total
 -----------------------------------------------------------------------
      C    1   -0.17580      0.99953     2.16475    0.01153     3.17580
      C    2   -0.04155      0.99957     2.02724    0.01475     3.04155
      N    3   -0.04337      0.99956     2.53084    0.01297     3.54337
      C    4   -0.06207      0.99949     2.05068    0.01190     3.06207
      C    5    0.12292      0.99937     1.86223    0.01547     2.87708
      O    6   -0.34269      0.99987     3.33531    0.00750     4.34269
      O    7   -0.20332      0.99989     3.19317    0.01026     4.20332
      C    8   -0.02624      0.99957     2.01375    0.01292     3.02624
      C    9   -0.03111      0.99961     2.01790    0.01361     3.03111
      O   10   -0.37048      0.99990     3.36395    0.00664     4.37048
      H   11    0.11377      0.00000     0.38228    0.00395     0.38623
      H   12    0.11027      0.00000     0.38843    0.00129     0.38973
      H   13    0.10672      0.00000     0.39230    0.00098     0.39328
      H   14    0.24186      0.00000     0.24241    0.01572     0.25814
      H   15    0.08762      0.00000     0.41100    0.00138     0.41238
      H   16    0.09986      0.00000     0.39693    0.00322     0.40014
      H   17    0.09404      0.00000     0.40412    0.00184     0.40596
      H   18    0.08211      0.00000     0.41605    0.00184     0.41789
      H   19    0.23746      0.00000     0.25866    0.00387     0.26254
 =======================================================================
   * Total *   -0.00000      9.99635    27.85200    0.15165    38.00000

 Normal termination of Gaussian 16 at Tue Dec  8 13:17:26 2020.
