 Gaussian 16, Revision A.03,

 -----------------------------------------------------------
 # opt freq B3LYP/6-31G(d) empiricaldispersion=gd3bj scf=xqc
 -----------------------------------------------------------

 -------------------------------
 CID_154027835_JID_2457_neutraal
 -------------------------------
 Symbolic Z-matrix:
 Charge =  0 Multiplicity = 1

 SCF Done:  E(RB3LYP) =  -466.946552379     A.U. after   14 cycles
 SCF Done:  E(RB3LYP) =  -466.947272120     A.U. after   12 cycles
 SCF Done:  E(RB3LYP) =  -466.948117399     A.U. after   11 cycles
 SCF Done:  E(RB3LYP) =  -466.948409399     A.U. after   12 cycles
 SCF Done:  E(RB3LYP) =  -466.948588654     A.U. after   11 cycles
 SCF Done:  E(RB3LYP) =  -466.948634553     A.U. after   10 cycles
 SCF Done:  E(RB3LYP) =  -466.948647569     A.U. after    9 cycles
 SCF Done:  E(RB3LYP) =  -466.948654104     A.U. after    9 cycles
 SCF Done:  E(RB3LYP) =  -466.948658015     A.U. after    9 cycles
 SCF Done:  E(RB3LYP) =  -466.948664204     A.U. after    9 cycles
 SCF Done:  E(RB3LYP) =  -466.948665313     A.U. after    8 cycles
 SCF Done:  E(RB3LYP) =  -466.948665349     A.U. after    6 cycles
 Optimization completed.
    -- Stationary point found.
 Normal termination of Gaussian 16 at Wed Dec  9 17:30:56 2020.

 --------------------------------------------------------------------
 #N Geom=AllCheck Guess=TCheck SCRF=Check GenChk RB3LYP/6-31G(d) Freq
 --------------------------------------------------------------------

 Structure from the checkpoint file:  "JID_2457.chk"
 -------------------------------
 CID_154027835_JID_2457_neutraal
 -------------------------------
 Charge =  0 Multiplicity = 1

 SCF Done:  E(RB3LYP) =  -466.948665349     A.U. after    1 cycles

  Exact polarizability: 140.837   6.604 109.564   6.901  -9.728 106.273
 Approx polarizability: 202.172  14.521 164.093  14.416 -23.866 174.867

                      1                      2                      3
                      A                      A                      A
 Frequencies --     51.6054                59.8124               103.8302
 Red. masses --      2.8903                 3.0788                 3.0958
 Frc consts  --      0.0045                 0.0065                 0.0197
 IR Inten    --      0.1492                 0.0080                 0.2148

                      4                      5                      6
                      A                      A                      A
 Frequencies --    134.1998               193.7750               216.3089
 Red. masses --      1.2604                 2.4530                 2.7524
 Frc consts  --      0.0134                 0.0543                 0.0759
 IR Inten    --      0.1777                 0.1106                 0.4152

                      7                      8                      9
                      A                      A                      A
 Frequencies --    258.1961               284.5934               298.5460
 Red. masses --      1.6503                 1.5357                 2.8721
 Frc consts  --      0.0648                 0.0733                 0.1508
 IR Inten    --      0.1002                 0.0385                 0.0470

                     10                     11                     12
                      A                      A                      A
 Frequencies --    318.3201               329.8560               361.1297
 Red. masses --      1.3394                 1.7299                 2.8107
 Frc consts  --      0.0800                 0.1109                 0.2160
 IR Inten    --      0.0086                 0.1706                 0.1808

                     13                     14                     15
                      A                      A                      A
 Frequencies --    414.9163               418.7568               488.7294
 Red. masses --      2.9186                 2.9049                 2.9883
 Frc consts  --      0.2960                 0.3001                 0.4205
 IR Inten    --      0.3565                 0.1879                 0.2368

                     16                     17                     18
                      A                      A                      A
 Frequencies --    539.3281               544.3900               637.7289
 Red. masses --      2.7392                 2.7564                 6.1383
 Frc consts  --      0.4694                 0.4813                 1.4709
 IR Inten    --      2.4020                 1.9364                 0.3307

                     19                     20                     21
                      A                      A                      A
 Frequencies --    647.1755               716.4137               723.9794
 Red. masses --      3.1507                 1.6753                 2.9947
 Frc consts  --      0.7775                 0.5066                 0.9248
 IR Inten    --     12.2304                31.5038                11.3735

                     22                     23                     24
                      A                      A                      A
 Frequencies --    740.1567               783.7215               859.3753
 Red. masses --      1.7321                 2.0891                 1.2521
 Frc consts  --      0.5591                 0.7560                 0.5448
 IR Inten    --     18.2191                13.5140                 0.1202

                     25                     26                     27
                      A                      A                      A
 Frequencies --    878.1245               920.4126               936.1485
 Red. masses --      2.4567                 1.5464                 1.9553
 Frc consts  --      1.1161                 0.7719                 1.0096
 IR Inten    --      1.9034                 1.7758                 1.7415

                     28                     29                     30
                      A                      A                      A
 Frequencies --    954.9378               968.3612               978.5633
 Red. masses --      1.5114                 1.3481                 1.9142
 Frc consts  --      0.8120                 0.7448                 1.0800
 IR Inten    --      1.2765                 0.1814                 8.3342

                     31                     32                     33
                      A                      A                      A
 Frequencies --    992.6860              1002.4609              1022.7070
 Red. masses --      1.2453                 1.1940                 5.8589
 Frc consts  --      0.7230                 0.7070                 3.6105
 IR Inten    --      0.8271                 0.5019                 0.4923

                     34                     35                     36
                      A                      A                      A
 Frequencies --   1044.9841              1062.9156              1075.8380
 Red. masses --      1.3308                 2.4613                 1.5099
 Frc consts  --      0.8562                 1.6384                 1.0296
 IR Inten    --      1.3718                 6.1369                 0.6393

                     37                     38                     39
                      A                      A                      A
 Frequencies --   1097.5180              1121.3302              1137.2283
 Red. masses --      1.6854                 1.5980                 2.2162
 Frc consts  --      1.1961                 1.1838                 1.6887
 IR Inten    --      1.2822                 3.0077                 6.4534

                     40                     41                     42
                      A                      A                      A
 Frequencies --   1187.0637              1194.1229              1224.0314
 Red. masses --      2.9241                 1.0909                 1.1445
 Frc consts  --      2.4276                 0.9165                 1.0103
 IR Inten    --      5.2592                 0.0788                 1.0082

                     43                     44                     45
                      A                      A                      A
 Frequencies --   1229.5081              1273.1881              1327.0404
 Red. masses --      2.2795                 2.1714                 1.4946
 Frc consts  --      2.0302                 2.0738                 1.5507
 IR Inten    --      3.0622                 9.1408                 2.9114

                     46                     47                     48
                      A                      A                      A
 Frequencies --   1349.3482              1372.2536              1421.7731
 Red. masses --      3.2079                 1.6539                 1.2242
 Frc consts  --      3.4413                 1.8349                 1.4580
 IR Inten    --      1.4409                 0.1154                 3.7283

                     49                     50                     51
                      A                      A                      A
 Frequencies --   1424.1411              1445.3608              1458.7526
 Red. masses --      1.2374                 1.2250                 1.3334
 Frc consts  --      1.4787                 1.5077                 1.6717
 IR Inten    --      2.2507                 1.9299                 5.9708

                     52                     53                     54
                      A                      A                      A
 Frequencies --   1494.9289              1512.9243              1515.3074
 Red. masses --      2.1592                 1.0563                 1.0627
 Frc consts  --      2.8431                 1.4245                 1.4377
 IR Inten    --      5.6356                 3.9419                 4.1587

                     55                     56                     57
                      A                      A                      A
 Frequencies --   1517.3753              1521.5097              1535.3541
 Red. masses --      1.0616                 1.0625                 1.0805
 Frc consts  --      1.4401                 1.4492                 1.5007
 IR Inten    --     10.1461                 1.8593                 2.5150

                     58                     59                     60
                      A                      A                      A
 Frequencies --   1539.7996              1549.7375              1643.0004
 Red. masses --      1.0554                 2.0142                 5.4446
 Frc consts  --      1.4743                 2.8501                 8.6594
 IR Inten    --      5.1585                14.8940                 1.2724

                     61                     62                     63
                      A                      A                      A
 Frequencies --   1666.5500              1740.6557              3036.4121
 Red. masses --      5.5089                 6.6098                 1.0431
 Frc consts  --      9.0147                11.7995                 5.6665
 IR Inten    --      7.3736                 3.2480                27.4703

                     64                     65                     66
                      A                      A                      A
 Frequencies --   3044.4471              3051.5167              3079.7667
 Red. masses --      1.0355                 1.0362                 1.0991
 Frc consts  --      5.6545                 5.6851                 6.1422
 IR Inten    --     25.8580                24.9230                22.7404

                     67                     68                     69
                      A                      A                      A
 Frequencies --   3113.2039              3117.9665              3126.4256
 Red. masses --      1.1010                 1.1007                 1.0882
 Frc consts  --      6.2869                 6.3048                 6.2669
 IR Inten    --      6.0295                59.1437                11.2306

                     70                     71                     72
                      A                      A                      A
 Frequencies --   3129.1805              3131.7509              3150.8740
 Red. masses --      1.0986                 1.1023                 1.0934
 Frc consts  --      6.3379                 6.3698                 6.3959
 IR Inten    --     14.6641                30.3369                38.4091

                     73                     74                     75
                      A                      A                      A
 Frequencies --   3168.9869              3179.0497              3187.3073
 Red. masses --      1.0950                 1.0846                 1.0884
 Frc consts  --      6.4789                 6.4585                 6.5145
 IR Inten    --     31.3071                 1.3279                10.8157

                     76                     77                     78
                      A                      A                      A
 Frequencies --   3200.1100              3208.0431              3218.9532
 Red. masses --      1.0918                 1.0957                 1.0925
 Frc consts  --      6.5873                 6.6439                 6.6694
 IR Inten    --     30.0533                27.0201                12.1101

 - Thermochemistry -
 -------------------
 Temperature   298.150 Kelvin.  Pressure   1.00000 Atm.
 Atom     1 has atomic number  6 and mass  12.00000

 Molecular mass:   160.12520 amu.
 Principal axes and moments of inertia in atomic units:
                           1         2         3
     Eigenvalues --  1349.796542395.687962770.52486
           X            0.99987   0.01612   0.00057
           Y           -0.01613   0.99983   0.00945
           Z           -0.00042  -0.00946   0.99996
 This molecule is an asymmetric top.
 Rotational symmetry number  1.
 Warning -- assumption of classical behavior for rotation
           may cause significant error
 Rotational temperatures (Kelvin)      0.06417     0.03615     0.03126
 Rotational constants (GHZ):           1.33705     0.75333     0.65141
 Zero-point vibrational energy     649612.8 (Joules/Mol)
                                  155.26119 (Kcal/Mol)
 Warning -- explicit consideration of  17 degrees of freedom as
           vibrations may cause significant error
 Vibrational temperatures:     74.25    86.06   149.39   193.08   278.80
          (Kelvin)            311.22   371.49   409.47   429.54   457.99
                              474.59   519.59   596.97   602.50   703.17
                              775.97   783.26   917.55   931.14  1030.76
                             1041.64  1064.92  1127.60  1236.45  1263.43
                             1324.27  1346.91  1373.94  1393.26  1407.93
                             1428.25  1442.32  1471.45  1503.50  1529.30
                             1547.89  1579.08  1613.34  1636.22  1707.92
                             1718.08  1761.11  1768.99  1831.83  1909.32
                             1941.41  1974.37  2045.61  2049.02  2079.55
                             2098.82  2150.87  2176.76  2180.19  2183.16
                             2189.11  2209.03  2215.43  2229.73  2363.91
                             2397.79  2504.42  4368.72  4380.28  4390.45
                             4431.10  4479.21  4486.06  4498.23  4502.19
                             4505.89  4533.40  4559.47  4573.94  4585.82
                             4604.24  4615.66  4631.36

 Zero-point correction=                           0.247424 (Hartree/Particle)
 Thermal correction to Energy=                    0.259533
 Thermal correction to Enthalpy=                  0.260477
 Thermal correction to Gibbs Free Energy=         0.209608
 Sum of electronic and zero-point Energies=           -466.701241
 Sum of electronic and thermal Energies=              -466.689132
 Sum of electronic and thermal Enthalpies=            -466.688188
 Sum of electronic and thermal Free Energies=         -466.739057

                     E (Thermal)             CV                S
                      KCal/Mol        Cal/Mol-Kelvin    Cal/Mol-Kelvin
 Total                  162.860             47.227            107.064
 Electronic               0.000              0.000              0.000
 Translational            0.889              2.981             41.121
 Rotational               0.889              2.981             30.572
 Vibrational            161.082             41.265             35.370
 Vibration     1          0.596              1.977              4.755
 Vibration     2          0.597              1.973              4.463
 Vibration     3          0.605              1.946              3.381
 Vibration     4          0.613              1.919              2.885
 Vibration     5          0.635              1.849              2.191
 Vibration     6          0.645              1.816              1.990
 Vibration     7          0.667              1.749              1.674
 Vibration     8          0.683              1.702              1.506
 Vibration     9          0.692              1.676              1.425
 Vibration    10          0.705              1.639              1.319
 Vibration    11          0.713              1.616              1.261
 Vibration    12          0.735              1.552              1.117
 Vibration    13          0.778              1.438              0.909
 Vibration    14          0.782              1.429              0.896
 Vibration    15          0.845              1.275              0.687
 Vibration    16          0.894              1.163              0.567
 Vibration    17          0.900              1.152              0.556

 Optimization completed.
    -- Stationary point found.
 Normal termination of Gaussian 16 at Wed Dec  9 17:38:35 2020.

 ----------------------------------------------------------------------
 # B3LYP/6-311++G(d,p) empiricaldispersion=gd3bj scf=xqc pop=npa geom=c
 heck
 ----------------------------------------------------------------------

 ---------------------------------------
 CID_154027835_JID_2457_Energie_neutraal
 ---------------------------------------
 Structure from the checkpoint file:  "JID_2457.chk"
 Charge =  0 Multiplicity = 1

 SCF Done:  E(RB3LYP) =  -467.073049432     A.U. after   14 cycles
 Normal termination of Gaussian 16 at Wed Dec  9 17:41:59 2020.

 ----------------------------------------------------------------------
 # B3LYP/6-311++G(d,p) empiricaldispersion=gd3bj scf=xqc pop=npa geom=c
 heck
 ----------------------------------------------------------------------

 -------------------------------------
 CID_154027835_JID_2457_Energie_kation
 -------------------------------------
 Structure from the checkpoint file:  "JID_2457.chk"
 Charge =  1 Multiplicity = 2

 SCF Done:  E(UB3LYP) =  -466.771250314     A.U. after   22 cycles
 Normal termination of Gaussian 16 at Wed Dec  9 17:49:23 2020.
 Gaussian 16:  ES64L-G16RevA.03 25-Dec-2016

 ----------------------------------------------------------------------
 # B3LYP/6-311++G(d,p) empiricaldispersion=gd3bj scf=xqc pop=npa geom=c
 heck
 ----------------------------------------------------------------------

 ------------------------------------
 CID_154027835_JID_2457_Energie_anion
 ------------------------------------
 Structure from the checkpoint file:  "JID_2457.chk"
 Charge = -1 Multiplicity = 2

                         Standard orientation:
 ---------------------------------------------------------------------
 Center     Atomic      Atomic             Coordinates (Angstroms)
 Number     Number       Type             X           Y           Z
 ---------------------------------------------------------------------
      1          6           0       -1.076074    2.312791    0.843563
      2          6           0       -2.001956    1.674534   -0.152215
      3          6           0       -2.025409    0.403275   -0.566301
      4          6           0       -1.147388   -0.762012   -0.114161
      5          6           0       -1.690369   -1.269461    1.238789
      6          6           0       -1.288183   -1.906194   -1.147590
      7          6           0        0.338579   -0.384089   -0.054601
      8          6           0        1.176285   -0.779396    0.994135
      9          6           0        2.536160   -0.457553    0.991192
     10          6           0        3.087259    0.261615   -0.066588
     11          6           0        2.264476    0.656386   -1.123973
     12          6           0        0.909916    0.335580   -1.115140
     13          1           0       -0.437487    1.591045    1.353917
     14          1           0       -1.651302    2.863902    1.598805
     15          1           0       -0.418496    3.041985    0.350609
     16          1           0       -2.740580    2.348311   -0.588280
     17          1           0       -2.795020    0.129310   -1.288196
     18          1           0       -2.762988   -1.469433    1.150518
     19          1           0       -1.203601   -2.201884    1.546835
     20          1           0       -1.553347   -0.525371    2.029414
     21          1           0       -0.961761   -1.581722   -2.141030
     22          1           0       -0.675480   -2.764929   -0.854462
     23          1           0       -2.332243   -2.234580   -1.219528
     24          1           0        0.773669   -1.336808    1.832595
     25          1           0        3.162072   -0.771465    1.822355
     26          1           0        4.143743    0.514675   -0.068335
     27          1           0        2.678646    1.219888   -1.955915
     28          1           0        0.274402    0.664220   -1.931956
 ---------------------------------------------------------------------

 SCF Done:  E(UB3LYP) =  -467.056080536     A.U. after   32 cycles

 The electronic state is 2-A.
 Alpha  occ. eigenvalues --  -10.09418 -10.08036 -10.07287 -10.07278 -10.07129
 Alpha  occ. eigenvalues --  -10.06982 -10.06847 -10.06829 -10.06367 -10.06184
 Alpha  occ. eigenvalues --  -10.06063 -10.06026  -0.76347  -0.72288  -0.67044
 Alpha  occ. eigenvalues --   -0.64490  -0.63424  -0.58918  -0.58309  -0.52013
 Alpha  occ. eigenvalues --   -0.50229  -0.47597  -0.43359  -0.40213  -0.37567
 Alpha  occ. eigenvalues --   -0.35887  -0.35079  -0.34222  -0.33243  -0.32026
 Alpha  occ. eigenvalues --   -0.31107  -0.30181  -0.29230  -0.27927  -0.27572
 Alpha  occ. eigenvalues --   -0.26635  -0.26316  -0.25098  -0.23708  -0.23030
 Alpha  occ. eigenvalues --   -0.21688  -0.15488  -0.15313  -0.13769   0.04551
 Alpha virt. eigenvalues --    0.06550   0.07098   0.07653   0.08506   0.08560
 Alpha virt. eigenvalues --    0.08649   0.09008   0.09622   0.10224   0.10876
 Alpha virt. eigenvalues --    0.11002   0.11379   0.11708   0.12794   0.13190

  Beta  occ. eigenvalues --  -10.09415 -10.08035 -10.07273 -10.07264 -10.07115
  Beta  occ. eigenvalues --  -10.06970 -10.06834 -10.06819 -10.06356 -10.06162
  Beta  occ. eigenvalues --  -10.06041 -10.05997  -0.76328  -0.72265  -0.67012
  Beta  occ. eigenvalues --   -0.64459  -0.63395  -0.58869  -0.58267  -0.51974
  Beta  occ. eigenvalues --   -0.50191  -0.47557  -0.43315  -0.40163  -0.37522
  Beta  occ. eigenvalues --   -0.35859  -0.35039  -0.34187  -0.33217  -0.31993
  Beta  occ. eigenvalues --   -0.31080  -0.30148  -0.29204  -0.27896  -0.27538
  Beta  occ. eigenvalues --   -0.26606  -0.26294  -0.25067  -0.23680  -0.23003
  Beta  occ. eigenvalues --   -0.21659  -0.15472  -0.15299  -0.13755
  Beta virt. eigenvalues --    0.06674   0.07530   0.07931   0.08204   0.08548
  Beta virt. eigenvalues --    0.08643   0.09330   0.09630   0.09935   0.10686
  Beta virt. eigenvalues --    0.11074   0.11279   0.11980   0.12251   0.13165

 Mulliken charges and spin densities:
               1          2
     1  C    1.159926  -1.895932
     2  C    0.610628  -0.863544
     3  C   -0.489439   0.442567
     4  C   -0.142396   0.559419
     5  C    0.231281  -0.817213
     6  C    0.525796  -1.252131
     7  C    0.488281   0.371954
     8  C   -0.984738   0.924494
     9  C    0.083204  -0.487674
    10  C    1.490704  -1.826754
    11  C   -0.040791  -0.281224
    12  C   -0.807704   0.438831
    13  H    0.169786  -0.015925
    14  H   -0.016402   0.159105
    15  H   -0.099111   0.250070
    16  H   -0.645941   0.819628
    17  H   -0.286964   0.483332
    18  H   -0.144676   0.318528
    19  H   -0.179347   0.308405
    20  H   -0.170401   0.309939
    21  H   -0.068757   0.220855
    22  H   -0.035028   0.182463
    23  H   -0.109704   0.250885
    24  H   -0.069048   0.237227
    25  H   -0.670788   0.855182
    26  H   -0.249917   0.397972
    27  H   -0.584723   0.766135
    28  H    0.036270   0.143408
 Sum of Mulliken charges =  -1.00000   1.00000

 Dipole moment (field-independent basis, Debye):
    X=             -0.3032    Y=             -0.8679    Z=             -0.0989  Tot=              0.9246
 Quadrupole moment (field-independent basis, Debye-Ang):
   XX=           -141.7179   YY=           -116.7116   ZZ=           -114.4985
   XY=              1.4695   XZ=             -3.1320   YZ=              4.3705

 Summary of Natural Population Analysis:

                                       Natural Population
                Natural  -----------------------------------------------
    Atom  No    Charge         Core      Valence    Rydberg      Total
 -----------------------------------------------------------------------
      C    1   -0.30756      0.99964     2.30145    0.00647     3.30756
      C    2   -0.08121      0.99952     2.07190    0.00979     3.08121
      C    3   -0.09470      0.99949     2.08138    0.01383     3.09470
      C    4   -0.06968      0.99953     2.05551    0.01464     3.06968
      C    5   -0.28110      0.99963     2.27402    0.00744     3.28110
      C    6   -0.27539      0.99964     2.26831    0.00744     3.27539
      C    7   -0.00605      0.99949     1.99265    0.01391     3.00605
      C    8   -0.10729      0.99949     2.09777    0.01003     3.10729
      C    9   -0.09728      0.99956     2.08693    0.01078     3.09728
      C   10   -0.10602      0.99956     2.09646    0.01001     3.10602
      C   11   -0.09823      0.99956     2.08803    0.01064     3.09823
      C   12   -0.10037      0.99950     2.09056    0.01031     3.10037
      H   13    0.10631      0.00000     0.39228    0.00141     0.39369
      H   14    0.10201      0.00000     0.39701    0.00098     0.39799
      H   15    0.10580      0.00000     0.39307    0.00113     0.39420
      H   16    0.09333      0.00000     0.40529    0.00137     0.40667
      H   17    0.09823      0.00000     0.40008    0.00169     0.40177
      H   18    0.10389      0.00000     0.39499    0.00112     0.39611
      H   19    0.09854      0.00000     0.40024    0.00121     0.40146
      H   20    0.10291      0.00000     0.39589    0.00119     0.39709
      H   21    0.10165      0.00000     0.39728    0.00107     0.39835
      H   22    0.10094      0.00000     0.39811    0.00094     0.39906
      H   23    0.09891      0.00000     0.40003    0.00106     0.40109
      H   24    0.10365      0.00000     0.39457    0.00178     0.39635
      H   25    0.10119      0.00000     0.39734    0.00147     0.39881
      H   26    0.10107      0.00000     0.39760    0.00133     0.39893
      H   27    0.10092      0.00000     0.39779    0.00128     0.39908
      H   28    0.10550      0.00000     0.39279    0.00171     0.39450
 =======================================================================
   * Total *   -0.00000     11.99461    31.85935    0.14604    44.00000

 Normal termination of Gaussian 16 at Wed Dec  9 17:57:59 2020.
