 Gaussian 16, Revision A.03,

 -----------------------------------------------------------
 # opt freq B3LYP/6-31G(d) empiricaldispersion=gd3bj scf=xqc
 -----------------------------------------------------------

 -------------------------------
 CID_101936876_JID_4886_neutraal
 -------------------------------
 Symbolic Z-matrix:
 Charge =  0 Multiplicity = 1

 SCF Done:  E(RB3LYP) =  -682.992923079     A.U. after   15 cycles
 SCF Done:  E(RB3LYP) =  -682.998494633     A.U. after   12 cycles
 SCF Done:  E(RB3LYP) =  -682.999293758     A.U. after   12 cycles
 SCF Done:  E(RB3LYP) =  -682.999679687     A.U. after   12 cycles
 SCF Done:  E(RB3LYP) =  -682.999845768     A.U. after   12 cycles
 SCF Done:  E(RB3LYP) =  -682.999954600     A.U. after   11 cycles
 SCF Done:  E(RB3LYP) =  -683.000011641     A.U. after   11 cycles
 SCF Done:  E(RB3LYP) =  -683.000042419     A.U. after   11 cycles
 SCF Done:  E(RB3LYP) =  -683.000051212     A.U. after    9 cycles
 SCF Done:  E(RB3LYP) =  -683.000066391     A.U. after   10 cycles
 SCF Done:  E(RB3LYP) =  -683.000097217     A.U. after    9 cycles
 SCF Done:  E(RB3LYP) =  -683.000101544     A.U. after    9 cycles
 SCF Done:  E(RB3LYP) =  -683.000106739     A.U. after    9 cycles
 SCF Done:  E(RB3LYP) =  -683.000111060     A.U. after    9 cycles
 SCF Done:  E(RB3LYP) =  -683.000112342     A.U. after    9 cycles
 SCF Done:  E(RB3LYP) =  -683.000112673     A.U. after    8 cycles
 Optimization completed.
    -- Stationary point found.
 Normal termination of Gaussian 16 at Thu Dec 10 10:50:03 2020.

 --------------------------------------------------------------------
 #N Geom=AllCheck Guess=TCheck SCRF=Check GenChk RB3LYP/6-31G(d) Freq
 --------------------------------------------------------------------

 Structure from the checkpoint file:  "JID_4886.chk"
 -------------------------------
 CID_101936876_JID_4886_neutraal
 -------------------------------
 Charge =  0 Multiplicity = 1

 SCF Done:  E(RB3LYP) =  -683.000112673     A.U. after    1 cycles

  Exact polarizability: 224.846  -0.525 114.504  -0.895   2.902  49.449
 Approx polarizability: 328.421 -11.062 212.782  -2.081   6.266  76.486

                      1                      2                      3
                      A                      A                      A
 Frequencies --     47.6144                48.6974                63.4820
 Red. masses --      1.2227                 2.7838                 4.1622
 Frc consts  --      0.0016                 0.0039                 0.0099
 IR Inten    --      0.0865                 0.1522                 0.4625

                      4                      5                      6
                      A                      A                      A
 Frequencies --     90.4532               141.1581               157.7709
 Red. masses --      5.9076                 5.1746                 9.9894
 Frc consts  --      0.0285                 0.0607                 0.1465
 IR Inten    --      0.2915                 3.8703                 1.2791

                      7                      8                      9
                      A                      A                      A
 Frequencies --    205.1951               228.5063               271.5641
 Red. masses --      5.0669                 5.4827                 3.6168
 Frc consts  --      0.1257                 0.1687                 0.1572
 IR Inten    --      0.5136                 1.2801                 4.7707

                     10                     11                     12
                      A                      A                      A
 Frequencies --    293.3776               327.3932               393.1499
 Red. masses --      7.6259                 5.3698                 5.9311
 Frc consts  --      0.3867                 0.3391                 0.5401
 IR Inten    --      0.2979                13.5857                37.4749

                     13                     14                     15
                      A                      A                      A
 Frequencies --    463.6129               532.4008               604.4025
 Red. masses --      1.2131                 6.6095                 4.7648
 Frc consts  --      0.1536                 1.1038                 1.0255
 IR Inten    --     99.8684                 0.6860                28.1402

                     16                     17                     18
                      A                      A                      A
 Frequencies --    608.5173               636.0052               684.0678
 Red. masses --      4.4310                 6.5039                 4.1121
 Frc consts  --      0.9667                 1.5500                 1.1337
 IR Inten    --     13.9632                15.2543                 0.4386

                     19                     20                     21
                      A                      A                      A
 Frequencies --    719.1961               739.4471               745.5770
 Red. masses --      5.6960                 6.4752                 4.5647
 Frc consts  --      1.7359                 2.0860                 1.4950
 IR Inten    --     33.6032                 3.1810                 4.1606

                     22                     23                     24
                      A                      A                      A
 Frequencies --    749.8344               758.3038               803.4243
 Red. masses --      1.5156                 6.0003                 1.3708
 Frc consts  --      0.5021                 2.0329                 0.5213
 IR Inten    --     65.0015                11.8371                13.9695

                     25                     26                     27
                      A                      A                      A
 Frequencies --    809.6844               869.1793               884.9380
 Red. masses --      5.2144                 1.2975                 1.3888
 Frc consts  --      2.0141                 0.5775                 0.6408
 IR Inten    --     10.4748                 0.9858                10.6981

                     28                     29                     30
                      A                      A                      A
 Frequencies --    907.8708               965.4512               979.7122
 Red. masses --      6.1180                 3.2702                 2.4369
 Frc consts  --      2.9710                 1.7959                 1.3781
 IR Inten    --      8.3541                 3.4426                29.3388

                     31                     32                     33
                      A                      A                      A
 Frequencies --   1051.7550              1060.9854              1132.7953
 Red. masses --      1.9062                 1.6311                 2.9670
 Frc consts  --      1.2423                 1.0818                 2.2432
 IR Inten    --     23.7669                36.2477                21.0727

                     34                     35                     36
                      A                      A                      A
 Frequencies --   1161.1189              1169.6719              1183.2227
 Red. masses --      2.2066                 1.2901                 2.9442
 Frc consts  --      1.7528                 1.0399                 2.4286
 IR Inten    --     85.5923                 0.7204               139.6728

                     37                     38                     39
                      A                      A                      A
 Frequencies --   1206.4556              1271.1879              1286.0920
 Red. masses --      2.6706                 2.9244                 1.6844
 Frc consts  --      2.2902                 2.7843                 1.6415
 IR Inten    --     14.8653                89.9710                 0.6443

                     40                     41                     42
                      A                      A                      A
 Frequencies --   1310.3805              1354.9666              1418.1983
 Red. masses --      4.0258                 1.8092                 2.9068
 Frc consts  --      4.0729                 1.9570                 3.4446
 IR Inten    --     73.7004                 4.2953                83.6900

                     43                     44                     45
                      A                      A                      A
 Frequencies --   1435.6169              1458.4472              1484.5558
 Red. masses --      2.9303                 2.2740                 1.6693
 Frc consts  --      3.5583                 2.8499                 2.1675
 IR Inten    --    309.8617                12.2509               255.6710

                     46                     47                     48
                      A                      A                      A
 Frequencies --   1517.7312              1528.0341              1538.0923
 Red. masses --      1.0442                 4.8124                 1.0888
 Frc consts  --      1.4172                 6.6203                 1.5176
 IR Inten    --      9.1717                55.8860                 8.6062

                     49                     50                     51
                      A                      A                      A
 Frequencies --   1621.9340              1737.3796              1817.3527
 Red. masses --      5.7008                 8.5910                12.3621
 Frc consts  --      8.8360                15.2786                24.0559
 IR Inten    --      0.4179               130.1917               483.6131

                     52                     53                     54
                      A                      A                      A
 Frequencies --   1874.6695              3077.3958              3143.8749
 Red. masses --     10.8285                 1.0326                 1.1063
 Frc consts  --     22.4216                 5.7615                 6.4426
 IR Inten    --    463.4743                40.8358                14.2324

                     55                     56                     57
                      A                      A                      A
 Frequencies --   3181.6842              3220.7585              3268.3398
 Red. masses --      1.1042                 1.0890                 1.0914
 Frc consts  --      6.5857                 6.6558                 6.8690
 IR Inten    --      0.8517                 2.7050                 6.6357

                     58                     59                     60
                      A                      A                      A
 Frequencies --   3279.9092              3306.5029              3650.8586
 Red. masses --      1.0965                 1.1046                 1.0789
 Frc consts  --      6.9498                 7.1154                 8.4728
 IR Inten    --      0.8469                 0.1712                26.7684

 - Thermochemistry -
 -------------------
 Temperature   298.150 Kelvin.  Pressure   1.00000 Atm.
 Atom     1 has atomic number  6 and mass  12.00000

 Molecular mass:   192.05349 amu.
 Principal axes and moments of inertia in atomic units:
                           1         2         3
     Eigenvalues --  1030.970204971.503965960.85494
           X            0.99994   0.01072   0.00025
           Y           -0.01073   0.99993   0.00521
           Z           -0.00020  -0.00522   0.99999
 This molecule is an asymmetric top.
 Rotational symmetry number  1.
 Warning -- assumption of classical behavior for rotation
           may cause significant error
 Rotational temperatures (Kelvin)      0.08401     0.01742     0.01453
 Rotational constants (GHZ):           1.75053     0.36302     0.30277
 Zero-point vibrational energy     433526.4 (Joules/Mol)
                                  103.61530 (Kcal/Mol)
 Warning -- explicit consideration of  16 degrees of freedom as
           vibrations may cause significant error
 Vibrational temperatures:     68.51    70.06    91.34   130.14   203.10
          (Kelvin)            227.00   295.23   328.77   390.72   422.10
                              471.05   565.66   667.04   766.01   869.60
                              875.52   915.07   984.22  1034.76  1063.90
                             1072.72  1078.84  1091.03  1155.95  1164.96
                             1250.56  1273.23  1306.22  1389.07  1409.59
                             1513.24  1526.52  1629.84  1670.59  1682.90
                             1702.39  1735.82  1828.96  1850.40  1885.35
                             1949.49  2040.47  2065.53  2098.38  2135.94
                             2183.68  2198.50  2212.97  2333.60  2499.70
                             2614.77  2697.23  4427.69  4523.33  4577.73
                             4633.95  4702.41  4719.06  4757.32  5252.77

 Zero-point correction=                           0.165121 (Hartree/Particle)
 Thermal correction to Energy=                    0.177298
 Thermal correction to Enthalpy=                  0.178242
 Thermal correction to Gibbs Free Energy=         0.125140
 Sum of electronic and zero-point Energies=           -682.834991
 Sum of electronic and thermal Energies=              -682.822815
 Sum of electronic and thermal Enthalpies=            -682.821871
 Sum of electronic and thermal Free Energies=         -682.874972

                     E (Thermal)             CV                S
                      KCal/Mol        Cal/Mol-Kelvin    Cal/Mol-Kelvin
 Total                  111.256             44.600            111.761
 Electronic               0.000              0.000              0.000
 Translational            0.889              2.981             41.663
 Rotational               0.889              2.981             31.791
 Vibrational            109.478             38.639             38.307
 Vibration     1          0.595              1.978              4.914
 Vibration     2          0.595              1.978              4.870
 Vibration     3          0.597              1.972              4.346
 Vibration     4          0.602              1.956              3.650
 Vibration     5          0.615              1.912              2.788
 Vibration     6          0.621              1.894              2.576
 Vibration     7          0.640              1.832              2.086
 Vibration     8          0.651              1.798              1.891
 Vibration     9          0.675              1.726              1.586
 Vibration    10          0.688              1.686              1.454
 Vibration    11          0.711              1.621              1.273
 Vibration    12          0.760              1.485              0.988
 Vibration    13          0.821              1.331              0.756
 Vibration    14          0.887              1.178              0.582
 Vibration    15          0.963              1.022              0.442
 Vibration    16          0.967              1.014              0.435

 Optimization completed.
    -- Stationary point found.
 Normal termination of Gaussian 16 at Thu Dec 10 10:55:18 2020.

 ----------------------------------------------------------------------
 # B3LYP/6-311++G(d,p) empiricaldispersion=gd3bj scf=xqc pop=npa geom=c
 heck
 ----------------------------------------------------------------------

 ---------------------------------------
 CID_101936876_JID_4886_Energie_neutraal
 ---------------------------------------
 Structure from the checkpoint file:  "JID_4886.chk"
 Charge =  0 Multiplicity = 1

 SCF Done:  E(RB3LYP) =  -683.195263785     A.U. after   15 cycles
 Normal termination of Gaussian 16 at Thu Dec 10 10:57:41 2020.

 ----------------------------------------------------------------------
 # B3LYP/6-311++G(d,p) empiricaldispersion=gd3bj scf=xqc pop=npa geom=c
 heck
 ----------------------------------------------------------------------

 -------------------------------------
 CID_101936876_JID_4886_Energie_kation
 -------------------------------------
 Structure from the checkpoint file:  "JID_4886.chk"
 Charge =  1 Multiplicity = 2

 SCF Done:  E(UB3LYP) =  -682.903160818     A.U. after   21 cycles
 Normal termination of Gaussian 16 at Thu Dec 10 11:02:16 2020.
 Gaussian 16:  ES64L-G16RevA.03 25-Dec-2016

 ----------------------------------------------------------------------
 # B3LYP/6-311++G(d,p) empiricaldispersion=gd3bj scf=xqc pop=npa geom=c
 heck
 ----------------------------------------------------------------------

 ------------------------------------
 CID_101936876_JID_4886_Energie_anion
 ------------------------------------
 Structure from the checkpoint file:  "JID_4886.chk"
 Charge = -1 Multiplicity = 2

                         Standard orientation:
 ---------------------------------------------------------------------
 Center     Atomic      Atomic             Coordinates (Angstroms)
 Number     Number       Type             X           Y           Z
 ---------------------------------------------------------------------
      1          6           0       -4.052933   -0.347972    0.017156
      2          7           0       -2.625307   -0.095378    0.014703
      3          6           0       -1.642680   -1.083371    0.058210
      4          8           0       -1.826719   -2.285055    0.114091
      5          6           0       -0.353657   -0.339115    0.024200
      6          6           0        0.861637   -0.924580    0.017296
      7          6           0        2.124858   -0.250476    0.034755
      8          6           0        2.540701    1.038974    0.291931
      9          6           0        3.960410    1.051031    0.155454
     10          6           0        4.320402   -0.223405   -0.173081
     11          8           0        3.225994   -1.024841   -0.247893
     12          7           0       -0.694235    1.012978    0.010225
     13          6           0       -2.074946    1.187558   -0.071480
     14          8           0       -2.680600    2.231558   -0.189008
     15          1           0       -4.187801   -1.430291    0.031955
     16          1           0       -4.513725    0.076663   -0.878472
     17          1           0       -4.518467    0.097923    0.900418
     18          1           0        0.872309   -2.009302   -0.012905
     19          1           0        1.918604    1.866580    0.600975
     20          1           0        4.623405    1.893337    0.291889
     21          1           0        5.266306   -0.701106   -0.376223
     22          1           0       -0.075996    1.757820   -0.276293
 ---------------------------------------------------------------------

 SCF Done:  E(UB3LYP) =  -683.224143178     A.U. after   21 cycles

 The electronic state is 2-A.
 Alpha  occ. eigenvalues --  -19.04633 -18.96212 -18.93858 -14.21933 -14.21550
 Alpha  occ. eigenvalues --  -10.16128 -10.11139 -10.09059 -10.08934 -10.08760
 Alpha  occ. eigenvalues --  -10.05493 -10.04892 -10.03054 -10.01581  -0.97657
 Alpha  occ. eigenvalues --   -0.93573  -0.89240  -0.83729  -0.78047  -0.67193
 Alpha  occ. eigenvalues --   -0.65450  -0.61279  -0.59184  -0.51556  -0.48133
 Alpha  occ. eigenvalues --   -0.47559  -0.44508  -0.42855  -0.40642  -0.36936
 Alpha  occ. eigenvalues --   -0.35787  -0.34017  -0.32604  -0.32036  -0.30985
 Alpha  occ. eigenvalues --   -0.29982  -0.29728  -0.27905  -0.27707  -0.27481
 Alpha  occ. eigenvalues --   -0.25548  -0.25281  -0.23566  -0.20427  -0.15956
 Alpha  occ. eigenvalues --   -0.15750  -0.14693  -0.13374  -0.11864  -0.07070
 Alpha  occ. eigenvalues --    0.03134
 Alpha virt. eigenvalues --    0.08249   0.08851   0.09918   0.11140   0.12271
 Alpha virt. eigenvalues --    0.12632   0.13462   0.13536   0.13715   0.14858
 Alpha virt. eigenvalues --    0.16413   0.16812   0.16971   0.17343   0.17707

  Beta  occ. eigenvalues --  -19.04425 -18.96030 -18.93478 -14.21977 -14.21596
  Beta  occ. eigenvalues --  -10.15980 -10.10887 -10.09059 -10.08948 -10.08585
  Beta  occ. eigenvalues --  -10.05273 -10.04975 -10.02846 -10.01280  -0.97327
  Beta  occ. eigenvalues --   -0.93266  -0.88666  -0.83416  -0.77997  -0.66944
  Beta  occ. eigenvalues --   -0.64956  -0.61092  -0.58811  -0.50868  -0.47918
  Beta  occ. eigenvalues --   -0.47415  -0.44316  -0.42620  -0.40485  -0.36640
  Beta  occ. eigenvalues --   -0.35384  -0.33862  -0.32123  -0.31461  -0.30815
  Beta  occ. eigenvalues --   -0.29619  -0.29408  -0.27742  -0.27570  -0.27123
  Beta  occ. eigenvalues --   -0.25334  -0.23583  -0.23345  -0.19547  -0.15605
  Beta  occ. eigenvalues --   -0.15104  -0.13578  -0.12510  -0.11487  -0.05468
  Beta virt. eigenvalues --    0.08218   0.08841   0.09075   0.09888   0.11121
  Beta virt. eigenvalues --    0.12287   0.12618   0.13528   0.13685   0.14390
  Beta virt. eigenvalues --    0.14869   0.16505   0.16851   0.17056   0.17714

 Mulliken charges and spin densities:
               1          2
     1  C   -0.273686  -0.001128
     2  N   -0.174957  -0.036219
     3  C   -0.073933   0.125476
     4  O   -0.463466   0.138412
     5  C    0.463916   0.160019
     6  C   -0.484969   0.258118
     7  C   -0.574912  -0.020559
     8  C    0.197600   0.159603
     9  C   -0.516715  -0.052188
    10  C    0.013585   0.150071
    11  O   -0.052642   0.035168
    12  N   -0.203554  -0.027360
    13  C    0.296801   0.080405
    14  O   -0.457691   0.063492
    15  H    0.176634  -0.001230
    16  H    0.153367   0.001699
    17  H    0.151901   0.000870
    18  H    0.195312  -0.015735
    19  H    0.107913  -0.012313
    20  H    0.114152   0.004432
    21  H    0.138332  -0.010473
    22  H    0.267009  -0.000560
 Sum of Mulliken charges =  -1.00000   1.00000

 Dipole moment (field-independent basis, Debye):
    X=              0.9688    Y=              1.7461    Z=             -0.1111  Tot=              2.0000
 Quadrupole moment (field-independent basis, Debye-Ang):
   XX=           -113.1026   YY=           -107.8183   ZZ=            -88.0895
   XY=              5.9786   XZ=             -0.6194   YZ=              1.4746

 Summary of Natural Population Analysis:

                                       Natural Population
                Natural  -----------------------------------------------
    Atom  No    Charge         Core      Valence    Rydberg      Total
 -----------------------------------------------------------------------
      C    1   -0.17801      0.99967     2.17086    0.00748     3.17801
      N    2   -0.27303      0.99960     2.76473    0.00869     3.77303
      C    3    0.36490      0.99963     1.61426    0.02121     2.63510
      O    4   -0.28481      0.99987     3.27905    0.00589     4.28481
      C    5    0.07882      0.99948     1.91105    0.01065     2.92118
      C    6   -0.07807      0.99948     2.06967    0.00892     3.07807
      C    7    0.14130      0.99947     1.84586    0.01337     2.85870
      C    8   -0.12536      0.99952     2.11723    0.00861     3.12536
      C    9   -0.17830      0.99958     2.17003    0.00869     3.17830
      C   10    0.08038      0.99954     1.90507    0.01501     2.91962
      O   11   -0.22021      0.99986     3.21118    0.00917     4.22021
      N   12   -0.32319      0.99965     2.81412    0.00942     3.82319
      C   13    0.42828      0.99971     1.54966    0.02235     2.57172
      O   14   -0.31837      0.99987     3.31262    0.00588     4.31837
      H   15    0.10785      0.00000     0.39092    0.00123     0.39215
      H   16    0.09396      0.00000     0.40490    0.00113     0.40604
      H   17    0.09219      0.00000     0.40669    0.00113     0.40781
      H   18    0.11129      0.00000     0.38752    0.00120     0.38871
      H   19    0.09808      0.00000     0.40096    0.00096     0.40192
      H   20    0.09952      0.00000     0.39960    0.00088     0.40048
      H   21    0.08446      0.00000     0.41459    0.00095     0.41554
      H   22    0.19833      0.00000     0.29947    0.00220     0.30167
 =======================================================================
   * Total *   -0.00000     13.99494    35.84005    0.16501    50.00000

 Normal termination of Gaussian 16 at Thu Dec 10 11:06:31 2020.
