 Gaussian 16, Revision A.03,

 -----------------------------------------------------------
 # opt freq B3LYP/6-31G(d) empiricaldispersion=gd3bj scf=xqc
 -----------------------------------------------------------

 -------------------------------
 CID_152650280_JID_4509_neutraal
 -------------------------------
 Symbolic Z-matrix:
 Charge =  0 Multiplicity = 1

 SCF Done:  E(RB3LYP) =  -659.995607809     A.U. after   17 cycles
 SCF Done:  E(RB3LYP) =  -660.009888877     A.U. after   15 cycles
 SCF Done:  E(RB3LYP) =  -660.013190290     A.U. after   14 cycles
 SCF Done:  E(RB3LYP) =  -660.014718652     A.U. after   15 cycles
 SCF Done:  E(RB3LYP) =  -660.015883126     A.U. after   15 cycles
 SCF Done:  E(RB3LYP) =  -660.014943905     A.U. after   13 cycles
 SCF Done:  E(RB3LYP) =  -660.018721103     A.U. after   13 cycles
 SCF Done:  E(RB3LYP) =  -660.022059466     A.U. after   16 cycles
 SCF Done:  E(RB3LYP) =  -660.025131654     A.U. after   13 cycles
 SCF Done:  E(RB3LYP) =  -660.028012072     A.U. after   14 cycles
 SCF Done:  E(RB3LYP) =  -660.081030003     A.U. after   12 cycles
 SCF Done:  E(RB3LYP) =  -660.081038339     A.U. after    9 cycles
 SCF Done:  E(RB3LYP) =  -660.081042201     A.U. after    9 cycles
 SCF Done:  E(RB3LYP) =  -660.081043511     A.U. after    9 cycles
 SCF Done:  E(RB3LYP) =  -660.081043651     A.U. after    8 cycles
 Optimization completed.
    -- Stationary point found.

 1\1\GINC-NODE100\FOpt\RB3LYP\6-31G(d)\C7H17N7\VSC10255\10-Dec-2020\0\\
 # opt freq B3LYP/6-31G(d) empiricaldispersion=gd3bj scf=xqc\\CID_15265
 0280_JID_4509_neutraal\\0,1\C,2.5104706236,-0.494702518,-1.3107949892\
 C,1.262023101,0.3668448034,-1.4335688658\N,0.3405788257,-0.225605449,-
 2.4162566369\N,-0.7176343864,0.4601028491,-2.6660083649\N,0.6926601069
 ,2.3479220207,-4.0441077941\N,1.3137681848,1.3850173644,-4.3366629002\
 N,1.887603459,0.3685396528,-4.5671753566\N,-1.4571948415,0.0541333578,
 -3.6597731867\C,-2.5949384533,0.8574074318,-4.0422629761\C,-2.68798499

 Normal termination of Gaussian 16 at Thu Dec 10 10:51:00 2020.

 --------------------------------------------------------------------
 #N Geom=AllCheck Guess=TCheck SCRF=Check GenChk RB3LYP/6-31G(d) Freq
 --------------------------------------------------------------------

 Structure from the checkpoint file:  "JID_4509.chk"
 -------------------------------
 CID_152650280_JID_4509_neutraal
 -------------------------------
 Charge =  0 Multiplicity = 1

 SCF Done:  E(RB3LYP) =  -660.081043651     A.U. after    1 cycles

  Exact polarizability: 151.072   2.499 125.258   5.144   1.856 115.355
 Approx polarizability: 218.673  19.953 221.804  26.842  13.573 203.324

                      1                      2                      3
                      A                      A                      A
 Frequencies --     49.8266                69.8187                74.6128
 Red. masses --      4.1611                 2.7839                 2.9449
 Frc consts  --      0.0061                 0.0080                 0.0097
 IR Inten    --      2.5699                 1.7739                 0.6408

                      4                      5                      6
                      A                      A                      A
 Frequencies --     90.5065               108.4930               129.9575
 Red. masses --      2.7979                 3.8342                 5.4095
 Frc consts  --      0.0135                 0.0266                 0.0538
 IR Inten    --      1.6269                 1.1276                 8.3780

                      7                      8                      9
                      A                      A                      A
 Frequencies --    141.4811               150.8479               153.6221
 Red. masses --      3.2269                 4.6219                 5.7481
 Frc consts  --      0.0381                 0.0620                 0.0799
 IR Inten    --      3.8108                 4.1440                 6.4725

                     10                     11                     12
                      A                      A                      A
 Frequencies --    188.4607               193.8718               234.9807
 Red. masses --      2.7868                 4.0805                 1.3599
 Frc consts  --      0.0583                 0.0904                 0.0442
 IR Inten    --      2.1065                 7.2785                 7.8286

                     13                     14                     15
                      A                      A                      A
 Frequencies --    239.4962               244.7345               277.6953
 Red. masses --      1.0932                 1.2061                 3.0383
 Frc consts  --      0.0369                 0.0426                 0.1380
 IR Inten    --      0.2489                 2.8404                 3.9986

                     16                     17                     18
                      A                      A                      A
 Frequencies --    308.1077               323.2805               357.7338
 Red. masses --      2.8045                 2.5718                 2.8416
 Frc consts  --      0.1569                 0.1584                 0.2143
 IR Inten    --     17.1623                14.9493                 1.3563

                     19                     20                     21
                      A                      A                      A
 Frequencies --    388.3705               429.7060               438.7763
 Red. masses --      2.7816                 3.3579                 3.2061
 Frc consts  --      0.2472                 0.3653                 0.3637
 IR Inten    --     28.7823                 3.5632                21.2711

                     22                     23                     24
                      A                      A                      A
 Frequencies --    530.5539               562.4148               613.3344
 Red. masses --      3.2176                 3.9066                 3.0179
 Frc consts  --      0.5336                 0.7281                 0.6689
 IR Inten    --      7.8208                 9.0857                27.7957

                     25                     26                     27
                      A                      A                      A
 Frequencies --    647.6763               654.5084               690.6388
 Red. masses --     10.9599                 5.9074                 2.0977
 Frc consts  --      2.7088                 1.4910                 0.5895
 IR Inten    --     20.0118                88.7564               152.6123

                     28                     29                     30
                      A                      A                      A
 Frequencies --    757.9286               803.8818               822.8998
 Red. masses --      2.4548                 1.3038                 1.1100
 Frc consts  --      0.8308                 0.4964                 0.4429
 IR Inten    --      3.9969                 3.2775                 0.3635

                     31                     32                     33
                      A                      A                      A
 Frequencies --    842.8742               894.6472               939.8298
 Red. masses --      1.3039                 2.7638                 2.2210
 Frc consts  --      0.5458                 1.3033                 1.1558
 IR Inten    --     10.0568                13.7355                 7.3692

                     34                     35                     36
                      A                      A                      A
 Frequencies --    972.3317               990.2279              1050.9865
 Red. masses --      3.7600                 2.7581                 1.7092
 Frc consts  --      2.0945                 1.5934                 1.1123
 IR Inten    --     20.7866                22.3286                12.1877

                     37                     38                     39
                      A                      A                      A
 Frequencies --   1061.2804              1080.9619              1110.7928
 Red. masses --      2.8014                 1.2851                 1.3891
 Frc consts  --      1.8590                 0.8848                 1.0099
 IR Inten    --      4.5011                10.7639                 2.9241

                     40                     41                     42
                      A                      A                      A
 Frequencies --   1113.1655              1129.8450              1132.0883
 Red. masses --      2.0109                 1.1923                 1.1843
 Frc consts  --      1.4681                 0.8968                 0.8942
 IR Inten    --      5.6795                 5.1010                 1.5907

                     43                     44                     45
                      A                      A                      A
 Frequencies --   1159.4781              1180.6033              1189.3928
 Red. masses --      2.0473                 1.5959                 1.5299
 Frc consts  --      1.6217                 1.3105                 1.2752
 IR Inten    --      6.7338                17.6434                43.7990

                     46                     47                     48
                      A                      A                      A
 Frequencies --   1217.7902              1222.1653              1254.2984
 Red. masses --      1.3391                 2.6236                 2.2979
 Frc consts  --      1.1701                 2.3089                 2.1300
 IR Inten    --      0.3689                15.5672                17.5102

                     49                     50                     51
                      A                      A                      A
 Frequencies --   1256.9417              1283.2653              1312.5598
 Red. masses --      2.6031                 2.0491                 1.1254
 Frc consts  --      2.4231                 1.9881                 1.1423
 IR Inten    --      4.7233                 9.3228                 5.3676

                     52                     53                     54
                      A                      A                      A
 Frequencies --   1350.3614              1380.1356              1396.2351
 Red. masses --      4.9574                12.3768                 1.3376
 Frc consts  --      5.3261                13.8900                 1.5364
 IR Inten    --     70.1392                 0.7236                18.0289

                     55                     56                     57
                      A                      A                      A
 Frequencies --   1423.8513              1443.8479              1463.0534
 Red. masses --      1.5672                 1.3142                 1.1509
 Frc consts  --      1.8720                 1.6142                 1.4515
 IR Inten    --     15.2199                39.7228                 1.6773

                     58                     59                     60
                      A                      A                      A
 Frequencies --   1475.8188              1488.1836              1498.3877
 Red. masses --      1.0930                 1.2651                 1.7612
 Frc consts  --      1.4026                 1.6508                 2.3298
 IR Inten    --      8.7991                 5.0545                22.2565

                     61                     62                     63
                      A                      A                      A
 Frequencies --   1507.8821              1516.3443              1519.6069
 Red. masses --      1.0647                 1.1212                 1.0483
 Frc consts  --      1.4263                 1.5188                 1.4262
 IR Inten    --     12.2353                 5.9433                 7.3271

                     64                     65                     66
                      A                      A                      A
 Frequencies --   1522.2723              1523.9417              1537.0796
 Red. masses --      1.2217                 1.0722                 1.0846
 Frc consts  --      1.6681                 1.4672                 1.5098
 IR Inten    --     12.4552                 3.6766                25.1623

                     67                     68                     69
                      A                      A                      A
 Frequencies --   1538.3584              1547.9007              1568.5656
 Red. masses --      1.0610                 1.1231                 1.9578
 Frc consts  --      1.4794                 1.5855                 2.8381
 IR Inten    --      2.4274                26.1642               210.1053

                     70                     71                     72
                      A                      A                      A
 Frequencies --   2118.1198              3005.3428              3030.8483
 Red. masses --     13.2939                 1.0526                 1.0479
 Frc consts  --     35.1402                 5.6014                 5.6715
 IR Inten    --    411.4074                51.1975                61.4600

                     73                     74                     75
                      A                      A                      A
 Frequencies --   3061.4094              3071.9957              3112.4519
 Red. masses --      1.0385                 1.0584                 1.0808
 Frc consts  --      5.7346                 5.8848                 6.1690
 IR Inten    --     24.4846                16.4102                15.5732

                     76                     77                     78
                      A                      A                      A
 Frequencies --   3115.3921              3125.2136              3135.0731
 Red. masses --      1.1048                 1.0909                 1.1023
 Frc consts  --      6.3178                 6.2776                 6.3834
 IR Inten    --      7.0154                18.0634                17.7653

                     79                     80                     81
                      A                      A                      A
 Frequencies --   3152.8632              3153.8289              3156.2550
 Red. masses --      1.1038                 1.0546                 1.1054
 Frc consts  --      6.4648                 6.1802                 6.4880
 IR Inten    --     12.7139                14.7810                13.0461

                     82                     83                     84
                      A                      A                      A
 Frequencies --   3166.3332              3174.8995              3189.2631
 Red. masses --      1.0592                 1.0868                 1.1012
 Frc consts  --      6.2568                 6.4544                 6.5992
 IR Inten    --      8.3274                29.7556                 1.0177

                     85                     86                     87
                      A                      A                      A
 Frequencies --   3216.8314              3249.5386              3267.2146
 Red. masses --      1.0735                 1.1193                 1.1155
 Frc consts  --      6.5449                 6.9635                 7.0158
 IR Inten    --     36.1910                 2.0705                 1.5615

 - Thermochemistry -
 -------------------
 Temperature   298.150 Kelvin.  Pressure   1.00000 Atm.
 Atom     1 has atomic number  6 and mass  12.00000

 Molecular mass:   199.15454 amu.
 Principal axes and moments of inertia in atomic units:
                           1         2         3
     Eigenvalues --  2025.317503287.890213708.71436
           X            0.99968   0.00838  -0.02394
           Y           -0.00683   0.99791   0.06423
           Z            0.02443  -0.06404   0.99765
 This molecule is an asymmetric top.
 Rotational symmetry number  1.
 Warning -- assumption of classical behavior for rotation
           may cause significant error
 Rotational temperatures (Kelvin)      0.04277     0.02634     0.02335
 Rotational constants (GHZ):           0.89109     0.54891     0.48662
 Zero-point vibrational energy     695499.5 (Joules/Mol)
                                  166.22838 (Kcal/Mol)
 Warning -- explicit consideration of  24 degrees of freedom as
           vibrations may cause significant error
 Vibrational temperatures:     71.69   100.45   107.35   130.22   156.10
          (Kelvin)            186.98   203.56   217.04   221.03   271.15
                              278.94   338.08   344.58   352.12   399.54
                              443.30   465.13   514.70   558.78   618.25
                              631.30   763.35   809.19   882.45   931.86
                              941.69   993.68  1090.49  1156.61  1183.97
                             1212.71  1287.20  1352.21  1398.97  1424.72
                             1512.14  1526.95  1555.26  1598.18  1601.60
                             1625.59  1628.82  1668.23  1698.62  1711.27
                             1752.13  1758.42  1804.66  1808.46  1846.33
                             1888.48  1942.87  1985.71  2008.87  2048.60
                             2077.38  2105.01  2123.37  2141.16  2155.85
                             2169.51  2181.68  2186.38  2190.21  2192.61
                             2211.51  2213.35  2227.08  2256.82  3047.50
                             4324.02  4360.71  4404.69  4419.92  4478.12
                             4482.35  4496.49  4510.67  4536.27  4537.66
                             4541.15  4555.65  4567.97  4588.64  4628.30
                             4675.36  4700.79

 Zero-point correction=                           0.264902 (Hartree/Particle)
 Thermal correction to Energy=                    0.281189
 Thermal correction to Enthalpy=                  0.282133
 Thermal correction to Gibbs Free Energy=         0.221746
 Sum of electronic and zero-point Energies=           -659.816142
 Sum of electronic and thermal Energies=              -659.799854
 Sum of electronic and thermal Enthalpies=            -659.798910
 Sum of electronic and thermal Free Energies=         -659.859298

                     E (Thermal)             CV                S
                      KCal/Mol        Cal/Mol-Kelvin    Cal/Mol-Kelvin
 Total                  176.449             58.752            127.097
 Electronic               0.000              0.000              0.000
 Translational            0.889              2.981             41.772
 Rotational               0.889              2.981             31.580
 Vibrational            174.671             52.790             53.746
 Vibration     1          0.595              1.978              4.824
 Vibration     2          0.598              1.969              4.158
 Vibration     3          0.599              1.966              4.028
 Vibration     4          0.602              1.956              3.649
 Vibration     5          0.606              1.942              3.296
 Vibration     6          0.612              1.923              2.947
 Vibration     7          0.615              1.912              2.784
 Vibration     8          0.618              1.902              2.662
 Vibration     9          0.619              1.899              2.627
 Vibration    10          0.633              1.856              2.243
 Vibration    11          0.635              1.848              2.190
 Vibration    12          0.655              1.787              1.841
 Vibration    13          0.657              1.780              1.807
 Vibration    14          0.660              1.771              1.768
 Vibration    15          0.679              1.715              1.548
 Vibration    16          0.698              1.658              1.372
 Vibration    17          0.708              1.629              1.293
 Vibration    18          0.733              1.559              1.132
 Vibration    19          0.757              1.495              1.006
 Vibration    20          0.791              1.406              0.860
 Vibration    21          0.799              1.386              0.830
 Vibration    22          0.886              1.182              0.586
 Vibration    23          0.918              1.113              0.519
 Vibration    24          0.973              1.004              0.427

                           ! Non-Optimized Parameters !

 1\1\GINC-NODE100\Freq\RB3LYP\6-31G(d)\C7H17N7\VSC10255\10-Dec-2020\0\\
 #N Geom=AllCheck Guess=TCheck SCRF=Check GenChk RB3LYP/6-31G(d) Freq\\
 CID_152650280_JID_4509_neutraal\\0,1\C,2.5104706236,-0.494702518,-1.31
 07949892\C,1.262023101,0.3668448034,-1.4335688658\N,0.3405788257,-0.22
 5605449,-2.4162566369\N,-0.7176343864,0.4601028491,-2.6660083649\N,0.6
 926601069,2.3479220207,-4.0441077941\N,1.3137681848,1.3850173644,-4.33
 66629002\N,1.887603459,0.3685396528,-4.5671753566\N,-1.4571948415,0.05
 41333578,-3.6597731867\C,-2.5949384533,0.8574074318,-4.0422629761\C,-2

 Normal termination of Gaussian 16 at Thu Dec 10 11:02:21 2020.

 ----------------------------------------------------------------------
 # B3LYP/6-311++G(d,p) empiricaldispersion=gd3bj scf=xqc pop=npa geom=c
 heck
 ----------------------------------------------------------------------

 ---------------------------------------
 CID_152650280_JID_4509_Energie_neutraal
 ---------------------------------------
 Structure from the checkpoint file:  "JID_4509.chk"
 Charge =  0 Multiplicity = 1

 SCF Done:  E(RB3LYP) =  -660.268589568     A.U. after   18 cycles
 Normal termination of Gaussian 16 at Thu Dec 10 11:08:29 2020.

 ----------------------------------------------------------------------
 # B3LYP/6-311++G(d,p) empiricaldispersion=gd3bj scf=xqc pop=npa geom=c
 heck
 ----------------------------------------------------------------------

 -------------------------------------
 CID_152650280_JID_4509_Energie_kation
 -------------------------------------
 Structure from the checkpoint file:  "JID_4509.chk"
 Charge =  1 Multiplicity = 2

 SCF Done:  E(UB3LYP) =  -659.999412314     A.U. after   33 cycles
 SCF Done:  E(UB3LYP) =  -660.000239784     a.u. after    7 cycles
 Normal termination of Gaussian 16 at Thu Dec 10 12:24:32 2020.
 Gaussian 16:  ES64L-G16RevA.03 25-Dec-2016

 ------------------------------------
 CID_152650280_JID_4509_Energie_anion
 ------------------------------------
 Structure from the checkpoint file:  "JID_4509.chk"
 Charge = -1 Multiplicity = 2

                         Standard orientation:
 ---------------------------------------------------------------------
 Center     Atomic      Atomic             Coordinates (Angstroms)
 Number     Number       Type             X           Y           Z
 ---------------------------------------------------------------------
      1          6           0        3.775297    0.494571   -0.563614
      2          6           0        2.566816   -0.270044   -1.084092
      3          7           0        1.329858    0.427987   -0.698841
      4          7           0        0.236229   -0.169462   -1.014144
      5          7           0        0.604021   -2.091828    0.888797
      6          7           0        1.072404   -1.163818    1.452679
      7          7           0        1.535594   -0.181722    1.939089
      8          7           0       -0.865070    0.330286   -0.527603
      9          6           0       -2.103470   -0.372978   -0.768002
     10          6           0       -2.082069   -1.812122   -1.193025
     11          6           0       -2.554329   -1.456955    0.189534
     12          7           0       -0.818417    1.489343    0.277644
     13          6           0       -1.408879    2.625515   -0.434432
     14          6           0       -1.361579    1.283617    1.623884
     15          1           0        3.813081    1.510624   -0.971910
     16          1           0        4.691106   -0.025671   -0.859355
     17          1           0        3.743527    0.544592    0.528363
     18          1           0        2.570917   -0.342940   -2.175574
     19          1           0        2.518503   -1.284008   -0.671501
     20          1           0        1.330741    0.938080    0.206252
     21          1           0       -2.862499    0.277736   -1.193374
     22          1           0       -2.803162   -2.104541   -1.950391
     23          1           0       -1.111915   -2.290762   -1.253512
     24          1           0       -1.866178   -1.713995    0.988372
     25          1           0       -3.613175   -1.495939    0.428657
     26          1           0       -2.500061    2.541734   -0.561237
     27          1           0       -1.197259    3.529469    0.142708
     28          1           0       -0.937572    2.718815   -1.415918
     29          1           0       -2.434608    1.045831    1.620402
     30          1           0       -0.788974    0.500178    2.119497
     31          1           0       -1.205535    2.215677    2.173654
 ---------------------------------------------------------------------

 SCF Done:  E(UB3LYP) =  -660.283503923     A.U. after   30 cycles

 The electronic state is 2-A.
 Alpha  occ. eigenvalues --  -14.25159 -14.23222 -14.22072 -14.18483 -14.18095
 Alpha  occ. eigenvalues --  -14.12172 -14.11785 -10.08822 -10.08276 -10.06540
 Alpha  occ. eigenvalues --  -10.05993 -10.04867 -10.04357 -10.03736  -0.93793
 Alpha  occ. eigenvalues --   -0.89892  -0.83073  -0.75698  -0.72935  -0.71206
 Alpha  occ. eigenvalues --   -0.63325  -0.59856  -0.55986  -0.52842  -0.48166
 Alpha  occ. eigenvalues --   -0.47594  -0.44900  -0.40705  -0.39635  -0.37250
 Alpha  occ. eigenvalues --   -0.35524  -0.33954  -0.33226  -0.32059  -0.30396
 Alpha  occ. eigenvalues --   -0.29316  -0.28454  -0.28199  -0.27923  -0.26065
 Alpha  occ. eigenvalues --   -0.25741  -0.25334  -0.24976  -0.24272  -0.23871
 Alpha  occ. eigenvalues --   -0.22399  -0.20275  -0.18901  -0.18355  -0.14591
 Alpha  occ. eigenvalues --   -0.12198  -0.10261  -0.04154  -0.03831   0.04694
 Alpha virt. eigenvalues --    0.07468   0.08785   0.09306   0.09870   0.10902
 Alpha virt. eigenvalues --    0.11466   0.11761   0.12068   0.13238   0.13713
 Alpha virt. eigenvalues --    0.14545   0.15055   0.15407   0.15880   0.16263

  Beta  occ. eigenvalues --  -14.25171 -14.22892 -14.22101 -14.18121 -14.16710
  Beta  occ. eigenvalues --  -14.12137 -14.11735 -10.08846 -10.08240 -10.06523
  Beta  occ. eigenvalues --  -10.06006 -10.04867 -10.04326 -10.03733  -0.92625
  Beta  occ. eigenvalues --   -0.89841  -0.82337  -0.75539  -0.72865  -0.70814
  Beta  occ. eigenvalues --   -0.63053  -0.59783  -0.55284  -0.52737  -0.48077
  Beta  occ. eigenvalues --   -0.47482  -0.44219  -0.40504  -0.39417  -0.36918
  Beta  occ. eigenvalues --   -0.35023  -0.33651  -0.33163  -0.31862  -0.30216
  Beta  occ. eigenvalues --   -0.28797  -0.28323  -0.28122  -0.27879  -0.25933
  Beta  occ. eigenvalues --   -0.25411  -0.25062  -0.24281  -0.24045  -0.23685
  Beta  occ. eigenvalues --   -0.21422  -0.20175  -0.18744  -0.17268  -0.12977
  Beta  occ. eigenvalues --   -0.12007  -0.08402  -0.03826  -0.03545
  Beta virt. eigenvalues --    0.07407   0.08613   0.09220   0.09762   0.10750
  Beta virt. eigenvalues --    0.11367   0.11659   0.12002   0.13165   0.13528
  Beta virt. eigenvalues --    0.14390   0.14558   0.15196   0.15612   0.16049

 Mulliken charges and spin densities:
               1          2
     1  C   -0.521419  -0.020457
     2  C   -0.102955  -0.030989
     3  N    0.089897   0.160064
     4  N   -0.108146   0.665781
     5  N   -0.437938  -0.016400
     6  N    0.186380   0.011762
     7  N   -0.654322   0.028948
     8  N   -0.103469   0.046244
     9  C   -0.283054   0.115697
    10  C   -0.204347  -0.122941
    11  C   -0.237363  -0.124225
    12  N   -0.077468  -0.003083
    13  C   -0.295605  -0.071325
    14  C   -0.364740   0.006150
    15  H    0.070300   0.046720
    16  H    0.106726   0.000555
    17  H    0.175858  -0.004230
    18  H    0.124360   0.002473
    19  H    0.129173   0.035780
    20  H    0.218336  -0.012275
    21  H    0.078292   0.106043
    22  H    0.094444   0.026304
    23  H    0.199961   0.001548
    24  H    0.167733  -0.011047
    25  H    0.044068   0.066582
    26  H    0.102258   0.004431
    27  H    0.071357   0.062257
    28  H    0.132980   0.022854
    29  H    0.122157   0.002330
    30  H    0.153320   0.003579
    31  H    0.123228   0.000868
 Sum of Mulliken charges =  -1.00000   1.00000

 Dipole moment (field-independent basis, Debye):
    X=             -3.6533    Y=              3.9887    Z=             -2.9334  Tot=              6.1532
 Quadrupole moment (field-independent basis, Debye-Ang):
   XX=           -105.6444   YY=           -108.4065   ZZ=           -107.0627
   XY=             -1.0404   XZ=             -7.0134   YZ=              3.8514

 Summary of Natural Population Analysis:

                                       Natural Population
                Natural  -----------------------------------------------
    Atom  No    Charge         Core      Valence    Rydberg      Total
 -----------------------------------------------------------------------
      C    1   -0.29371      0.99966     2.29014    0.00391     3.29371
      C    2   -0.08932      0.99965     2.08040    0.00928     3.08932
      N    3   -0.15922      0.99971     2.64374    0.01577     3.65922
      N    4    0.21696      0.99969     2.26604    0.01731     3.28304
      N    5   -0.24050      0.99981     2.72605    0.01464     3.74050
      N    6    0.06566      0.99975     2.41513    0.01946     3.43434
      N    7   -0.27469      0.99981     2.76040    0.01447     3.77469
      N    8   -0.02038      0.99967     2.50299    0.01772     3.52038
      C    9   -0.02126      0.99957     2.00968    0.01201     3.02126
      C   10   -0.19763      0.99962     2.18963    0.00838     3.19763
      C   11   -0.20758      0.99962     2.20026    0.00770     3.20758
      N   12   -0.18694      0.99973     2.67412    0.01308     3.68694
      C   13   -0.17420      0.99965     2.16682    0.00773     3.17420
      C   14   -0.17889      0.99964     2.17282    0.00643     3.17889
      H   15    0.09117      0.00000     0.40738    0.00145     0.40883
      H   16    0.09133      0.00000     0.40793    0.00074     0.40867
      H   17    0.11147      0.00000     0.38701    0.00152     0.38853
      H   18    0.08876      0.00000     0.41022    0.00102     0.41124
      H   19    0.10246      0.00000     0.39551    0.00203     0.39754
      H   20    0.19858      0.00000     0.29813    0.00328     0.30142
      H   21    0.09218      0.00000     0.40635    0.00147     0.40782
      H   22    0.09280      0.00000     0.40607    0.00114     0.40720
      H   23    0.12867      0.00000     0.37036    0.00097     0.37133
      H   24    0.12220      0.00000     0.37626    0.00154     0.37780
      H   25    0.09044      0.00000     0.40817    0.00139     0.40956
      H   26    0.07637      0.00000     0.42241    0.00122     0.42363
      H   27    0.09066      0.00000     0.40822    0.00112     0.40934
      H   28    0.10032      0.00000     0.39858    0.00110     0.39968
      H   29    0.07750      0.00000     0.42124    0.00126     0.42250
      H   30    0.11797      0.00000     0.38080    0.00123     0.38203
      H   31    0.08883      0.00000     0.41033    0.00084     0.41117
 =======================================================================
   * Total *   -0.00000     13.99560    39.81320    0.19120    54.00000

 Normal termination of Gaussian 16 at Thu Dec 10 12:37:37 2020.
