 Gaussian 16, Revision A.03,

 -----------------------------------------------------------
 # opt freq B3LYP/6-31G(d) empiricaldispersion=gd3bj scf=xqc
 -----------------------------------------------------------

 -------------------------------
 CID_112704538_JID_5497_neutraal
 -------------------------------
 Symbolic Z-matrix:
 Charge =  0 Multiplicity = 1

 SCF Done:  E(RB3LYP) =  -616.981174098     A.U. after   14 cycles
 SCF Done:  E(RB3LYP) =  -616.986007072     A.U. after   12 cycles
 SCF Done:  E(RB3LYP) =  -616.986625396     A.U. after   11 cycles
 SCF Done:  E(RB3LYP) =  -616.986825023     A.U. after   11 cycles
 SCF Done:  E(RB3LYP) =  -616.986870863     A.U. after   10 cycles
 SCF Done:  E(RB3LYP) =  -616.986883684     A.U. after   10 cycles
 SCF Done:  E(RB3LYP) =  -616.986887132     A.U. after    9 cycles
 SCF Done:  E(RB3LYP) =  -616.986891497     A.U. after   10 cycles
 SCF Done:  E(RB3LYP) =  -616.986896270     A.U. after   11 cycles
 SCF Done:  E(RB3LYP) =  -616.986902596     A.U. after   11 cycles
 SCF Done:  E(RB3LYP) =  -616.987952877     A.U. after   10 cycles
 SCF Done:  E(RB3LYP) =  -616.987955587     A.U. after    8 cycles
 SCF Done:  E(RB3LYP) =  -616.987956836     A.U. after    8 cycles
 SCF Done:  E(RB3LYP) =  -616.987957089     A.U. after    7 cycles
 SCF Done:  E(RB3LYP) =  -616.987957150     A.U. after    7 cycles
 Optimization completed.
    -- Stationary point found.
 Normal termination of Gaussian 16 at Thu Dec 10 16:31:45 2020.

 --------------------------------------------------------------------
 #N Geom=AllCheck Guess=TCheck SCRF=Check GenChk RB3LYP/6-31G(d) Freq
 --------------------------------------------------------------------

 Structure from the checkpoint file:  "JID_5497.chk"
 -------------------------------
 CID_112704538_JID_5497_neutraal
 -------------------------------
 Charge =  0 Multiplicity = 1

 SCF Done:  E(RB3LYP) =  -616.987957150     A.U. after    1 cycles

  Exact polarizability: 212.416   3.270 150.593  -5.913   0.891  96.228
 Approx polarizability: 274.636   6.527 235.583 -10.034   1.555 146.815

                      1                      2                      3
                      A                      A                      A
 Frequencies --     22.6474                56.4752                79.0052
 Red. masses --      3.1608                 3.3796                 2.5899
 Frc consts  --      0.0010                 0.0064                 0.0095
 IR Inten    --      0.1465                 1.3374                 0.7693

                      4                      5                      6
                      A                      A                      A
 Frequencies --     98.8453               111.5515               146.6379
 Red. masses --      2.1351                 3.0126                 2.4784
 Frc consts  --      0.0123                 0.0221                 0.0314
 IR Inten    --      1.9561                 0.1910                 1.4522

                      7                      8                      9
                      A                      A                      A
 Frequencies --    180.5698               196.1209               212.9957
 Red. masses --      1.8261                 1.7201                 2.6590
 Frc consts  --      0.0351                 0.0390                 0.0711
 IR Inten    --      1.7333                 1.2099                 3.9449

                     10                     11                     12
                      A                      A                      A
 Frequencies --    241.0389               257.0764               268.8199
 Red. masses --      1.2599                 1.8408                 2.5091
 Frc consts  --      0.0431                 0.0717                 0.1068
 IR Inten    --      0.3819                 1.3674                 0.5162

                     13                     14                     15
                      A                      A                      A
 Frequencies --    296.2329               331.4508               353.6099
 Red. masses --      1.3432                 2.9964                 2.6990
 Frc consts  --      0.0694                 0.1939                 0.1988
 IR Inten    --      0.9126                 1.5390                 0.7633

                     16                     17                     18
                      A                      A                      A
 Frequencies --    387.2883               406.5520               436.0987
 Red. masses --      2.9191                 3.2523                 3.0215
 Frc consts  --      0.2580                 0.3167                 0.3386
 IR Inten    --      4.7848                 5.2993                 1.9918

                     19                     20                     21
                      A                      A                      A
 Frequencies --    473.3147               494.6740               538.9094
 Red. masses --      2.8564                 3.1973                 3.4952
 Frc consts  --      0.3770                 0.4610                 0.5981
 IR Inten    --     11.1802                 1.4915                 3.3348

                     22                     23                     24
                      A                      A                      A
 Frequencies --    593.9248               604.6459               651.5129
 Red. masses --      3.5690                 3.4708                 3.8321
 Frc consts  --      0.7418                 0.7476                 0.9584
 IR Inten    --      4.0666                 3.8820                 3.2432

                     25                     26                     27
                      A                      A                      A
 Frequencies --    694.6671               750.3823               763.4270
 Red. masses --      2.4842                 2.5793                 2.7977
 Frc consts  --      0.7063                 0.8557                 0.9607
 IR Inten    --     14.2786                27.5415                48.8988

                     28                     29                     30
                      A                      A                      A
 Frequencies --    778.9073               800.1838               830.1867
 Red. masses --      3.0033                 1.2005                 1.4645
 Frc consts  --      1.0736                 0.4529                 0.5947
 IR Inten    --     23.9981                 2.0481                25.3174

                     31                     32                     33
                      A                      A                      A
 Frequencies --    855.7887               882.5387               907.2999
 Red. masses --      1.6599                 1.6623                 1.3318
 Frc consts  --      0.7162                 0.7628                 0.6459
 IR Inten    --     15.7739                 3.8710                 4.1160

                     34                     35                     36
                      A                      A                      A
 Frequencies --    930.4715               954.3471               959.6775
 Red. masses --      2.6779                 1.3222                 2.3131
 Frc consts  --      1.3660                 0.7095                 1.2552
 IR Inten    --      0.6026                 1.1208                 0.7655

                     37                     38                     39
                      A                      A                      A
 Frequencies --    983.8574              1023.1603              1041.0736
 Red. masses --      2.0438                 1.7123                 3.1043
 Frc consts  --      1.1656                 1.0561                 1.9823
 IR Inten    --      0.1741                 7.6627                 8.8934

                     40                     41                     42
                      A                      A                      A
 Frequencies --   1076.4050              1082.3810              1089.2333
 Red. masses --      1.7123                 2.2199                 1.6670
 Frc consts  --      1.1689                 1.5323                 1.1652
 IR Inten    --      2.2668                10.3325                 7.2506

                     43                     44                     45
                      A                      A                      A
 Frequencies --   1113.1145              1120.6226              1149.1988
 Red. masses --      2.6678                 2.0240                 2.1709
 Frc consts  --      1.9475                 1.4976                 1.6892
 IR Inten    --      5.3524                 9.0716                23.2687

                     46                     47                     48
                      A                      A                      A
 Frequencies --   1168.8340              1174.8563              1181.4580
 Red. masses --      1.9322                 1.6247                 1.4324
 Frc consts  --      1.5553                 1.3212                 1.1780
 IR Inten    --     25.5801                20.3030                 6.5173

                     49                     50                     51
                      A                      A                      A
 Frequencies --   1203.5545              1216.6861              1223.8725
 Red. masses --      1.3243                 1.6076                 1.8077
 Frc consts  --      1.1302                 1.4022                 1.5953
 IR Inten    --      6.9234                 6.1752                33.5560

                     52                     53                     54
                      A                      A                      A
 Frequencies --   1244.3408              1260.1417              1306.7190
 Red. masses --      1.9282                 1.9996                 1.9175
 Frc consts  --      1.7591                 1.8708                 1.9291
 IR Inten    --     19.1032                 1.6691                87.9591

                     55                     56                     57
                      A                      A                      A
 Frequencies --   1323.0681              1331.5214              1341.0599
 Red. masses --      1.6578                 1.4497                 1.5599
 Frc consts  --      1.7098                 1.5143                 1.6529
 IR Inten    --     58.8569                19.2868                24.8700

                     58                     59                     60
                      A                      A                      A
 Frequencies --   1359.5005              1366.2159              1383.2109
 Red. masses --      1.5074                 1.6205                 1.6283
 Frc consts  --      1.6415                 1.7822                 1.8355
 IR Inten    --     30.5420                18.3876                 3.2043

                     61                     62                     63
                      A                      A                      A
 Frequencies --   1399.1162              1428.2222              1435.4089
 Red. masses --      1.5798                 1.2576                 1.3613
 Frc consts  --      1.8220                 1.5114                 1.6526
 IR Inten    --    101.5452                12.1088                25.3995

                     64                     65                     66
                      A                      A                      A
 Frequencies --   1450.5660              1479.0798              1484.4076
 Red. masses --      1.6010                 1.1562                 3.8636
 Frc consts  --      1.9848                 1.4902                 5.0159
 IR Inten    --      4.9712                 3.2141                 0.3516

                     67                     68                     69
                      A                      A                      A
 Frequencies --   1501.0998              1510.8470              1516.6916
 Red. masses --      1.1957                 1.1300                 1.0959
 Frc consts  --      1.5874                 1.5197                 1.4853
 IR Inten    --     25.9611                 4.3098                 7.5117

                     70                     71                     72
                      A                      A                      A
 Frequencies --   1517.0669              1519.9684              1526.8525
 Red. masses --      1.0581                 1.0499                 1.0773
 Frc consts  --      1.4347                 1.4292                 1.4797
 IR Inten    --      8.7344                 3.3767                 0.3229

                     73                     74                     75
                      A                      A                      A
 Frequencies --   1536.3384              1539.7067              1542.2372
 Red. masses --      1.1921                 1.2340                 1.1087
 Frc consts  --      1.6578                 1.7236                 1.5536
 IR Inten    --     27.6876                29.0192                33.2119

                     76                     77                     78
                      A                      A                      A
 Frequencies --   1552.8296              1559.8175              1639.8488
 Red. masses --      1.0420                 1.6735                 7.0604
 Frc consts  --      1.4804                 2.3990                11.1864
 IR Inten    --      5.0579                74.8684                 4.0745

                     79                     80                     81
                      A                      A                      A
 Frequencies --   1678.0152              2966.6775              2970.1285
 Red. masses --      6.3226                 1.0735                 1.0585
 Frc consts  --     10.4891                 5.5668                 5.5018
 IR Inten    --     54.1976                73.6380               103.3937

                     82                     83                     84
                      A                      A                      A
 Frequencies --   2986.5389              2993.9286              3032.3373
 Red. masses --      1.0714                 1.0826                 1.0694
 Frc consts  --      5.6304                 5.7176                 5.7938
 IR Inten    --     71.8198                32.2951                35.4005

                     85                     86                     87
                      A                      A                      A
 Frequencies --   3048.2037              3055.8283              3068.4172
 Red. masses --      1.0380                 1.0362                 1.0747
 Frc consts  --      5.6823                 5.7010                 5.9615
 IR Inten    --     18.3518                28.7633                47.7982

                     88                     89                     90
                      A                      A                      A
 Frequencies --   3080.9732              3095.7340              3104.6773
 Red. masses --      1.0923                 1.0892                 1.0962
 Frc consts  --      6.1092                 6.1502                 6.2255
 IR Inten    --     14.6990                58.2647                26.2293

                     91                     92                     93
                      A                      A                      A
 Frequencies --   3112.7742              3115.0030              3124.5574
 Red. masses --      1.1025                 1.1009                 1.1016
 Frc consts  --      6.2940                 6.2938                 6.3364
 IR Inten    --     27.7100                40.1848                40.9005

                     94                     95                     96
                      A                      A                      A
 Frequencies --   3128.6837              3136.3046              3201.2988
 Red. masses --      1.1001                 1.1028                 1.0873
 Frc consts  --      6.3449                 6.3910                 6.5655
 IR Inten    --     42.7942                36.5049                19.6112

                     97                     98                     99
                      A                      A                      A
 Frequencies --   3203.8947              3218.5525              3489.0832
 Red. masses --      1.0888                 1.0929                 1.0739
 Frc consts  --      6.5847                 6.6706                 7.7027
 IR Inten    --      9.6788                10.6910                 0.5913

 - Thermochemistry -
 -------------------
 Temperature   298.150 Kelvin.  Pressure   1.00000 Atm.
 Atom     1 has atomic number  6 and mass  12.00000

 Molecular mass:   204.16265 amu.
 Principal axes and moments of inertia in atomic units:
                           1         2         3
     Eigenvalues --  1356.263266081.124197162.99582
           X            0.99997  -0.00781  -0.00013
           Y            0.00781   0.99996  -0.00310
           Z            0.00016   0.00310   1.00000
 This molecule is an asymmetric top.
 Rotational symmetry number  1.
 Warning -- assumption of classical behavior for rotation
           may cause significant error
 Rotational temperatures (Kelvin)      0.06386     0.01424     0.01209
 Rotational constants (GHZ):           1.33067     0.29678     0.25195
 Zero-point vibrational energy     821019.1 (Joules/Mol)
                                  196.22828 (Kcal/Mol)
 Warning -- explicit consideration of  23 degrees of freedom as
           vibrations may cause significant error
 Vibrational temperatures:     32.58    81.26   113.67   142.22   160.50
          (Kelvin)            210.98   259.80   282.17   306.45   346.80
                              369.88   386.77   426.21   476.88   508.77
                              557.22   584.94   627.45   680.99   711.73
                              775.37   854.53   869.95   937.38   999.47
                             1079.63  1098.40  1120.67  1151.29  1194.45
                             1231.29  1269.78  1305.40  1338.74  1373.09
                             1380.76  1415.55  1472.10  1497.87  1548.71
                             1557.30  1567.16  1601.52  1612.33  1653.44
                             1681.69  1690.36  1699.85  1731.65  1750.54
                             1760.88  1790.33  1813.06  1880.08  1903.60
                             1915.76  1929.49  1956.02  1965.68  1990.13
                             2013.02  2054.89  2065.23  2087.04  2128.07
                             2135.73  2159.75  2173.77  2182.18  2182.72
                             2186.90  2196.80  2210.45  2215.29  2218.94
                             2234.18  2244.23  2359.38  2414.29  4268.39
                             4273.35  4296.96  4307.60  4362.86  4385.69
                             4396.66  4414.77  4432.83  4454.07  4466.94
                             4478.59  4481.79  4495.54  4501.48  4512.44
                             4605.96  4609.69  4630.78  5020.01

 Zero-point correction=                           0.312710 (Hartree/Particle)
 Thermal correction to Energy=                    0.327835
 Thermal correction to Enthalpy=                  0.328779
 Thermal correction to Gibbs Free Energy=         0.270048
 Sum of electronic and zero-point Energies=           -616.675247
 Sum of electronic and thermal Energies=              -616.660122
 Sum of electronic and thermal Enthalpies=            -616.659178
 Sum of electronic and thermal Free Energies=         -616.717909

                     E (Thermal)             CV                S
                      KCal/Mol        Cal/Mol-Kelvin    Cal/Mol-Kelvin
 Total                  205.719             58.135            123.610
 Electronic               0.000              0.000              0.000
 Translational            0.889              2.981             41.846
 Rotational               0.889              2.981             32.446
 Vibrational            203.942             52.174             49.318
 Vibration     1          0.593              1.985              6.387
 Vibration     2          0.596              1.975              4.577
 Vibration     3          0.600              1.963              3.915
 Vibration     4          0.604              1.950              3.477
 Vibration     5          0.607              1.940              3.242
 Vibration     6          0.617              1.906              2.715
 Vibration     7          0.630              1.866              2.323
 Vibration     8          0.636              1.845              2.169
 Vibration     9          0.644              1.821              2.018
 Vibration    10          0.658              1.778              1.795
 Vibration    11          0.667              1.751              1.682
 Vibration    12          0.673              1.730              1.604
 Vibration    13          0.690              1.681              1.438
 Vibration    14          0.714              1.613              1.253
 Vibration    15          0.730              1.568              1.150
 Vibration    16          0.756              1.497              1.011
 Vibration    17          0.771              1.456              0.939
 Vibration    18          0.797              1.392              0.839
 Vibration    19          0.830              1.309              0.728
 Vibration    20          0.850              1.262              0.672
 Vibration    21          0.894              1.164              0.568
 Vibration    22          0.952              1.045              0.460
 Vibration    23          0.963              1.022              0.442

 Optimization completed.
    -- Stationary point found.
 Normal termination of Gaussian 16 at Thu Dec 10 16:42:59 2020.

 ----------------------------------------------------------------------
 # B3LYP/6-311++G(d,p) empiricaldispersion=gd3bj scf=xqc pop=npa geom=c
 heck
 ----------------------------------------------------------------------

 ---------------------------------------
 CID_112704538_JID_5497_Energie_neutraal
 ---------------------------------------
 Structure from the checkpoint file:  "JID_5497.chk"
 Charge =  0 Multiplicity = 1

 SCF Done:  E(RB3LYP) =  -617.152722921     A.U. after   14 cycles
 Normal termination of Gaussian 16 at Thu Dec 10 16:47:39 2020.

 ----------------------------------------------------------------------
 # B3LYP/6-311++G(d,p) empiricaldispersion=gd3bj scf=xqc pop=npa geom=c
 heck
 ----------------------------------------------------------------------

 -------------------------------------
 CID_112704538_JID_5497_Energie_kation
 -------------------------------------
 Structure from the checkpoint file:  "JID_5497.chk"
 Charge =  1 Multiplicity = 2

 SCF Done:  E(UB3LYP) =  -616.905278133     A.U. after   22 cycles
 Normal termination of Gaussian 16 at Thu Dec 10 16:58:55 2020.
 Gaussian 16:  ES64L-G16RevA.03 25-Dec-2016

 ----------------------------------------------------------------------
 # B3LYP/6-311++G(d,p) empiricaldispersion=gd3bj scf=xqc pop=npa geom=c
 heck
 ----------------------------------------------------------------------

 ------------------------------------
 CID_112704538_JID_5497_Energie_anion
 ------------------------------------
 Structure from the checkpoint file:  "JID_5497.chk"
 Charge = -1 Multiplicity = 2

                         Standard orientation:
 ---------------------------------------------------------------------
 Center     Atomic      Atomic             Coordinates (Angstroms)
 Number     Number       Type             X           Y           Z
 ---------------------------------------------------------------------
      1          6           0        4.101907   -1.925788    0.550314
      2          6           0        3.641380   -0.967911   -0.550122
      3          7           0        2.796100    0.100686   -0.038693
      4          6           0        3.034287    1.479162   -0.496455
      5          6           0        1.806045    2.258270    0.022890
      6          6           0        0.757069    1.169070    0.095782
      7          6           0        1.413563   -0.072309    0.065557
      8          6           0        0.675695   -1.256451    0.125047
      9          6           0       -0.714903   -1.167813    0.228247
     10          6           0       -1.386467    0.061505    0.272513
     11          6           0       -0.621821    1.240266    0.204573
     12          6           0       -2.907198    0.065879    0.406056
     13          6           0       -3.533813    1.461583    0.258185
     14          7           0       -3.459554   -0.941674   -0.512286
     15          6           0       -4.883273   -1.210059   -0.373734
     16          1           0        4.677286   -1.384664    1.308310
     17          1           0        4.730734   -2.720917    0.133174
     18          1           0        3.248674   -2.393060    1.051356
     19          1           0        4.517449   -0.503438   -1.016178
     20          1           0        3.116705   -1.523832   -1.345129
     21          1           0        3.984643    1.857472   -0.107557
     22          1           0        3.073607    1.519151   -1.599264
     23          1           0        1.536409    3.093734   -0.630326
     24          1           0        2.008229    2.669708    1.021708
     25          1           0        1.158549   -2.227393    0.083877
     26          1           0       -1.309012   -2.075462    0.252216
     27          1           0       -1.103264    2.212884    0.222987
     28          1           0       -3.160589   -0.297085    1.414969
     29          1           0       -3.301197    1.894693   -0.722501
     30          1           0       -4.621995    1.407169    0.355851
     31          1           0       -3.171975    2.149942    1.029329
     32          1           0       -3.236410   -0.674584   -1.469669
     33          1           0       -5.554710   -0.357032   -0.575902
     34          1           0       -5.161369   -2.022754   -1.053338
     35          1           0       -5.082409   -1.550045    0.649819
 ---------------------------------------------------------------------

 SCF Done:  E(UB3LYP) =  -617.137329922     A.U. after   33 cycles
 SCF Done:  E(UB3LYP) =  -617.137329922     a.u. after    1 cycles

 The electronic state is 2-A.
 Alpha  occ. eigenvalues --  -14.22708 -14.20158 -10.10797 -10.10774 -10.10746
 Alpha  occ. eigenvalues --  -10.10420 -10.09266 -10.08323 -10.07369 -10.07185
 Alpha  occ. eigenvalues --  -10.07084 -10.06966 -10.06838 -10.06794 -10.06377
 Alpha  occ. eigenvalues --   -0.86185  -0.81303  -0.74817  -0.70245  -0.67186
 Alpha  occ. eigenvalues --   -0.64956  -0.62542  -0.61369  -0.57972  -0.54201
 Alpha  occ. eigenvalues --   -0.53066  -0.50250  -0.49031  -0.46499  -0.41821
 Alpha  occ. eigenvalues --   -0.39974  -0.38954  -0.37368  -0.36756  -0.35759
 Alpha  occ. eigenvalues --   -0.34927  -0.34420  -0.33346  -0.31734  -0.31227
 Alpha  occ. eigenvalues --   -0.30561  -0.29467  -0.29136  -0.28240  -0.28026
 Alpha  occ. eigenvalues --   -0.27805  -0.27330  -0.26518  -0.25825  -0.24760
 Alpha  occ. eigenvalues --   -0.23720  -0.23282  -0.18594  -0.15120  -0.13140
 Alpha  occ. eigenvalues --   -0.09506   0.04211
 Alpha virt. eigenvalues --    0.05487   0.06705   0.07352   0.07626   0.08011
 Alpha virt. eigenvalues --    0.08131   0.08709   0.09350   0.09707   0.09899
 Alpha virt. eigenvalues --    0.10176   0.10831   0.11040   0.11196   0.11636

  Beta  occ. eigenvalues --  -14.22711 -14.20148 -10.10777 -10.10769 -10.10720
  Beta  occ. eigenvalues --  -10.10410 -10.09234 -10.08308 -10.07371 -10.07170
  Beta  occ. eigenvalues --  -10.07072 -10.06955 -10.06812 -10.06795 -10.06350
  Beta  occ. eigenvalues --   -0.86171  -0.81282  -0.74798  -0.70222  -0.67155
  Beta  occ. eigenvalues --   -0.64924  -0.62511  -0.61334  -0.57909  -0.54143
  Beta  occ. eigenvalues --   -0.53010  -0.50216  -0.48995  -0.46471  -0.41791
  Beta  occ. eigenvalues --   -0.39948  -0.38914  -0.37337  -0.36723  -0.35733
  Beta  occ. eigenvalues --   -0.34899  -0.34385  -0.33319  -0.31702  -0.31190
  Beta  occ. eigenvalues --   -0.30528  -0.29440  -0.29106  -0.28204  -0.27994
  Beta  occ. eigenvalues --   -0.27772  -0.27292  -0.26479  -0.25788  -0.24731
  Beta  occ. eigenvalues --   -0.23694  -0.23264  -0.18553  -0.15074  -0.13121
  Beta  occ. eigenvalues --   -0.09478
  Beta virt. eigenvalues --    0.06133   0.06602   0.07192   0.07657   0.08081
  Beta virt. eigenvalues --    0.08359   0.08514   0.08909   0.09639   0.10105
  Beta virt. eigenvalues --    0.10117   0.10459   0.10971   0.11290   0.11494

 Mulliken charges and spin densities:
               1          2
     1  C    0.769237  -1.150930
     2  C   -0.590213   0.252950
     3  N    0.159732   0.135865
     4  C    0.337395  -0.719459
     5  C    0.069556  -0.315306
     6  C    0.173344  -0.244697
     7  C   -0.658855   0.427551
     8  C   -0.523715   0.226676
     9  C   -0.315996  -0.080284
    10  C    0.759189  -0.178253
    11  C   -0.099805  -0.182091
    12  C   -0.467573   0.199394
    13  C    0.886240  -1.517469
    14  N   -0.072765   0.088671
    15  C    0.705955  -1.052231
    16  H   -0.040617   0.185777
    17  H   -0.282928   0.400906
    18  H   -0.061977   0.201221
    19  H   -0.668929   0.828660
    20  H    0.047267   0.087973
    21  H   -0.441107   0.631700
    22  H    0.055861   0.088091
    23  H   -0.215221   0.373638
    24  H    0.051750   0.111455
    25  H    0.106677   0.013960
    26  H    0.052826   0.151956
    27  H    0.095951   0.037980
    28  H    0.072376   0.067644
    29  H   -0.091649   0.251516
    30  H   -0.192670   0.345567
    31  H   -0.133993   0.269785
    32  H    0.154860   0.026205
    33  H   -0.297791   0.421795
    34  H   -0.127927   0.256718
    35  H   -0.214485   0.357066
 Sum of Mulliken charges =  -1.00000   1.00000

 Dipole moment (field-independent basis, Debye):
    X=             -0.9125    Y=             -0.4329    Z=              0.2520  Tot=              1.0410
 Quadrupole moment (field-independent basis, Debye-Ang):
   XX=           -217.1816   YY=           -134.2142   ZZ=           -121.1774
   XY=              0.9687   XZ=              2.1035   YZ=             -0.2215

 Summary of Natural Population Analysis:

                                       Natural Population
                Natural  -----------------------------------------------
    Atom  No    Charge         Core      Valence    Rydberg      Total
 -----------------------------------------------------------------------
      C    1   -0.28696      0.99966     2.28158    0.00572     3.28696
      C    2   -0.08456      0.99963     2.07290    0.01203     3.08456
      N    3   -0.25897      0.99965     2.74694    0.01238     3.75897
      C    4   -0.07025      0.99963     2.06028    0.01034     3.07025
      C    5   -0.19880      0.99961     2.19075    0.00844     3.19880
      C    6   -0.02961      0.99948     2.02065    0.00948     3.02961
      C    7    0.09711      0.99944     1.89279    0.01066     2.90289
      C    8   -0.12839      0.99952     2.12117    0.00770     3.12839
      C    9   -0.08710      0.99953     2.07911    0.00846     3.08710
      C   10   -0.03456      0.99951     2.02525    0.00981     3.03456
      C   11   -0.09549      0.99947     2.08828    0.00774     3.09549
      C   12   -0.01305      0.99957     2.00108    0.01240     3.01305
      C   13   -0.29795      0.99966     2.29231    0.00599     3.29795
      N   14   -0.33868      0.99975     2.82726    0.01167     3.83868
      C   15   -0.17959      0.99966     2.17137    0.00856     3.17959
      H   16    0.10051      0.00000     0.39812    0.00138     0.39949
      H   17    0.09758      0.00000     0.40128    0.00114     0.40242
      H   18    0.09725      0.00000     0.40139    0.00137     0.40275
      H   19    0.09835      0.00000     0.39945    0.00220     0.40165
      H   20    0.08685      0.00000     0.41153    0.00161     0.41315
      H   21    0.09820      0.00000     0.39977    0.00204     0.40180
      H   22    0.08271      0.00000     0.41580    0.00149     0.41729
      H   23    0.10468      0.00000     0.39433    0.00100     0.39532
      H   24    0.10169      0.00000     0.39706    0.00125     0.39831
      H   25    0.10120      0.00000     0.39753    0.00128     0.39880
      H   26    0.10748      0.00000     0.39121    0.00130     0.39252
      H   27    0.10144      0.00000     0.39710    0.00146     0.39856
      H   28    0.09179      0.00000     0.40657    0.00165     0.40821
      H   29    0.09756      0.00000     0.40118    0.00127     0.40244
      H   30    0.10271      0.00000     0.39621    0.00108     0.39729
      H   31    0.10107      0.00000     0.39787    0.00106     0.39893
      H   32    0.17077      0.00000     0.32700    0.00223     0.32923
      H   33    0.08029      0.00000     0.41791    0.00180     0.41971
      H   34    0.09380      0.00000     0.40537    0.00083     0.40620
      H   35    0.09094      0.00000     0.40782    0.00125     0.40906
 =======================================================================
   * Total *   -0.00000     14.99376    40.83621    0.17003    56.00000

 Normal termination of Gaussian 16 at Thu Dec 10 17:16:32 2020.
