 Gaussian 16, Revision A.03,

 -----------------------------------------------------------
 # opt freq B3LYP/6-31G(d) empiricaldispersion=gd3bj scf=xqc
 -----------------------------------------------------------

 -------------------------------
 CID_151610665_JID_2436_neutraal
 -------------------------------
 Symbolic Z-matrix:
 Charge =  0 Multiplicity = 1

 SCF Done:  E(RB3LYP) =  -553.286524570     A.U. after   15 cycles
 SCF Done:  E(RB3LYP) =  -553.289508806     A.U. after   14 cycles
 SCF Done:  E(RB3LYP) =  -553.291902881     A.U. after   13 cycles
 SCF Done:  E(RB3LYP) =  -553.292728648     A.U. after   13 cycles
 SCF Done:  E(RB3LYP) =  -553.293063572     A.U. after   12 cycles
 SCF Done:  E(RB3LYP) =  -553.293042108     A.U. after   13 cycles
 SCF Done:  E(RB3LYP) =  -553.293158847     A.U. after   12 cycles
 SCF Done:  E(RB3LYP) =  -553.293195358     A.U. after   10 cycles
 SCF Done:  E(RB3LYP) =  -553.293209301     A.U. after   12 cycles
 SCF Done:  E(RB3LYP) =  -553.293223359     A.U. after    9 cycles
 SCF Done:  E(RB3LYP) =  -553.293292800     A.U. after   10 cycles
 SCF Done:  E(RB3LYP) =  -553.293295662     A.U. after   10 cycles
 SCF Done:  E(RB3LYP) =  -553.293295328     A.U. after   10 cycles
 SCF Done:  E(RB3LYP) =  -553.293295745     A.U. after    9 cycles
 SCF Done:  E(RB3LYP) =  -553.293295737     A.U. after    8 cycles
 SCF Done:  E(RB3LYP) =  -553.293295753     A.U. after    8 cycles
 Optimization completed.
    -- Stationary point found.
 Normal termination of Gaussian 16 at Wed Dec  9 17:28:25 2020.

 --------------------------------------------------------------------
 #N Geom=AllCheck Guess=TCheck SCRF=Check GenChk RB3LYP/6-31G(d) Freq
 --------------------------------------------------------------------

 Structure from the checkpoint file:  "JID_2436.chk"
 -------------------------------
 CID_151610665_JID_2436_neutraal
 -------------------------------
 Charge =  0 Multiplicity = 1

 SCF Done:  E(RB3LYP) =  -553.293295753     A.U. after    1 cycles

  Exact polarizability: 104.483   2.881 101.645   3.458   9.143 103.950
 Approx polarizability: 129.313   4.413 145.964  10.240  32.422 194.640

                      1                      2                      3
                      A                      A                      A
 Frequencies --     24.0786                52.8511                68.9448
 Red. masses --      3.2053                 4.3193                 4.5967
 Frc consts  --      0.0011                 0.0071                 0.0129
 IR Inten    --      0.5871                 0.2960                 0.1415

                      4                      5                      6
                      A                      A                      A
 Frequencies --     79.3284               133.3048               160.6958
 Red. masses --      5.7370                 3.4199                 3.4871
 Frc consts  --      0.0213                 0.0358                 0.0531
 IR Inten    --      0.7820                 3.2321                 0.1378

                      7                      8                      9
                      A                      A                      A
 Frequencies --    197.7826               225.6557               235.0969
 Red. masses --      2.8754                 1.3042                 2.2930
 Frc consts  --      0.0663                 0.0391                 0.0747
 IR Inten    --      6.0429                 0.8053                 2.6057

                     10                     11                     12
                      A                      A                      A
 Frequencies --    263.5866               283.1868               291.3331
 Red. masses --      1.5946                 2.2806                 2.3169
 Frc consts  --      0.0653                 0.1078                 0.1159
 IR Inten    --      2.1087                 1.3696                 2.3989

                     13                     14                     15
                      A                      A                      A
 Frequencies --    347.5168               389.8667               427.3033
 Red. masses --      3.0298                 2.1312                 2.8247
 Frc consts  --      0.2156                 0.1909                 0.3039
 IR Inten    --      0.3066                 0.4747                 0.7569

                     16                     17                     18
                      A                      A                      A
 Frequencies --    498.1344               535.7455               574.0853
 Red. masses --      2.9311                 2.2350                13.2742
 Frc consts  --      0.4285                 0.3780                 2.5776
 IR Inten    --      3.9176                 0.5867                18.6375

                     19                     20                     21
                      A                      A                      A
 Frequencies --    633.9773               660.2547               735.8613
 Red. masses --      3.5712                 4.0530                 2.2477
 Frc consts  --      0.8457                 1.0410                 0.7171
 IR Inten    --      5.6564                 6.4031                 1.6686

                     22                     23                     24
                      A                      A                      A
 Frequencies --    796.3111               851.2789               865.0430
 Red. masses --      2.6593                 1.5895                 2.4784
 Frc consts  --      0.9935                 0.6787                 1.0927
 IR Inten    --      8.9432                10.2076                11.2122

                     25                     26                     27
                      A                      A                      A
 Frequencies --    896.6133               927.1596               946.4083
 Red. masses --      2.4682                 2.2100                 1.1730
 Frc consts  --      1.1691                 1.1193                 0.6190
 IR Inten    --      3.6841                16.2251                 2.2298

                     28                     29                     30
                      A                      A                      A
 Frequencies --    976.8071              1001.5188              1013.0173
 Red. masses --      1.5381                 1.8360                 2.4145
 Frc consts  --      0.8647                 1.0850                 1.4599
 IR Inten    --      0.3725                 6.7537                 6.4978

                     31                     32                     33
                      A                      A                      A
 Frequencies --   1039.1681              1079.9666              1083.4136
 Red. masses --      1.5969                 1.8585                 1.9829
 Frc consts  --      1.0160                 1.2771                 1.3714
 IR Inten    --      7.7144                 1.4262                13.4081

                     34                     35                     36
                      A                      A                      A
 Frequencies --   1116.7521              1136.0809              1143.8072
 Red. masses --      2.4864                 2.0232                 1.3231
 Frc consts  --      1.8270                 1.5385                 1.0199
 IR Inten    --     40.6408                 0.9196                15.8865

                     37                     38                     39
                      A                      A                      A
 Frequencies --   1155.3117              1181.3586              1203.1522
 Red. masses --      1.8845                 1.8705                 1.7363
 Frc consts  --      1.4820                 1.5381                 1.4808
 IR Inten    --      6.5105                10.9504                16.4311

                     40                     41                     42
                      A                      A                      A
 Frequencies --   1221.4494              1262.6755              1282.5516
 Red. masses --      1.9513                 1.1471                 1.6610
 Frc consts  --      1.7153                 1.0775                 1.6098
 IR Inten    --     23.4032                 5.7542                44.8165

                     43                     44                     45
                      A                      A                      A
 Frequencies --   1292.8442              1353.2151              1356.5349
 Red. masses --      1.4972                 2.7159                 1.3002
 Frc consts  --      1.4744                 2.9302                 1.4096
 IR Inten    --      6.7552               127.0543                10.9041

                     46                     47                     48
                      A                      A                      A
 Frequencies --   1382.8986              1394.6975              1401.8922
 Red. masses --      1.6632                 1.3895                 1.3532
 Frc consts  --      1.8740                 1.5924                 1.5669
 IR Inten    --     14.6915                31.8763                26.6472

                     49                     50                     51
                      A                      A                      A
 Frequencies --   1421.5366              1430.8672              1451.1036
 Red. masses --      1.4115                 1.2579                 1.3811
 Frc consts  --      1.6805                 1.5173                 1.7135
 IR Inten    --      5.4089                 4.7169                 3.1581

                     52                     53                     54
                      A                      A                      A
 Frequencies --   1459.1008              1509.6426              1516.8682
 Red. masses --      1.2656                 1.0884                 1.0562
 Frc consts  --      1.5875                 1.4614                 1.4318
 IR Inten    --      5.0304                 5.7327                 2.4405

                     55                     56                     57
                      A                      A                      A
 Frequencies --   1517.5953              1524.9277              1537.4390
 Red. masses --      1.4243                 1.0534                 1.0862
 Frc consts  --      1.9327                 1.4433                 1.5128
 IR Inten    --     13.7748                 1.8809                 1.2528

                     58                     59                     60
                      A                      A                      A
 Frequencies --   1538.2312              1546.8462              2270.1619
 Red. masses --      1.0490                 1.0765                13.6254
 Frc consts  --      1.4624                 1.5176                41.3726
 IR Inten    --      8.1049                 3.0996               378.7903

                     61                     62                     63
                      A                      A                      A
 Frequencies --   2995.0035              3002.6919              3041.5227
 Red. masses --      1.0635                 1.0831                 1.0348
 Frc consts  --      5.6208                 5.7534                 5.6401
 IR Inten    --     44.7002                35.3777                29.4294

                     64                     65                     66
                      A                      A                      A
 Frequencies --   3046.4862              3061.4674              3062.5159
 Red. masses --      1.0869                 1.0488                 1.0709
 Frc consts  --      5.9437                 5.7915                 5.9179
 IR Inten    --     11.0254                56.1247                34.5271

                     67                     68                     69
                      A                      A                      A
 Frequencies --   3092.6845              3108.3663              3110.4033
 Red. masses --      1.0872                 1.1021                 1.1021
 Frc consts  --      6.1270                 6.2740                 6.2824
 IR Inten    --     39.3719                21.1928                 5.7354

                     70                     71                     72
                      A                      A                      A
 Frequencies --   3117.0699              3124.7607              3138.1322
 Red. masses --      1.1010                 1.0879                 1.0995
 Frc consts  --      6.3025                 6.2583                 6.3797
 IR Inten    --     61.3701                43.9778                18.4455

                     73                     74                     75
                      A                      A                      A
 Frequencies --   3155.1061              3184.8515              3238.0299
 Red. masses --      1.0559                 1.0948                 1.1165
 Frc consts  --      6.1929                 6.5427                 6.8971
 IR Inten    --     12.0086                10.6495                10.0652

 - Thermochemistry -
 -------------------
 Temperature   298.150 Kelvin.  Pressure   1.00000 Atm.
 Atom     1 has atomic number  6 and mass  12.00000

 Molecular mass:   169.12151 amu.
 Principal axes and moments of inertia in atomic units:
                           1         2         3
     Eigenvalues --  1288.713253058.532773430.98991
           X            0.99922   0.03872   0.00756
           Y           -0.03856   0.99905  -0.02010
           Z           -0.00833   0.01979   0.99977
 This molecule is an asymmetric top.
 Rotational symmetry number  1.
 Warning -- assumption of classical behavior for rotation
           may cause significant error
 Rotational temperatures (Kelvin)      0.06721     0.02832     0.02524
 Rotational constants (GHZ):           1.40042     0.59007     0.52601
 Zero-point vibrational energy     612391.9 (Joules/Mol)
                                  146.36518 (Kcal/Mol)
 Warning -- explicit consideration of  18 degrees of freedom as
           vibrations may cause significant error
 Vibrational temperatures:     34.64    76.04    99.20   114.14   191.80
          (Kelvin)            231.21   284.57   324.67   338.25   379.24
                              407.44   419.16   500.00   560.93   614.79
                              716.70   770.82   825.98   912.15   949.96
                             1058.74  1145.71  1224.80  1244.60  1290.03
                             1333.98  1361.67  1405.41  1440.96  1457.51
                             1495.13  1553.83  1558.79  1606.76  1634.57
                             1645.68  1662.24  1699.71  1731.07  1757.39
                             1816.71  1845.31  1860.11  1946.97  1951.75
                             1989.68  2006.66  2017.01  2045.27  2058.70
                             2087.81  2099.32  2172.04  2182.44  2183.48
                             2194.03  2212.03  2213.17  2225.57  3266.26
                             4309.14  4320.20  4376.07  4383.21  4404.77
                             4406.28  4449.68  4472.25  4475.18  4484.77
                             4495.83  4515.07  4539.49  4582.29  4658.80

 Zero-point correction=                           0.233248 (Hartree/Particle)
 Thermal correction to Energy=                    0.246361
 Thermal correction to Enthalpy=                  0.247305
 Thermal correction to Gibbs Free Energy=         0.192582
 Sum of electronic and zero-point Energies=           -553.060048
 Sum of electronic and thermal Energies=              -553.046935
 Sum of electronic and thermal Enthalpies=            -553.045991
 Sum of electronic and thermal Free Energies=         -553.100713

                     E (Thermal)             CV                S
                      KCal/Mol        Cal/Mol-Kelvin    Cal/Mol-Kelvin
 Total                  154.594             47.620            115.173
 Electronic               0.000              0.000              0.000
 Translational            0.889              2.981             41.284
 Rotational               0.889              2.981             30.981
 Vibrational            152.816             41.658             42.908
 Vibration     1          0.593              1.985              6.266
 Vibration     2          0.596              1.976              4.708
 Vibration     3          0.598              1.969              4.183
 Vibration     4          0.600              1.963              3.907
 Vibration     5          0.613              1.920              2.898
 Vibration     6          0.622              1.891              2.542
 Vibration     7          0.637              1.843              2.154
 Vibration     8          0.650              1.802              1.913
 Vibration     9          0.655              1.787              1.840
 Vibration    10          0.670              1.740              1.638
 Vibration    11          0.682              1.705              1.514
 Vibration    12          0.687              1.690              1.466
 Vibration    13          0.725              1.580              1.177
 Vibration    14          0.758              1.492              1.001
 Vibration    15          0.789              1.411              0.868
 Vibration    16          0.854              1.254              0.663
 Vibration    17          0.891              1.171              0.575
 Vibration    18          0.930              1.087              0.496

 Optimization completed.
    -- Stationary point found.
 Normal termination of Gaussian 16 at Wed Dec  9 17:35:02 2020.

 ----------------------------------------------------------------------
 # B3LYP/6-311++G(d,p) empiricaldispersion=gd3bj scf=xqc pop=npa geom=c
 heck
 ----------------------------------------------------------------------

 ---------------------------------------
 CID_151610665_JID_2436_Energie_neutraal
 ---------------------------------------
 Structure from the checkpoint file:  "JID_2436.chk"
 Charge =  0 Multiplicity = 1

 SCF Done:  E(RB3LYP) =  -553.448537235     A.U. after   15 cycles
 Normal termination of Gaussian 16 at Wed Dec  9 17:37:44 2020.

 ----------------------------------------------------------------------
 # B3LYP/6-311++G(d,p) empiricaldispersion=gd3bj scf=xqc pop=npa geom=c
 heck
 ----------------------------------------------------------------------

 -------------------------------------
 CID_151610665_JID_2436_Energie_kation
 -------------------------------------
 Structure from the checkpoint file:  "JID_2436.chk"
 Charge =  1 Multiplicity = 2

 SCF Done:  E(UB3LYP) =  -553.125265884     A.U. after   24 cycles
 Normal termination of Gaussian 16 at Wed Dec  9 17:44:41 2020.
 Gaussian 16:  ES64L-G16RevA.03 25-Dec-2016

 ----------------------------------------------------------------------
 # B3LYP/6-311++G(d,p) empiricaldispersion=gd3bj scf=xqc pop=npa geom=c
 heck
 ----------------------------------------------------------------------

 ------------------------------------
 CID_151610665_JID_2436_Energie_anion
 ------------------------------------
 Structure from the checkpoint file:  "JID_2436.chk"
 Charge = -1 Multiplicity = 2

                         Standard orientation:
 ---------------------------------------------------------------------
 Center     Atomic      Atomic             Coordinates (Angstroms)
 Number     Number       Type             X           Y           Z
 ---------------------------------------------------------------------
      1          6           0        0.999805    1.553268   -0.341174
      2          6           0        2.032777    0.480695   -0.708120
      3          6           0        3.453774    1.049364   -0.558434
      4          6           0        1.948192   -0.826847    0.077696
      5          6           0        1.577827   -0.892379    1.549328
      6          6           0        0.705013   -1.559089    0.534469
      7          8           0       -0.583114   -1.035066    0.372762
      8          6           0       -1.144391   -1.297703   -0.900251
      9          6           0       -2.574551   -0.778787   -0.874863
     10          7           0       -2.637889    0.685008   -0.692680
     11          7           0       -2.450301    1.090945    0.460990
     12          7           0       -2.309128    1.607183    1.468149
     13          1           0        1.066373    1.829382    0.716775
     14          1           0       -0.021976    1.232209   -0.541820
     15          1           0        1.190189    2.459467   -0.927320
     16          1           0        1.886694    0.227051   -1.769427
     17          1           0        3.649556    1.317749    0.486754
     18          1           0        4.214099    0.321543   -0.865153
     19          1           0        3.582189    1.950562   -1.168755
     20          1           0        2.746128   -1.512911   -0.208537
     21          1           0        2.166357   -1.501450    2.229407
     22          1           0        1.162119    0.006977    1.993475
     23          1           0        0.729116   -2.649645    0.467297
     24          1           0       -0.567962   -0.799605   -1.692376
     25          1           0       -1.152361   -2.380094   -1.110233
     26          1           0       -3.058352   -0.979768   -1.833482
     27          1           0       -3.136713   -1.294037   -0.085827
 ---------------------------------------------------------------------

 SCF Done:  E(UB3LYP) =  -553.437309801     A.U. after   30 cycles

 The electronic state is 2-A.
 Alpha  occ. eigenvalues --  -19.02662 -14.35094 -14.25181 -14.23799 -10.11904
 Alpha  occ. eigenvalues --  -10.11289 -10.10439 -10.07645 -10.07294 -10.06662
 Alpha  occ. eigenvalues --  -10.05910 -10.04901  -1.01569  -0.94437  -0.85772
 Alpha  occ. eigenvalues --   -0.75724  -0.68459  -0.66212  -0.58135  -0.55285
 Alpha  occ. eigenvalues --   -0.52408  -0.49099  -0.44925  -0.42798  -0.41478
 Alpha  occ. eigenvalues --   -0.39853  -0.39109  -0.38040  -0.35836  -0.33853
 Alpha  occ. eigenvalues --   -0.33183  -0.32586  -0.31756  -0.29812  -0.29144
 Alpha  occ. eigenvalues --   -0.28905  -0.27635  -0.25723  -0.24605  -0.23486
 Alpha  occ. eigenvalues --   -0.22951  -0.20689  -0.18482  -0.18228  -0.14601
 Alpha  occ. eigenvalues --   -0.13772   0.04595
 Alpha virt. eigenvalues --    0.06587   0.07392   0.08097   0.08744   0.09544
 Alpha virt. eigenvalues --    0.09789   0.10579   0.11126   0.11198   0.12180
 Alpha virt. eigenvalues --    0.12880   0.13091   0.13259   0.14358   0.15334

  Beta  occ. eigenvalues --  -19.02650 -14.34937 -14.24965 -14.23842 -10.11887
  Beta  occ. eigenvalues --  -10.11257 -10.10366 -10.07635 -10.07282 -10.06655
  Beta  occ. eigenvalues --  -10.05891 -10.04892  -1.01262  -0.94414  -0.85622
  Beta  occ. eigenvalues --   -0.75686  -0.68425  -0.66111  -0.58105  -0.55152
  Beta  occ. eigenvalues --   -0.52362  -0.49044  -0.44873  -0.42718  -0.41387
  Beta  occ. eigenvalues --   -0.39652  -0.38775  -0.37780  -0.35745  -0.33581
  Beta  occ. eigenvalues --   -0.33038  -0.32497  -0.31622  -0.29761  -0.29097
  Beta  occ. eigenvalues --   -0.28745  -0.27600  -0.25664  -0.24580  -0.23448
  Beta  occ. eigenvalues --   -0.22920  -0.20644  -0.18219  -0.18112  -0.14579
  Beta  occ. eigenvalues --   -0.13701
  Beta virt. eigenvalues --    0.06995   0.07926   0.08100   0.08925   0.09520
  Beta virt. eigenvalues --    0.09881   0.10515   0.10939   0.11426   0.11612
  Beta virt. eigenvalues --    0.12413   0.13154   0.13406   0.13603   0.14675

 Mulliken charges and spin densities:
               1          2
     1  C   -0.231554  -0.381467
     2  C    0.383347  -0.108279
     3  C    0.422634  -1.120788
     4  C   -0.216979   0.288367
     5  C   -0.024515  -0.485102
     6  C   -0.011712  -0.172762
     7  O   -0.040957   0.003348
     8  C   -0.443957   0.407766
     9  C    1.595476  -2.203396
    10  N   -0.721649   0.255564
    11  N    0.514125   0.066298
    12  N   -0.104838   0.039593
    13  H    0.053606   0.085827
    14  H   -0.136523   0.221499
    15  H    0.152207  -0.026715
    16  H   -0.144399   0.316682
    17  H    0.102528   0.035818
    18  H   -0.212478   0.344640
    19  H   -0.022560   0.145161
    20  H   -0.478270   0.712259
    21  H   -0.003374   0.164313
    22  H    0.146387  -0.004540
    23  H   -0.285817   0.463803
    24  H    0.010641   0.132622
    25  H   -0.656320   0.790308
    26  H   -0.595061   0.797824
    27  H   -0.049988   0.231360
 Sum of Mulliken charges =  -1.00000   1.00000

 Dipole moment (field-independent basis, Debye):
    X=              1.1892    Y=              3.3368    Z=              2.9146  Tot=              4.5873
 Quadrupole moment (field-independent basis, Debye-Ang):
   XX=           -131.4656   YY=           -115.7361   ZZ=           -108.1887
   XY=              3.6101   XZ=             -1.5466   YZ=             -6.8455

 Summary of Natural Population Analysis:

                                       Natural Population
                Natural  -----------------------------------------------
    Atom  No    Charge         Core      Valence    Rydberg      Total
 -----------------------------------------------------------------------
      C    1   -0.28773      0.99964     2.28075    0.00734     3.28773
      C    2   -0.11332      0.99960     2.10395    0.00978     3.11332
      C    3   -0.28046      0.99965     2.27459    0.00622     3.28046
      C    4   -0.12063      0.99957     2.10783    0.01323     3.12063
      C    5   -0.20621      0.99960     2.19852    0.00809     3.20621
      C    6    0.06452      0.99947     1.92124    0.01477     2.93548
      O    7   -0.30026      0.99987     3.29024    0.01015     4.30026
      C    8   -0.01500      0.99957     2.00287    0.01256     3.01500
      C    9   -0.09874      0.99958     2.08612    0.01304     3.09874
      N   10   -0.20067      0.99970     2.68685    0.01412     3.70067
      N   11    0.13147      0.99970     2.35313    0.01570     3.36853
      N   12   -0.02902      0.99982     2.51612    0.01308     3.52902
      H   13    0.09563      0.00000     0.40352    0.00086     0.40437
      H   14    0.10861      0.00000     0.38970    0.00170     0.39139
      H   15    0.09502      0.00000     0.40419    0.00079     0.40498
      H   16    0.09571      0.00000     0.40231    0.00198     0.40429
      H   17    0.09507      0.00000     0.40407    0.00086     0.40493
      H   18    0.09926      0.00000     0.39972    0.00102     0.40074
      H   19    0.09564      0.00000     0.40359    0.00077     0.40436
      H   20    0.10588      0.00000     0.39197    0.00215     0.39412
      H   21    0.10125      0.00000     0.39795    0.00081     0.39875
      H   22    0.10773      0.00000     0.39104    0.00124     0.39227
      H   23    0.08785      0.00000     0.41048    0.00167     0.41215
      H   24    0.08575      0.00000     0.41198    0.00228     0.41425
      H   25    0.08621      0.00000     0.41121    0.00258     0.41379
      H   26    0.10407      0.00000     0.39321    0.00272     0.39593
      H   27    0.09238      0.00000     0.40605    0.00157     0.40762
 =======================================================================
   * Total *    0.00000     11.99577    33.84318    0.16106    46.00000

 Normal termination of Gaussian 16 at Wed Dec  9 17:51:57 2020.
