 Gaussian 16, Revision A.03,

 -----------------------------------------------------------
 # opt freq B3LYP/6-31G(d) empiricaldispersion=gd3bj scf=xqc
 -----------------------------------------------------------

 ------------------------------
 CID_79226647_JID_9303_neutraal
 ------------------------------
 Symbolic Z-matrix:
 Charge =  0 Multiplicity = 1

 SCF Done:  E(RB3LYP) =  -825.183071234     A.U. after   13 cycles
 SCF Done:  E(RB3LYP) =  -825.188586207     A.U. after   12 cycles
 SCF Done:  E(RB3LYP) =  -825.189588313     A.U. after   12 cycles
 SCF Done:  E(RB3LYP) =  -825.190172327     A.U. after   11 cycles
 SCF Done:  E(RB3LYP) =  -825.190285914     A.U. after   11 cycles
 SCF Done:  E(RB3LYP) =  -825.190331366     A.U. after   11 cycles
 SCF Done:  E(RB3LYP) =  -825.190356154     A.U. after   11 cycles
 SCF Done:  E(RB3LYP) =  -825.190375175     A.U. after   11 cycles
 SCF Done:  E(RB3LYP) =  -825.190383021     A.U. after   11 cycles
 SCF Done:  E(RB3LYP) =  -825.190386411     A.U. after   10 cycles
 SCF Done:  E(RB3LYP) =  -825.190389678     A.U. after    7 cycles
 SCF Done:  E(RB3LYP) =  -825.190389947     A.U. after    7 cycles
 SCF Done:  E(RB3LYP) =  -825.190390260     A.U. after    9 cycles
 SCF Done:  E(RB3LYP) =  -825.190390499     A.U. after    9 cycles
 SCF Done:  E(RB3LYP) =  -825.190390594     A.U. after    7 cycles
 Optimization completed.
    -- Stationary point found.
 Normal termination of Gaussian 16 at Mon Dec 14 18:55:41 2020.

 --------------------------------------------------------------------
 #N Geom=AllCheck Guess=TCheck SCRF=Check GenChk RB3LYP/6-31G(d) Freq
 --------------------------------------------------------------------

 Structure from the checkpoint file:  "JID_9303.chk"
 ------------------------------
 CID_79226647_JID_9303_neutraal
 ------------------------------
 Charge =  0 Multiplicity = 1

 SCF Done:  E(RB3LYP) =  -825.190390594     A.U. after    1 cycles

  Exact polarizability: 197.453  33.683 160.638  -2.962   9.914 153.683
 Approx polarizability: 261.694  60.679 259.705  -3.189  18.326 276.104

                      1                      2                      3
                      A                      A                      A
 Frequencies --      6.5270                24.9335                32.3064
 Red. masses --      5.1808                 3.7553                 4.8678
 Frc consts  --      0.0001                 0.0014                 0.0030
 IR Inten    --      0.6262                 0.4347                 0.7215

                      4                      5                      6
                      A                      A                      A
 Frequencies --     48.1291                83.5049               108.4842
 Red. masses --      4.5264                 4.8466                 3.2681
 Frc consts  --      0.0062                 0.0199                 0.0227
 IR Inten    --      1.4934                 1.2053                 0.4063

                      7                      8                      9
                      A                      A                      A
 Frequencies --    137.5469               175.4895               215.9450
 Red. masses --      4.1142                 3.3286                 4.6070
 Frc consts  --      0.0459                 0.0604                 0.1266
 IR Inten    --      6.0679                 4.0407                 1.4571

                     10                     11                     12
                      A                      A                      A
 Frequencies --    255.8073               293.5541               297.5125
 Red. masses --      4.5826                 1.5928                 1.5891
 Frc consts  --      0.1767                 0.0809                 0.0829
 IR Inten    --      2.1020                11.6421                11.2222

                     13                     14                     15
                      A                      A                      A
 Frequencies --    316.4831               365.8831               386.6442
 Red. masses --      3.6470                 3.6157                 3.3252
 Frc consts  --      0.2152                 0.2852                 0.2929
 IR Inten    --      6.5406                 0.4550                 7.6777

                     16                     17                     18
                      A                      A                      A
 Frequencies --    409.0126               419.1694               432.0966
 Red. masses --      2.6273                 3.1340                 2.9951
 Frc consts  --      0.2590                 0.3244                 0.3295
 IR Inten    --      0.3823                 1.4381                 4.8678

                     19                     20                     21
                      A                      A                      A
 Frequencies --    443.4973               492.9795               508.4748
 Red. masses --      4.3515                 3.4678                 2.5358
 Frc consts  --      0.5043                 0.4965                 0.3863
 IR Inten    --      3.9389                 5.0993                27.6651

                     22                     23                     24
                      A                      A                      A
 Frequencies --    548.2880               569.8639               592.7474
 Red. masses --      5.4618                 3.6658                 3.6868
 Frc consts  --      0.9674                 0.7014                 0.7632
 IR Inten    --      0.1695                29.4250               112.8968

                     25                     26                     27
                      A                      A                      A
 Frequencies --    613.8548               633.6553               658.8907
 Red. masses --      5.8078                 1.5021                 6.7508
 Frc consts  --      1.2894                 0.3553                 1.7268
 IR Inten    --      1.2005               244.2979                 0.8249

                     28                     29                     30
                      A                      A                      A
 Frequencies --    719.3043               735.4695               749.7628
 Red. masses --      3.7838                 5.4480                 3.8214
 Frc consts  --      1.1535                 1.7363                 1.2657
 IR Inten    --      1.3498                 7.2684                 0.0503

                     31                     32                     33
                      A                      A                      A
 Frequencies --    764.4962               785.8526               795.1050
 Red. masses --      1.3267                 3.6344                 3.7500
 Frc consts  --      0.4569                 1.3224                 1.3968
 IR Inten    --     54.7295                15.3421                 5.8128

                     34                     35                     36
                      A                      A                      A
 Frequencies --    826.6209               832.0279               851.6189
 Red. masses --      1.3371                 1.6621                 4.7934
 Frc consts  --      0.5383                 0.6779                 2.0483
 IR Inten    --     10.0951                36.0235                23.6906

                     37                     38                     39
                      A                      A                      A
 Frequencies --    864.6049               867.9270               896.5063
 Red. masses --      4.2987                 1.4456                 1.9143
 Frc consts  --      1.8933                 0.6416                 0.9065
 IR Inten    --      4.4432                 1.5180                11.0391

                     40                     41                     42
                      A                      A                      A
 Frequencies --    936.2760               939.8304               952.6873
 Red. masses --      1.3850                 1.3831                 1.4026
 Frc consts  --      0.7154                 0.7198                 0.7500
 IR Inten    --      7.1260                 3.1839                 3.1240

                     43                     44                     45
                      A                      A                      A
 Frequencies --    959.8910               968.8774               993.8163
 Red. masses --      2.6210                 1.2348                 3.7459
 Frc consts  --      1.4229                 0.6829                 2.1798
 IR Inten    --     13.1237                 0.4763                29.9072

                     46                     47                     48
                      A                      A                      A
 Frequencies --   1017.3846              1033.1281              1041.2051
 Red. masses --      2.1764                 2.5582                 2.4456
 Frc consts  --      1.3273                 1.6087                 1.5621
 IR Inten    --     10.2489                 5.3736                10.2581

                     49                     50                     51
                      A                      A                      A
 Frequencies --   1043.9181              1049.2143              1105.3650
 Red. masses --      2.4931                 1.9804                 1.4307
 Frc consts  --      1.6007                 1.2845                 1.0299
 IR Inten    --     11.0028                 6.4477                 0.9913

                     52                     53                     54
                      A                      A                      A
 Frequencies --   1118.3222              1129.1226              1157.2561
 Red. masses --      3.3385                 1.9995                 2.3643
 Frc consts  --      2.4600                 1.5020                 1.8656
 IR Inten    --    168.0554                43.6757                48.4900

                     55                     56                     57
                      A                      A                      A
 Frequencies --   1164.8556              1185.4704              1194.9788
 Red. masses --      1.2619                 1.1818                 1.8895
 Frc consts  --      1.0088                 0.9786                 1.5897
 IR Inten    --     15.9904                 1.8633                 7.7387

                     58                     59                     60
                      A                      A                      A
 Frequencies --   1211.1217              1237.1969              1246.3446
 Red. masses --      1.1582                 1.4724                 2.2150
 Frc consts  --      1.0010                 1.3279                 2.0272
 IR Inten    --     25.3176                 4.7759                16.2224

                     61                     62                     63
                      A                      A                      A
 Frequencies --   1258.5520              1272.7078              1286.4339
 Red. masses --      1.2749                 2.7225                 1.3039
 Frc consts  --      1.1898                 2.5982                 1.2713
 IR Inten    --     10.7695               111.0899                 4.6200

                     64                     65                     66
                      A                      A                      A
 Frequencies --   1312.7429              1323.3475              1327.3445
 Red. masses --      1.3363                 3.2125                 1.4768
 Frc consts  --      1.3568                 3.3147                 1.5330
 IR Inten    --      6.0554                85.0487                 2.5348

                     67                     68                     69
                      A                      A                      A
 Frequencies --   1355.3678              1358.2949              1376.8709
 Red. masses --      1.4491                 1.6431                 2.8019
 Frc consts  --      1.5684                 1.7861                 3.1296
 IR Inten    --     13.4771                 0.6503                 3.8801

                     70                     71                     72
                      A                      A                      A
 Frequencies --   1389.6145              1406.0173              1408.2815
 Red. masses --      2.7260                 1.4537                 1.4208
 Frc consts  --      3.1014                 1.6932                 1.6602
 IR Inten    --      9.8001                26.3938                20.0037

                     73                     74                     75
                      A                      A                      A
 Frequencies --   1434.0825              1490.0346              1512.5178
 Red. masses --      1.3730                 2.6639                 2.4242
 Frc consts  --      1.6637                 3.4847                 3.2676
 IR Inten    --      8.5500                 3.5859                21.7315

                     76                     77                     78
                      A                      A                      A
 Frequencies --   1521.7003              1525.7881              1541.0053
 Red. masses --      1.1135                 2.0680                 1.0981
 Frc consts  --      1.5192                 2.8365                 1.5364
 IR Inten    --      2.3757                51.1736                 3.0417

                     79                     80                     81
                      A                      A                      A
 Frequencies --   1545.6642              1571.4143              1641.0684
 Red. masses --      1.2686                 2.6216                 6.0456
 Frc consts  --      1.7857                 3.8142                 9.5927
 IR Inten    --     17.0550                65.2410                 3.2051

                     82                     83                     84
                      A                      A                      A
 Frequencies --   1657.3807              1669.8303              1677.9263
 Red. masses --      6.6108                 7.0132                 2.7304
 Frc consts  --     10.6992                11.5215                 4.5293
 IR Inten    --     13.4557                24.9688                20.7126

                     85                     86                     87
                      A                      A                      A
 Frequencies --   1697.2520              3020.5826              3027.6684
 Red. masses --      1.4655                 1.0600                 1.0624
 Frc consts  --      2.4873                 5.6981                 5.7380
 IR Inten    --    140.5351                72.4019                 1.4299

                     88                     89                     90
                      A                      A                      A
 Frequencies --   3055.6924              3067.7675              3079.0638
 Red. masses --      1.0674                 1.0964                 1.1004
 Frc consts  --      5.8723                 6.0793                 6.1464
 IR Inten    --     59.8327                 2.5196                29.4207

                     91                     92                     93
                      A                      A                      A
 Frequencies --   3087.5258              3117.1817              3169.9235
 Red. masses --      1.0912                 1.1048                 1.0865
 Frc consts  --      6.1290                 6.3248                 6.4324
 IR Inten    --     59.1720                32.4426                19.4341

                     94                     95                     96
                      A                      A                      A
 Frequencies --   3173.0819              3186.5754              3187.0917
 Red. masses --      1.0879                 1.0859                 1.0941
 Frc consts  --      6.4537                 6.4966                 6.5479
 IR Inten    --     18.1501                 3.5068                22.1634

                     97                     98                     99
                      A                      A                      A
 Frequencies --   3199.0486              3201.5881              3215.8632
 Red. masses --      1.0930                 1.0905                 1.0938
 Frc consts  --      6.5905                 6.5859                 6.6649
 IR Inten    --      9.4899                20.6630                19.6989

                    100                    101                    102
                      A                      A                      A
 Frequencies --   3221.6350              3549.5027              3648.1385
 Red. masses --      1.0949                 1.0479                 1.0980
 Frc consts  --      6.6951                 7.7785                 8.6099
 IR Inten    --      8.7480                13.6916                 7.9450

 - Thermochemistry -
 -------------------
 Temperature   298.150 Kelvin.  Pressure   1.00000 Atm.
 Atom     1 has atomic number  6 and mass  12.00000

 Molecular mass:   255.12593 amu.
 Principal axes and moments of inertia in atomic units:
                           1         2         3
     Eigenvalues --  2316.03317********************
           X            0.99999   0.00346  -0.00326
           Y           -0.00327   0.99829   0.05832
           Z            0.00346  -0.05831   0.99829
 This molecule is an asymmetric top.
 Rotational symmetry number  1.
 Warning -- assumption of classical behavior for rotation
           may cause significant error
 Rotational temperatures (Kelvin)      0.03740     0.00845     0.00822
 Rotational constants (GHZ):           0.77924     0.17598     0.17125
 Zero-point vibrational energy     790827.4 (Joules/Mol)
                                  189.01228 (Kcal/Mol)
 Warning -- explicit consideration of  25 degrees of freedom as
           vibrations may cause significant error
 Vibrational temperatures:      9.39    35.87    46.48    69.25   120.14
          (Kelvin)            156.08   197.90   252.49   310.70   368.05
                              422.36   428.05   455.35   526.42   556.29
                              588.48   603.09   621.69   638.09   709.29
                              731.58   788.86   819.91   852.83   883.20
                              911.69   948.00  1034.92  1058.18  1078.74
                             1099.94  1130.67  1143.98  1189.32  1197.10
                             1225.29  1243.97  1248.75  1289.87  1347.09
                             1352.21  1370.70  1381.07  1394.00  1429.88
                             1463.79  1486.44  1498.06  1501.97  1509.59
                             1590.37  1609.02  1624.56  1665.03  1675.97
                             1705.63  1719.31  1742.53  1780.05  1793.21
                             1810.78  1831.14  1850.89  1888.74  1904.00
                             1909.75  1950.07  1954.28  1981.01  1999.35
                             2022.95  2026.20  2063.32  2143.83  2176.18
                             2189.39  2195.27  2217.16  2223.87  2260.91
                             2361.13  2384.60  2402.51  2414.16  2441.97
                             4345.94  4356.14  4396.46  4413.83  4430.09
                             4442.26  4484.93  4560.81  4565.36  4584.77
                             4585.51  4602.72  4606.37  4626.91  4635.21
                             5106.94  5248.86

 Zero-point correction=                           0.301210 (Hartree/Particle)
 Thermal correction to Energy=                    0.317507
 Thermal correction to Enthalpy=                  0.318451
 Thermal correction to Gibbs Free Energy=         0.253714
 Sum of electronic and zero-point Energies=           -824.889180
 Sum of electronic and thermal Energies=              -824.872884
 Sum of electronic and thermal Enthalpies=            -824.871939
 Sum of electronic and thermal Free Energies=         -824.936676

                     E (Thermal)             CV                S
                      KCal/Mol        Cal/Mol-Kelvin    Cal/Mol-Kelvin
 Total                  199.239             64.065            136.250
 Electronic               0.000              0.000              0.000
 Translational            0.889              2.981             42.510
 Rotational               0.889              2.981             33.881
 Vibrational            197.461             58.103             59.860
 Vibration     1          0.593              1.987              8.859
 Vibration     2          0.593              1.985              6.196
 Vibration     3          0.594              1.983              5.683
 Vibration     4          0.595              1.978              4.893
 Vibration     5          0.600              1.961              3.807
 Vibration     6          0.606              1.942              3.296
 Vibration     7          0.614              1.916              2.838
 Vibration     8          0.627              1.873              2.376
 Vibration     9          0.645              1.817              1.993
 Vibration    10          0.666              1.753              1.690
 Vibration    11          0.688              1.686              1.453
 Vibration    12          0.691              1.678              1.431
 Vibration    13          0.703              1.642              1.328
 Vibration    14          0.739              1.542              1.097
 Vibration    15          0.755              1.499              1.013
 Vibration    16          0.773              1.451              0.930
 Vibration    17          0.782              1.429              0.895
 Vibration    18          0.793              1.400              0.852
 Vibration    19          0.803              1.375              0.816
 Vibration    20          0.849              1.266              0.676
 Vibration    21          0.864              1.231              0.637
 Vibration    22          0.904              1.143              0.548
 Vibration    23          0.926              1.096              0.504
 Vibration    24          0.950              1.047              0.462
 Vibration    25          0.973              1.003              0.426

 Optimization completed.
    -- Stationary point found.
 Normal termination of Gaussian 16 at Mon Dec 14 19:13:04 2020.

 ----------------------------------------------------------------------
 # B3LYP/6-311++G(d,p) empiricaldispersion=gd3bj scf=xqc pop=npa geom=c
 heck
 ----------------------------------------------------------------------

 --------------------------------------
 CID_79226647_JID_9303_Energie_neutraal
 --------------------------------------
 Structure from the checkpoint file:  "JID_9303.chk"
 Charge =  0 Multiplicity = 1

 SCF Done:  E(RB3LYP) =  -825.417063624     A.U. after   15 cycles
 Normal termination of Gaussian 16 at Mon Dec 14 19:20:53 2020.

 ----------------------------------------------------------------------
 # B3LYP/6-311++G(d,p) empiricaldispersion=gd3bj scf=xqc pop=npa geom=c
 heck
 ----------------------------------------------------------------------

 ------------------------------------
 CID_79226647_JID_9303_Energie_kation
 ------------------------------------
 Structure from the checkpoint file:  "JID_9303.chk"
 Charge =  1 Multiplicity = 2

 SCF Done:  E(UB3LYP) =  -825.150304282     A.U. after   24 cycles
 Normal termination of Gaussian 16 at Mon Dec 14 19:38:38 2020.
 Gaussian 16:  ES64L-G16RevA.03 25-Dec-2016

 ----------------------------------------------------------------------
 # B3LYP/6-311++G(d,p) empiricaldispersion=gd3bj scf=xqc pop=npa geom=c
 heck
 ----------------------------------------------------------------------

 -----------------------------------
 CID_79226647_JID_9303_Energie_anion
 -----------------------------------
 Structure from the checkpoint file:  "JID_9303.chk"
 Charge = -1 Multiplicity = 2

                         Standard orientation:
 ---------------------------------------------------------------------
 Center     Atomic      Atomic             Coordinates (Angstroms)
 Number     Number       Type             X           Y           Z
 ---------------------------------------------------------------------
      1          6           0        2.315211   -2.388655    0.562419
      2          6           0        1.829538   -1.530433   -0.630161
      3          6           0        2.621291   -0.262420   -0.406508
      4          6           0        2.798602    0.868925   -1.191638
      5          6           0        3.515958    1.951681   -0.664967
      6          6           0        4.033052    1.891140    0.632119
      7          6           0        3.857964    0.756652    1.433613
      8          6           0        3.148252   -0.305257    0.886722
      9          8           0        2.878109   -1.476716    1.539585
     10          6           0        0.318483   -1.267344   -0.571860
     11          8           0       -0.060837   -0.422395   -1.649068
     12          6           0       -0.702428    0.787658   -1.250079
     13          6           0       -2.044097    0.562560   -0.594138
     14          6           0       -2.393516    1.210878    0.592785
     15          6           0       -3.638087    1.014614    1.186362
     16          6           0       -4.571197    0.141956    0.606854
     17          6           0       -4.218786   -0.522628   -0.581448
     18          6           0       -2.977278   -0.310946   -1.166938
     19          7           0       -5.797068   -0.112961    1.228423
     20          1           0        3.101789   -3.089732    0.259611
     21          1           0        1.514112   -2.945835    1.056441
     22          1           0        2.061417   -2.011570   -1.586188
     23          1           0        2.378717    0.909560   -2.191622
     24          1           0        3.670472    2.841916   -1.267266
     25          1           0        4.588411    2.736737    1.028568
     26          1           0        4.259023    0.698391    2.439837
     27          1           0       -0.233041   -2.214873   -0.647280
     28          1           0        0.062622   -0.814406    0.394547
     29          1           0       -0.046694    1.365741   -0.583085
     30          1           0       -0.808413    1.355794   -2.181623
     31          1           0       -1.681209    1.884841    1.063673
     32          1           0       -3.886513    1.526644    2.113117
     33          1           0       -4.926859   -1.210700   -1.037993
     34          1           0       -2.714531   -0.837859   -2.080222
     35          1           0       -6.528775   -0.430800    0.604861
     36          1           0       -6.127000    0.629474    1.832698
 ---------------------------------------------------------------------

 SCF Done:  E(UB3LYP) =  -825.406142581     A.U. after   33 cycles
 SCF Done:  E(UB3LYP) =  -825.406142581     a.u. after    1 cycles

 The electronic state is 2-A.
 Alpha  occ. eigenvalues --  -19.06868 -19.03653 -14.21700 -10.14573 -10.14403
 Alpha  occ. eigenvalues --  -10.13048 -10.13002 -10.11948 -10.10226 -10.09371
 Alpha  occ. eigenvalues --  -10.09041 -10.08955 -10.08903 -10.08766 -10.08244
 Alpha  occ. eigenvalues --  -10.07941 -10.07698 -10.07462 -10.07433  -0.98911
 Alpha  occ. eigenvalues --   -0.94846  -0.82207  -0.77193  -0.75073  -0.72399
 Alpha  occ. eigenvalues --   -0.66640  -0.66142  -0.65400  -0.65058  -0.60896
 Alpha  occ. eigenvalues --   -0.56086  -0.54347  -0.52318  -0.50916  -0.50647
 Alpha  occ. eigenvalues --   -0.48863  -0.43204  -0.42864  -0.42075  -0.41558
 Alpha  occ. eigenvalues --   -0.40572  -0.39729  -0.38791  -0.37924  -0.37807
 Alpha  occ. eigenvalues --   -0.35430  -0.34591  -0.33988  -0.33082  -0.32613
 Alpha  occ. eigenvalues --   -0.32147  -0.31232  -0.29844  -0.29347  -0.29012
 Alpha  occ. eigenvalues --   -0.27703  -0.27492  -0.27230  -0.25081  -0.24872
 Alpha  occ. eigenvalues --   -0.23541  -0.22939  -0.21577  -0.18036  -0.16861
 Alpha  occ. eigenvalues --   -0.16242  -0.13678  -0.11337   0.03959
 Alpha virt. eigenvalues --    0.05123   0.06012   0.06471   0.07115   0.07367
 Alpha virt. eigenvalues --    0.07649   0.07914   0.08189   0.08398   0.08887
 Alpha virt. eigenvalues --    0.09168   0.09429   0.10134   0.10504   0.11278

  Beta  occ. eigenvalues --  -19.06869 -19.03651 -14.21627 -10.14558 -10.14412
  Beta  occ. eigenvalues --  -10.13046 -10.12987 -10.11941 -10.10220 -10.09331
  Beta  occ. eigenvalues --  -10.09004 -10.08925 -10.08859 -10.08776 -10.08241
  Beta  occ. eigenvalues --  -10.07937 -10.07697 -10.07444 -10.07416  -0.98907
  Beta  occ. eigenvalues --   -0.94841  -0.82126  -0.77130  -0.75043  -0.72349
  Beta  occ. eigenvalues --   -0.66594  -0.66095  -0.65377  -0.64994  -0.60858
  Beta  occ. eigenvalues --   -0.56047  -0.54272  -0.52283  -0.50887  -0.50602
  Beta  occ. eigenvalues --   -0.48820  -0.43156  -0.42818  -0.42034  -0.41513
  Beta  occ. eigenvalues --   -0.40528  -0.39691  -0.38775  -0.37884  -0.37765
  Beta  occ. eigenvalues --   -0.35398  -0.34561  -0.33950  -0.33053  -0.32580
  Beta  occ. eigenvalues --   -0.32114  -0.31196  -0.29759  -0.29312  -0.28978
  Beta  occ. eigenvalues --   -0.27673  -0.27463  -0.27192  -0.25060  -0.24843
  Beta  occ. eigenvalues --   -0.23468  -0.22925  -0.21539  -0.17951  -0.16659
  Beta  occ. eigenvalues --   -0.16230  -0.13577  -0.11291
  Beta virt. eigenvalues --    0.05703   0.06232   0.06783   0.06919   0.07271
  Beta virt. eigenvalues --    0.07615   0.08026   0.08213   0.08358   0.08415
  Beta virt. eigenvalues --    0.09151   0.09230   0.09814   0.10478   0.10682

 Mulliken charges and spin densities:
               1          2
     1  C    0.380904  -0.776580
     2  C    0.395278  -0.055481
     3  C    0.307719   0.236674
     4  C   -0.333768   0.280884
     5  C   -0.366537   0.016562
     6  C    0.001992  -0.259602
     7  C   -0.474209   0.234722
     8  C   -0.414799   0.019678
     9  O   -0.128242   0.004572
    10  C    0.122949  -0.793899
    11  O   -0.028232   0.010095
    12  C    0.119366  -1.065762
    13  C    1.194515  -0.373359
    14  C   -1.400702   0.761707
    15  C   -0.054790  -0.167852
    16  C    0.793018  -1.305286
    17  C   -0.284808   0.138801
    18  C    0.437470  -0.024982
    19  N   -0.227063  -0.059324
    20  H   -0.212482   0.385779
    21  H    0.045954   0.150963
    22  H   -0.283686   0.540843
    23  H    0.091158   0.091482
    24  H    0.040713   0.116297
    25  H    0.092535   0.046784
    26  H    0.085748   0.078302
    27  H    0.074680   0.105630
    28  H    0.224397  -0.066280
    29  H    0.239537  -0.039148
    30  H    0.121848   0.043256
    31  H   -0.012526   0.144110
    32  H   -0.365984   0.539752
    33  H   -0.471577   0.643129
    34  H   -0.046795   0.234055
    35  H   -0.351996   0.602219
    36  H   -0.311585   0.561259
 Sum of Mulliken charges =  -1.00000   1.00000

 Dipole moment (field-independent basis, Debye):
    X=             10.1853    Y=              2.2349    Z=             -1.2554  Tot=             10.5030
 Quadrupole moment (field-independent basis, Debye-Ang):
   XX=           -256.6212   YY=           -146.2218   ZZ=           -146.9248
   XY=              6.6038   XZ=             16.2797   YZ=             -5.1440

 Summary of Natural Population Analysis:

                                       Natural Population
                Natural  -----------------------------------------------
    Atom  No    Charge         Core      Valence    Rydberg      Total
 -----------------------------------------------------------------------
      C    1   -0.00444      0.99957     1.99273    0.01214     3.00444
      C    2   -0.13862      0.99957     2.12693    0.01213     3.13862
      C    3   -0.03713      0.99945     2.02727    0.01041     3.03713
      C    4   -0.08621      0.99952     2.07807    0.00862     3.08621
      C    5   -0.12188      0.99957     2.11272    0.00959     3.12188
      C    6   -0.09175      0.99958     2.08265    0.00951     3.09175
      C    7   -0.12591      0.99952     2.11734    0.00905     3.12591
      C    8    0.15863      0.99932     1.82737    0.01468     2.84137
      O    9   -0.27654      0.99987     3.26876    0.00791     4.27654
      C   10   -0.00554      0.99954     1.99278    0.01322     3.00554
      O   11   -0.30411      0.99989     3.29547    0.00876     4.30411
      C   12   -0.01139      0.99953     2.00040    0.01146     3.01139
      C   13   -0.06298      0.99949     2.05439    0.00910     3.06298
      C   14   -0.09107      0.99952     2.08223    0.00933     3.09107
      C   15   -0.12441      0.99952     2.11450    0.01038     3.12441
      C   16    0.08804      0.99949     1.90084    0.01164     2.91196
      C   17   -0.12002      0.99952     2.11033    0.01018     3.12002
      C   18   -0.08718      0.99952     2.07826    0.00941     3.08718
      N   19   -0.39300      0.99972     2.88259    0.01069     3.89300
      H   20    0.08866      0.00000     0.40979    0.00155     0.41134
      H   21    0.09164      0.00000     0.40721    0.00115     0.40836
      H   22    0.11166      0.00000     0.38626    0.00208     0.38834
      H   23    0.10621      0.00000     0.39227    0.00152     0.39379
      H   24    0.09908      0.00000     0.40015    0.00077     0.40092
      H   25    0.09779      0.00000     0.40148    0.00073     0.40221
      H   26    0.10467      0.00000     0.39436    0.00097     0.39533
      H   27    0.08913      0.00000     0.40963    0.00124     0.41087
      H   28    0.08768      0.00000     0.41076    0.00156     0.41232
      H   29    0.08448      0.00000     0.41339    0.00212     0.41552
      H   30    0.09230      0.00000     0.40658    0.00113     0.40770
      H   31    0.09858      0.00000     0.40041    0.00101     0.40142
      H   32    0.10115      0.00000     0.39785    0.00100     0.39885
      H   33    0.10164      0.00000     0.39722    0.00114     0.39836
      H   34    0.10279      0.00000     0.39558    0.00163     0.39721
      H   35    0.18928      0.00000     0.30319    0.00753     0.31072
      H   36    0.18878      0.00000     0.30429    0.00693     0.31122
 =======================================================================
   * Total *   -0.00000     18.99172    48.77603    0.23226    68.00000

 Normal termination of Gaussian 16 at Mon Dec 14 20:02:47 2020.
