 Gaussian 16, Revision A.03,

 -----------------------------------------------------------
 # opt freq B3LYP/6-31G(d) empiricaldispersion=gd3bj scf=xqc
 -----------------------------------------------------------

 ------------------------------
 CID_10751444_JID_6912_neutraal
 ------------------------------
 Symbolic Z-matrix:
 Charge =  0 Multiplicity = 1

 SCF Done:  E(RB3LYP) =  -812.308287677     A.U. after   17 cycles
 SCF Done:  E(RB3LYP) =  -812.311165904     A.U. after   14 cycles
 SCF Done:  E(RB3LYP) =  -812.311348210     A.U. after   14 cycles
 SCF Done:  E(RB3LYP) =  -812.310368303     A.U. after   14 cycles
 SCF Done:  E(RB3LYP) =  -812.308286820     A.U. after   15 cycles
 SCF Done:  E(RB3LYP) =  -812.306864601     A.U. after   14 cycles
 SCF Done:  E(RB3LYP) =  -812.311652822     A.U. after   11 cycles
 SCF Done:  E(RB3LYP) =  -812.312154531     A.U. after   13 cycles
 SCF Done:  E(RB3LYP) =  -812.312162357     A.U. after   10 cycles
 SCF Done:  E(RB3LYP) =  -812.312165635     A.U. after   10 cycles
 SCF Done:  E(RB3LYP) =  -812.312200029     A.U. after   11 cycles
 SCF Done:  E(RB3LYP) =  -812.312214224     A.U. after   10 cycles
 SCF Done:  E(RB3LYP) =  -812.312241980     A.U. after   12 cycles
 SCF Done:  E(RB3LYP) =  -812.312244973     A.U. after   10 cycles
 SCF Done:  E(RB3LYP) =  -812.312245830     A.U. after   10 cycles
 SCF Done:  E(RB3LYP) =  -812.312245996     A.U. after    8 cycles
 Optimization completed.
    -- Stationary point found.
 Normal termination of Gaussian 16 at Fri Dec 11 00:19:09 2020.

 --------------------------------------------------------------------
 #N Geom=AllCheck Guess=TCheck SCRF=Check GenChk RB3LYP/6-31G(d) Freq
 --------------------------------------------------------------------

 Structure from the checkpoint file:  "JID_6912.chk"
 ------------------------------
 CID_10751444_JID_6912_neutraal
 ------------------------------
 Charge =  0 Multiplicity = 1

 SCF Done:  E(RB3LYP) =  -812.312245996     A.U. after    1 cycles

  Exact polarizability: 206.862 -10.101 149.422  -0.008   0.004  49.997
 Approx polarizability: 375.914 -22.415 249.894  -0.035   0.013  78.608

                      1                      2                      3
                      A                      A                      A
 Frequencies --     41.5530                51.9133                65.7382
 Red. masses --      1.1747                 5.3462                 9.8332
 Frc consts  --      0.0012                 0.0085                 0.0250
 IR Inten    --      0.3126                 0.5753                 0.0883

                      4                      5                      6
                      A                      A                      A
 Frequencies --     88.1280               145.2503               183.7854
 Red. masses --      7.0380                 7.2635                 4.3251
 Frc consts  --      0.0322                 0.0903                 0.0861
 IR Inten    --      2.1034                 1.1128                 0.3041

                      7                      8                      9
                      A                      A                      A
 Frequencies --    198.1927               235.2801               247.6399
 Red. masses --     11.3678                 3.4911                 4.5826
 Frc consts  --      0.2631                 0.1139                 0.1656
 IR Inten    --      4.3188                 0.3080                 1.1442

                     10                     11                     12
                      A                      A                      A
 Frequencies --    348.4431               355.2492               376.2665
 Red. masses --     12.7570                11.8305                 5.2044
 Frc consts  --      0.9126                 0.8797                 0.4341
 IR Inten    --      2.3381                 4.9958                 0.2744

                     13                     14                     15
                      A                      A                      A
 Frequencies --    387.9501               430.3934               431.8710
 Red. masses --     10.4873                 5.2707                 3.8061
 Frc consts  --      0.9300                 0.5752                 0.4183
 IR Inten    --      0.5485                 3.3642                 0.6296

                     16                     17                     18
                      A                      A                      A
 Frequencies --    442.1425               502.8626               543.6557
 Red. masses --      7.3325                 5.4476                 6.5427
 Frc consts  --      0.8446                 0.8116                 1.1393
 IR Inten    --      1.4793                 1.6430                 0.1140

                     19                     20                     21
                      A                      A                      A
 Frequencies --    586.1756               588.9641               631.0558
 Red. masses --      3.3303                 8.0025                 6.7674
 Frc consts  --      0.6742                 1.6355                 1.5878
 IR Inten    --      1.3976                 4.3282                 2.5329

                     22                     23                     24
                      A                      A                      A
 Frequencies --    660.8935               708.5279               723.0822
 Red. masses --      1.3329                 6.2797                 5.4266
 Frc consts  --      0.3430                 1.8574                 1.6717
 IR Inten    --     86.8626                 2.2409                11.4223

                     25                     26                     27
                      A                      A                      A
 Frequencies --    756.6439               770.9072               781.2223
 Red. masses --      7.2297                 7.2447                 4.0939
 Frc consts  --      2.4387                 2.5367                 1.4721
 IR Inten    --     30.7382                13.2667                32.6811

                     28                     29                     30
                      A                      A                      A
 Frequencies --    798.5681               812.4236               878.8069
 Red. masses --      1.4335                 9.4443                 1.3828
 Frc consts  --      0.5386                 3.6727                 0.6292
 IR Inten    --     73.6376                20.8348                23.4510

                     31                     32                     33
                      A                      A                      A
 Frequencies --    901.9876               916.3279               975.6131
 Red. masses --      4.0128                 1.3772                 7.3752
 Frc consts  --      1.9235                 0.6813                 4.1360
 IR Inten    --      6.4923                 0.1840                29.5767

                     34                     35                     36
                      A                      A                      A
 Frequencies --   1035.3048              1057.9673              1078.5748
 Red. masses --      1.8494                 2.5028                 1.4886
 Frc consts  --      1.1679                 1.6505                 1.0203
 IR Inten    --      7.5018                 3.1340                 4.6311

                     37                     38                     39
                      A                      A                      A
 Frequencies --   1193.5342              1219.0416              1229.9861
 Red. masses --      1.5373                 4.0167                 2.0040
 Frc consts  --      1.2903                 3.5169                 1.7863
 IR Inten    --     22.3020                10.9261                39.3005

                     40                     41                     42
                      A                      A                      A
 Frequencies --   1300.7359              1320.3207              1350.1641
 Red. masses --      2.1304                 4.7274                 5.4283
 Frc consts  --      2.1237                 4.8555                 5.8303
 IR Inten    --     22.1545                38.2073               467.9212

                     43                     44                     45
                      A                      A                      A
 Frequencies --   1376.5010              1395.2616              1415.0917
 Red. masses --      4.8023                 6.1297                 2.3661
 Frc consts  --      5.3611                 7.0307                 2.7916
 IR Inten    --     45.2201               220.9412                46.1335

                     46                     47                     48
                      A                      A                      A
 Frequencies --   1447.1646              1471.3432              1514.4984
 Red. masses --      1.2449                 2.6071                 1.0433
 Frc consts  --      1.5361                 3.3253                 1.4099
 IR Inten    --      1.9885               114.6582                 7.5647

                     49                     50                     51
                      A                      A                      A
 Frequencies --   1517.5825              1529.7013              1566.1928
 Red. masses --      1.9441                 1.6239                 3.4973
 Frc consts  --      2.6380                 2.2388                 5.0544
 IR Inten    --     24.0025                12.0847                85.2639

                     52                     53                     54
                      A                      A                      A
 Frequencies --   1628.3267              1641.8342              1687.5426
 Red. masses --      9.3773                 5.1798                 7.1057
 Frc consts  --     14.6491                 8.2266                11.9224
 IR Inten    --    274.3415                 2.3508                12.4425

                     55                     56                     57
                      A                      A                      A
 Frequencies --   1823.2989              1828.7562              3051.6433
 Red. masses --     10.8383                 9.9632                 1.0379
 Frc consts  --     21.2289                19.6318                 5.6950
 IR Inten    --    360.5513               659.8717                27.3966

                     58                     59                     60
                      A                      A                      A
 Frequencies --   3105.0461              3141.6359              3184.3512
 Red. masses --      1.1013                 1.1008                 1.0907
 Frc consts  --      6.2561                 6.4011                 6.5163
 IR Inten    --     14.3898                10.2701                 7.5887

                     61                     62                     63
                      A                      A                      A
 Frequencies --   3255.8202              3524.6123              3580.2339
 Red. masses --      1.0907                 1.0767                 1.0767
 Frc consts  --      6.8118                 7.8807                 8.1316
 IR Inten    --      4.5854               140.4598                32.5580

 - Thermochemistry -
 -------------------
 Temperature   298.150 Kelvin.  Pressure   1.00000 Atm.
 Atom     1 has atomic number  6 and mass  12.00000

 Molecular mass:   221.04366 amu.
 Principal axes and moments of inertia in atomic units:
                           1         2         3
     Eigenvalues --  2316.895314092.713776398.38748
           X            0.99830  -0.05833   0.00000
           Y            0.05833   0.99830  -0.00000
           Z           -0.00000   0.00000   1.00000
 This molecule is an asymmetric top.
 Rotational symmetry number  1.
 Warning -- assumption of classical behavior for rotation
           may cause significant error
 Rotational temperatures (Kelvin)      0.03738     0.02116     0.01354
 Rotational constants (GHZ):           0.77895     0.44096     0.28206
 Zero-point vibrational energy     430892.4 (Joules/Mol)
                                  102.98575 (Kcal/Mol)
 Warning -- explicit consideration of  20 degrees of freedom as
           vibrations may cause significant error
 Vibrational temperatures:     59.79    74.69    94.58   126.80   208.98
          (Kelvin)            264.43   285.16   338.52   356.30   501.33
                              511.12   541.36   558.17   619.24   621.37
                              636.14   723.51   782.20   843.38   847.39
                              907.95   950.88  1019.41  1040.35  1088.64
                             1109.16  1124.00  1148.96  1168.90  1264.41
                             1297.76  1318.39  1403.69  1489.57  1522.18
                             1551.83  1717.23  1753.93  1769.68  1871.47
                             1899.65  1942.58  1980.48  2007.47  2036.00
                             2082.15  2116.93  2179.03  2183.46  2200.90
                             2253.40  2342.80  2362.23  2428.00  2623.32
                             2631.17  4390.63  4467.47  4520.11  4581.57
                             4684.40  5071.13  5151.16

 Zero-point correction=                           0.164118 (Hartree/Particle)
 Thermal correction to Energy=                    0.177282
 Thermal correction to Enthalpy=                  0.178226
 Thermal correction to Gibbs Free Energy=         0.123204
 Sum of electronic and zero-point Energies=           -812.148128
 Sum of electronic and thermal Energies=              -812.134964
 Sum of electronic and thermal Enthalpies=            -812.134020
 Sum of electronic and thermal Free Energies=         -812.189042

                     E (Thermal)             CV                S
                      KCal/Mol        Cal/Mol-Kelvin    Cal/Mol-Kelvin
 Total                  111.246             49.538            115.804
 Electronic               0.000              0.000              0.000
 Translational            0.889              2.981             42.082
 Rotational               0.889              2.981             32.473
 Vibrational            109.469             43.577             41.249
 Vibration     1          0.594              1.981              5.184
 Vibration     2          0.596              1.977              4.743
 Vibration     3          0.597              1.971              4.277
 Vibration     4          0.601              1.958              3.701
 Vibration     5          0.617              1.908              2.734
 Vibration     6          0.631              1.862              2.290
 Vibration     7          0.637              1.842              2.150
 Vibration     8          0.655              1.787              1.838
 Vibration     9          0.661              1.767              1.747
 Vibration    10          0.726              1.578              1.173
 Vibration    11          0.731              1.564              1.143
 Vibration    12          0.747              1.521              1.054
 Vibration    13          0.756              1.496              1.008
 Vibration    14          0.792              1.404              0.857
 Vibration    15          0.793              1.401              0.853
 Vibration    16          0.802              1.378              0.820
 Vibration    17          0.858              1.244              0.651
 Vibration    18          0.899              1.154              0.557
 Vibration    19          0.943              1.061              0.474
 Vibration    20          0.946              1.055              0.469

                           ! Non-Optimized Parameters !
 Normal termination of Gaussian 16 at Fri Dec 11 00:26:10 2020.

 ----------------------------------------------------------------------
 # B3LYP/6-311++G(d,p) empiricaldispersion=gd3bj scf=xqc pop=npa geom=c
 heck
 ----------------------------------------------------------------------

 --------------------------------------
 CID_10751444_JID_6912_Energie_neutraal
 --------------------------------------
 Structure from the checkpoint file:  "JID_6912.chk"
 Charge =  0 Multiplicity = 1

 SCF Done:  E(RB3LYP) =  -812.544503044     A.U. after   15 cycles
 Normal termination of Gaussian 16 at Fri Dec 11 00:28:28 2020.

 ----------------------------------------------------------------------
 # B3LYP/6-311++G(d,p) empiricaldispersion=gd3bj scf=xqc pop=npa geom=c
 heck
 ----------------------------------------------------------------------

 ------------------------------------
 CID_10751444_JID_6912_Energie_kation
 ------------------------------------
 Structure from the checkpoint file:  "JID_6912.chk"
 Charge =  1 Multiplicity = 2

 SCF Done:  E(UB3LYP) =  -812.224859681     A.U. after   26 cycles
 Normal termination of Gaussian 16 at Fri Dec 11 00:33:50 2020.
 Gaussian 16:  ES64L-G16RevA.03 25-Dec-2016

 ----------------------------------------------------------------------
 # B3LYP/6-311++G(d,p) empiricaldispersion=gd3bj scf=xqc pop=npa geom=c
 heck
 ----------------------------------------------------------------------

 -----------------------------------
 CID_10751444_JID_6912_Energie_anion
 -----------------------------------
 Structure from the checkpoint file:  "JID_6912.chk"
 Charge = -1 Multiplicity = 2

                         Standard orientation:
 ---------------------------------------------------------------------
 Center     Atomic      Atomic             Coordinates (Angstroms)
 Number     Number       Type             X           Y           Z
 ---------------------------------------------------------------------
      1          6           0        3.236372   -2.634774    0.000128
      2          6           0        2.105663   -1.637214    0.000113
      3          6           0        0.773440   -2.071173    0.000117
      4          6           0       -0.284426   -1.169153    0.000152
      5          6           0       -0.052535    0.226053    0.000211
      6          6           0        1.293058    0.649019    0.000067
      7          6           0        2.348170   -0.269139    0.000042
      8          7           0        1.651393    2.064516   -0.000112
      9          8           0        0.742255    2.910153    0.000983
     10          8           0        2.842500    2.359781   -0.001288
     11          7           0       -1.146522    1.066978    0.000320
     12          6           0       -2.479251    0.686605    0.000007
     13          8           0       -3.382070    1.495087    0.000003
     14          6           0       -2.740911   -0.819317   -0.000225
     15          8           0       -3.860090   -1.286706   -0.000654
     16          7           0       -1.605519   -1.608217    0.000176
     17          1           0        3.192241   -3.284786    0.881957
     18          1           0        4.206514   -2.131042    0.002225
     19          1           0        3.194598   -3.282098   -0.883786
     20          1           0        0.552070   -3.135905    0.000121
     21          1           0        3.357690    0.119847   -0.000078
     22          1           0       -0.950157    2.065249    0.000781
     23          1           0       -1.786663   -2.606176    0.000079
 ---------------------------------------------------------------------

 SCF Done:  E(UB3LYP) =  -812.610528429     A.U. after   21 cycles

 The electronic state is 2-A.
 Alpha  occ. eigenvalues --  -18.99384 -18.98152 -18.97592 -18.97397 -14.35632
 Alpha  occ. eigenvalues --  -14.26538 -14.24479 -10.17622 -10.16580 -10.12081
 Alpha  occ. eigenvalues --  -10.11897 -10.09523 -10.07915 -10.07722 -10.06354
 Alpha  occ. eigenvalues --  -10.05443  -1.05588  -0.95916  -0.92750  -0.88430
 Alpha  occ. eigenvalues --   -0.87066  -0.82291  -0.75269  -0.68170  -0.66090
 Alpha  occ. eigenvalues --   -0.59859  -0.58648  -0.56795  -0.53353  -0.48038
 Alpha  occ. eigenvalues --   -0.45175  -0.44117  -0.41630  -0.40577  -0.38051
 Alpha  occ. eigenvalues --   -0.37864  -0.36640  -0.35980  -0.34328  -0.33558
 Alpha  occ. eigenvalues --   -0.33063  -0.32547  -0.31098  -0.29276  -0.29212
 Alpha  occ. eigenvalues --   -0.28184  -0.27154  -0.26224  -0.21176  -0.20522
 Alpha  occ. eigenvalues --   -0.18215  -0.16461  -0.15683  -0.14844  -0.13891
 Alpha  occ. eigenvalues --   -0.13176  -0.10915  -0.00337
 Alpha virt. eigenvalues --    0.05994   0.06737   0.08265   0.09355   0.10433
 Alpha virt. eigenvalues --    0.10635   0.11764   0.12129   0.12212   0.13991
 Alpha virt. eigenvalues --    0.15215   0.15294   0.15369   0.16319   0.17075

  Beta  occ. eigenvalues --  -18.99299 -18.97970 -18.97166 -18.96929 -14.35061
  Beta  occ. eigenvalues --  -14.26566 -14.24556 -10.17580 -10.16500 -10.12137
  Beta  occ. eigenvalues --  -10.11772 -10.09469 -10.07912 -10.07801 -10.06078
  Beta  occ. eigenvalues --  -10.05269  -1.04625  -0.95754  -0.92522  -0.87699
  Beta  occ. eigenvalues --   -0.86906  -0.82279  -0.75046  -0.67886  -0.65782
  Beta  occ. eigenvalues --   -0.59652  -0.58462  -0.55995  -0.53170  -0.47824
  Beta  occ. eigenvalues --   -0.44886  -0.44067  -0.41500  -0.40296  -0.37471
  Beta  occ. eigenvalues --   -0.36336  -0.36330  -0.34661  -0.34142  -0.33172
  Beta  occ. eigenvalues --   -0.33001  -0.32373  -0.30946  -0.29198  -0.28936
  Beta  occ. eigenvalues --   -0.27567  -0.27062  -0.26089  -0.20672  -0.19843
  Beta  occ. eigenvalues --   -0.18099  -0.15367  -0.14574  -0.13516  -0.12751
  Beta  occ. eigenvalues --   -0.12551  -0.10345
  Beta virt. eigenvalues --    0.05339   0.06710   0.07792   0.08237   0.09660
  Beta virt. eigenvalues --    0.10617   0.10980   0.11765   0.12210   0.13802
  Beta virt. eigenvalues --    0.13979   0.15229   0.15371   0.15517   0.16295

 Mulliken charges and spin densities:
               1          2
     1  C   -0.399536   0.010991
     2  C    0.661453  -0.064375
     3  C   -0.553645   0.239081
     4  C    0.515597  -0.053991
     5  C   -0.082481   0.078802
     6  C   -0.130749   0.018371
     7  C   -0.896403   0.140675
     8  N   -0.345942   0.181026
     9  O   -0.186374   0.163665
    10  O   -0.137399   0.180633
    11  N   -0.205641  -0.032029
    12  C    0.144660   0.044459
    13  O   -0.356484   0.066057
    14  C    0.142559   0.033704
    15  O   -0.357920   0.029831
    16  N   -0.245397  -0.009177
    17  H    0.138789   0.001319
    18  H    0.140557  -0.000600
    19  H    0.139054   0.001290
    20  H    0.090928  -0.018649
    21  H    0.213508  -0.010741
    22  H    0.391959  -0.000556
    23  H    0.318909   0.000214
 Sum of Mulliken charges =  -1.00000   1.00000

 Dipole moment (field-independent basis, Debye):
    X=              2.8542    Y=             -8.2179    Z=              0.0017  Tot=              8.6994
 Quadrupole moment (field-independent basis, Debye-Ang):
   XX=           -152.1985   YY=           -120.7997   ZZ=            -95.4225
   XY=            -11.0842   XZ=              0.0014   YZ=              0.0002

 Summary of Natural Population Analysis:

                                       Natural Population
                Natural  -----------------------------------------------
    Atom  No    Charge         Core      Valence    Rydberg      Total
 -----------------------------------------------------------------------
      C    1   -0.28294      0.99958     2.27858    0.00478     3.28294
      C    2   -0.04736      0.99955     2.04021    0.00761     3.04736
      C    3   -0.05196      0.99942     2.04457    0.00797     3.05196
      C    4    0.05199      0.99950     1.93918    0.00933     2.94801
      C    5    0.09747      0.99938     1.89253    0.01061     2.90253
      C    6    0.04681      0.99934     1.94250    0.01135     2.95319
      C    7   -0.06738      0.99951     2.05812    0.00975     3.06738
      N    8    0.30237      0.99972     2.17107    0.02684     3.19763
      O    9   -0.21116      0.99989     3.20288    0.00839     4.21116
      O   10   -0.17925      0.99990     3.17138    0.00798     4.17925
      N   11   -0.30552      0.99964     2.79777    0.00812     3.80552
      C   12    0.30318      0.99967     1.67505    0.02210     2.69682
      O   13   -0.27767      0.99987     3.27045    0.00734     4.27767
      C   14    0.29986      0.99967     1.67656    0.02391     2.70014
      O   15   -0.29653      0.99987     3.28956    0.00709     4.29653
      N   16   -0.29702      0.99965     2.78901    0.00836     3.79702
      H   17    0.09659      0.00000     0.40202    0.00138     0.40341
      H   18    0.10013      0.00000     0.39867    0.00120     0.39987
      H   19    0.09660      0.00000     0.40201    0.00138     0.40340
      H   20    0.08818      0.00000     0.40997    0.00185     0.41182
      H   21    0.11439      0.00000     0.38422    0.00139     0.38561
      H   22    0.22535      0.00000     0.27206    0.00260     0.27465
      H   23    0.19388      0.00000     0.30317    0.00295     0.30612
 =======================================================================
   * Total *    0.00002     15.99415    40.81154    0.19428    56.99998

 Normal termination of Gaussian 16 at Fri Dec 11 00:38:15 2020.
