 Gaussian 16, Revision A.03,

 -----------------------------------------------------------
 # opt freq B3LYP/6-31G(d) empiricaldispersion=gd3bj scf=xqc
 -----------------------------------------------------------

 ------------------------------
 CID_80814089_JID_9195_neutraal
 ------------------------------
 Symbolic Z-matrix:
 Charge =  0 Multiplicity = 1

 SCF Done:  E(RB3LYP) =  -874.365383308     A.U. after   15 cycles
 SCF Done:  E(RB3LYP) =  -874.374465760     A.U. after   13 cycles
 SCF Done:  E(RB3LYP) =  -874.378509957     A.U. after   13 cycles
 SCF Done:  E(RB3LYP) =  -874.380123129     A.U. after   15 cycles
 SCF Done:  E(RB3LYP) =  -874.381876374     A.U. after   13 cycles
 SCF Done:  E(RB3LYP) =  -874.382837594     A.U. after   12 cycles
 SCF Done:  E(RB3LYP) =  -874.383421545     A.U. after   12 cycles
 SCF Done:  E(RB3LYP) =  -874.383558457     A.U. after   12 cycles
 SCF Done:  E(RB3LYP) =  -874.383652842     A.U. after   11 cycles
 SCF Done:  E(RB3LYP) =  -874.383695564     A.U. after   10 cycles
 SCF Done:  E(RB3LYP) =  -874.383826527     A.U. after    8 cycles
 SCF Done:  E(RB3LYP) =  -874.383826952     A.U. after    8 cycles
 SCF Done:  E(RB3LYP) =  -874.383826999     A.U. after    7 cycles
 SCF Done:  E(RB3LYP) =  -874.383827035     A.U. after    7 cycles
 SCF Done:  E(RB3LYP) =  -874.383827047     A.U. after    6 cycles
 SCF Done:  E(RB3LYP) =  -874.383827054     A.U. after    6 cycles
 Optimization completed.
    -- Stationary point found.
 Normal termination of Gaussian 16 at Mon Dec 14 13:50:47 2020.

 --------------------------------------------------------------------
 #N Geom=AllCheck Guess=TCheck SCRF=Check GenChk RB3LYP/6-31G(d) Freq
 --------------------------------------------------------------------

 Structure from the checkpoint file:  "JID_9195.chk"
 ------------------------------
 CID_80814089_JID_9195_neutraal
 ------------------------------
 Charge =  0 Multiplicity = 1

 SCF Done:  E(RB3LYP) =  -874.383827054     A.U. after    1 cycles

  Exact polarizability: 191.469   3.291 184.544  26.059  -4.710 130.574
 Approx polarizability: 252.265  -3.573 284.391  62.109 -13.415 211.486

                      1                      2                      3
                      A                      A                      A
 Frequencies --     11.3912                23.2537                40.0630
 Red. masses --      4.6132                 4.3103                 3.8007
 Frc consts  --      0.0004                 0.0014                 0.0036
 IR Inten    --      0.5188                 0.4788                 0.5808

                      4                      5                      6
                      A                      A                      A
 Frequencies --     42.0189                59.5077                63.3366
 Red. masses --      3.5529                 6.2334                 3.3297
 Frc consts  --      0.0037                 0.0130                 0.0079
 IR Inten    --      0.7911                 5.0923                 1.2963

                      7                      8                      9
                      A                      A                      A
 Frequencies --     95.6333               109.2720               110.5833
 Red. masses --      2.6204                 1.4442                 1.7644
 Frc consts  --      0.0141                 0.0102                 0.0127
 IR Inten    --      1.4161                 0.0833                 2.3858

                     10                     11                     12
                      A                      A                      A
 Frequencies --    136.8932               163.4089               186.2978
 Red. masses --      1.4277                 2.2381                 4.3990
 Frc consts  --      0.0158                 0.0352                 0.0900
 IR Inten    --      0.4769                 1.2827                 3.5802

                     13                     14                     15
                      A                      A                      A
 Frequencies --    204.1049               205.2073               221.4636
 Red. masses --      3.4908                 2.4894                 3.9525
 Frc consts  --      0.0857                 0.0618                 0.1142
 IR Inten    --      1.7905                 2.2999                 4.5861

                     16                     17                     18
                      A                      A                      A
 Frequencies --    256.2092               263.7321               285.2662
 Red. masses --      1.6133                 2.2043                 3.4311
 Frc consts  --      0.0624                 0.0903                 0.1645
 IR Inten    --      3.8401                 5.5144                 7.9782

                     19                     20                     21
                      A                      A                      A
 Frequencies --    309.8814               354.9432               357.3909
 Red. masses --      3.0641                 2.9413                 2.1910
 Frc consts  --      0.1734                 0.2183                 0.1649
 IR Inten    --      2.9683                 8.0640                 0.0864

                     22                     23                     24
                      A                      A                      A
 Frequencies --    410.9676               426.9758               448.7661
 Red. masses --      2.3483                 2.4875                 2.5194
 Frc consts  --      0.2337                 0.2672                 0.2989
 IR Inten    --      0.9595                 1.1802                 7.0414

                     25                     26                     27
                      A                      A                      A
 Frequencies --    467.3493               486.2149               499.6763
 Red. masses --      1.5641                 2.3232                 1.4687
 Frc consts  --      0.2013                 0.3236                 0.2161
 IR Inten    --      4.6260                11.5868               162.7433

                     28                     29                     30
                      A                      A                      A
 Frequencies --    510.6770               519.0669               535.4102
 Red. masses --      2.1747                 1.8735                 2.9734
 Frc consts  --      0.3341                 0.2974                 0.5022
 IR Inten    --     44.6369               202.7038                24.3363

                     31                     32                     33
                      A                      A                      A
 Frequencies --    556.2945               587.4399               614.5312
 Red. masses --      2.7425                 4.5739                 2.4609
 Frc consts  --      0.5001                 0.9300                 0.5476
 IR Inten    --     53.4681                 4.7156                20.9679

                     34                     35                     36
                      A                      A                      A
 Frequencies --    666.9502               681.6512               701.8269
 Red. masses --      2.6955                 3.1321                 2.1691
 Frc consts  --      0.7064                 0.8575                 0.6295
 IR Inten    --     46.7514                 3.1562                31.7743

                     37                     38                     39
                      A                      A                      A
 Frequencies --    710.9234               737.2901               765.0113
 Red. masses --      5.3946                 1.6104                 2.1440
 Frc consts  --      1.6064                 0.5158                 0.7393
 IR Inten    --      7.2781                71.4388                 5.2281

                     40                     41                     42
                      A                      A                      A
 Frequencies --    772.1938               788.0186               808.1818
 Red. masses --      2.4409                 1.4415                 7.7870
 Frc consts  --      0.8575                 0.5274                 2.9967
 IR Inten    --     20.3624                24.0966                63.4977

                     43                     44                     45
                      A                      A                      A
 Frequencies --    869.2203               882.8951               912.2778
 Red. masses --      2.8095                 2.4794                 1.4176
 Frc consts  --      1.2506                 1.1387                 0.6951
 IR Inten    --      7.7718                11.0842                 1.3841

                     46                     47                     48
                      A                      A                      A
 Frequencies --    937.6251               990.9328               999.2214
 Red. masses --      3.0177                 5.2166                 2.3556
 Frc consts  --      1.5631                 3.0180                 1.3857
 IR Inten    --      8.4523                 1.9749                 2.9324

                     49                     50                     51
                      A                      A                      A
 Frequencies --   1008.4126              1023.0633              1058.4295
 Red. masses --      2.3190                 2.2105                 3.0480
 Frc consts  --      1.3894                 1.3632                 2.0118
 IR Inten    --     11.3346                 6.5006                 4.1853

                     52                     53                     54
                      A                      A                      A
 Frequencies --   1074.5419              1089.0563              1094.3010
 Red. masses --      1.8771                 1.3808                 2.2756
 Frc consts  --      1.2770                 0.9649                 1.6055
 IR Inten    --      5.5936                 4.7520                12.3952

                     55                     56                     57
                      A                      A                      A
 Frequencies --   1122.8986              1139.1691              1158.4603
 Red. masses --      1.9832                 1.2256                 1.7246
 Frc consts  --      1.4733                 0.9371                 1.3636
 IR Inten    --     14.3823                 1.7013                23.8465

                     58                     59                     60
                      A                      A                      A
 Frequencies --   1172.6358              1185.0489              1189.4812
 Red. masses --      1.7756                 1.7219                 1.6892
 Frc consts  --      1.4385                 1.4247                 1.4081
 IR Inten    --     84.4475                10.6181                 6.7984

                     61                     62                     63
                      A                      A                      A
 Frequencies --   1202.5813              1235.6153              1264.7544
 Red. masses --      2.2839                 1.3779                 1.6728
 Frc consts  --      1.9460                 1.2395                 1.5765
 IR Inten    --      9.7049                11.1527               123.2170

                     64                     65                     66
                      A                      A                      A
 Frequencies --   1278.0456              1285.1065              1293.6571
 Red. masses --      1.6028                 4.2878                 1.5680
 Frc consts  --      1.5425                 4.1722                 1.5461
 IR Inten    --     18.0453                43.6150                 5.7787

                     67                     68                     69
                      A                      A                      A
 Frequencies --   1319.6679              1346.0954              1369.1059
 Red. masses --      1.2267                 2.7383                 1.4675
 Frc consts  --      1.2586                 2.9234                 1.6207
 IR Inten    --     15.4314                16.3890                 1.1882

                     70                     71                     72
                      A                      A                      A
 Frequencies --   1392.7735              1397.2678              1410.4170
 Red. masses --      1.3789                 1.3375                 1.3315
 Frc consts  --      1.5760                 1.5385                 1.5606
 IR Inten    --     28.7752                28.7157                38.1840

                     73                     74                     75
                      A                      A                      A
 Frequencies --   1434.0904              1443.9982              1446.0934
 Red. masses --      1.7798                 1.3325                 1.3781
 Frc consts  --      2.1566                 1.6370                 1.6980
 IR Inten    --      6.4502                25.7752                29.9328

                     76                     77                     78
                      A                      A                      A
 Frequencies --   1455.8068              1463.0729              1482.1998
 Red. masses --      1.6019                 1.8296                 3.0077
 Frc consts  --      2.0003                 2.3074                 3.8932
 IR Inten    --     48.2815                28.0155               297.0235

                     79                     80                     81
                      A                      A                      A
 Frequencies --   1496.6328              1510.3573              1514.9139
 Red. masses --      1.2632                 1.0599                 1.0756
 Frc consts  --      1.6670                 1.4246                 1.4544
 IR Inten    --     18.1488                10.7825                 3.2504

                     82                     83                     84
                      A                      A                      A
 Frequencies --   1515.6570              1518.9396              1521.9441
 Red. masses --      1.1175                 1.1616                 1.1217
 Frc consts  --      1.5126                 1.5791                 1.5308
 IR Inten    --     30.0231                24.8530                24.2437

                     85                     86                     87
                      A                      A                      A
 Frequencies --   1531.6928              1532.3189              1538.1865
 Red. masses --      1.0826                 1.0649                 1.0702
 Frc consts  --      1.4965                 1.4732                 1.4919
 IR Inten    --     12.9054                11.6859                14.9396

                     88                     89                     90
                      A                      A                      A
 Frequencies --   1539.9410              1568.7860              1569.6169
 Red. masses --      1.0563                 2.1896                 1.3536
 Frc consts  --      1.4758                 3.1750                 1.9648
 IR Inten    --      6.7425               113.5449                69.7337

                     91                     92                     93
                      A                      A                      A
 Frequencies --   1579.0759              1636.9451              1644.5427
 Red. masses --      2.6480                 3.8053                 5.5946
 Frc consts  --      3.8902                 6.0077                 8.9147
 IR Inten    --    187.3745               334.5328               747.0602

                     94                     95                     96
                      A                      A                      A
 Frequencies --   1664.0662              1737.8445              3035.2295
 Red. masses --      1.5524                 8.8795                 1.0416
 Frc consts  --      2.5328                15.8002                 5.6538
 IR Inten    --    314.0605               293.6334                24.9661

                     97                     98                     99
                      A                      A                      A
 Frequencies --   3042.1753              3042.8545              3044.6129
 Red. masses --      1.0442                 1.0595                 1.0421
 Frc consts  --      5.6936                 5.7797                 5.6914
 IR Inten    --     68.9023                15.0519                31.1090

                    100                    101                    102
                      A                      A                      A
 Frequencies --   3055.1173              3077.4762              3081.2047
 Red. masses --      1.0606                 1.0665                 1.1007
 Frc consts  --      5.8327                 5.9511                 6.1571
 IR Inten    --     44.8034                26.4694                 8.8591

                    103                    104                    105
                      A                      A                      A
 Frequencies --   3088.0683              3089.1783              3094.0470
 Red. masses --      1.1032                 1.0691                 1.1002
 Frc consts  --      6.1983                 6.0111                 6.2053
 IR Inten    --     48.2085                27.8257                 9.9010

                    106                    107                    108
                      A                      A                      A
 Frequencies --   3096.6846              3113.6328              3123.5437
 Red. masses --      1.1028                 1.1008                 1.1022
 Frc consts  --      6.2309                 6.2878                 6.3360
 IR Inten    --     24.9729                64.9648                37.5722

                    109                    110                    111
                      A                      A                      A
 Frequencies --   3142.9353              3163.3334              3199.0297
 Red. masses --      1.0982                 1.0974                 1.0963
 Frc consts  --      6.3916                 6.4697                 6.6103
 IR Inten    --      1.4445                27.4540                 1.3163

                    112                    113                    114
                      A                      A                      A
 Frequencies --   3217.9767              3250.6046              3574.5489
 Red. masses --      1.0913                 1.0903                 1.0751
 Frc consts  --      6.6585                 6.7875                 8.0939
 IR Inten    --     11.6314                 5.6775                26.5028

                    115                    116                    117
                      A                      A                      A
 Frequencies --   3587.6935              3611.7153              3707.3701
 Red. masses --      1.0459                 1.0759                 1.1019
 Frc consts  --      7.9315                 8.2688                 8.9229
 IR Inten    --     45.2918                29.3280                26.7398

 - Thermochemistry -
 -------------------
 Temperature   298.150 Kelvin.  Pressure   1.00000 Atm.
 Atom     1 has atomic number  6 and mass  12.00000

 Molecular mass:   266.18551 amu.
 Principal axes and moments of inertia in atomic units:
                           1         2         3
     Eigenvalues --  3064.642927996.633129288.71046
           X            0.99973   0.02279  -0.00469
           Y           -0.02282   0.99972  -0.00686
           Z            0.00453   0.00696   0.99997
 This molecule is an asymmetric top.
 Rotational symmetry number  1.
 Warning -- assumption of classical behavior for rotation
           may cause significant error
 Rotational temperatures (Kelvin)      0.02826     0.01083     0.00932
 Rotational constants (GHZ):           0.58889     0.22569     0.19429
 Zero-point vibrational energy     937177.2 (Joules/Mol)
                                  223.99072 (Kcal/Mol)
 Warning -- explicit consideration of  33 degrees of freedom as
           vibrations may cause significant error
 Vibrational temperatures:     16.39    33.46    57.64    60.46    85.62
          (Kelvin)             91.13   137.60   157.22   159.10   196.96
                              235.11   268.04   293.66   295.25   318.64
                              368.63   379.45   410.43   445.85   510.68
                              514.21   591.29   614.32   645.67   672.41
                              699.55   718.92   734.75   746.82   770.34
                              800.38   845.19   884.17   959.59   980.74
                             1009.77  1022.86  1060.80  1100.68  1111.01
                             1133.78  1162.79  1250.61  1270.29  1312.56
                             1349.03  1425.73  1437.66  1450.88  1471.96
                             1522.84  1546.03  1566.91  1574.46  1615.60
                             1639.01  1666.77  1687.16  1705.02  1711.40
                             1730.25  1777.77  1819.70  1838.82  1848.98
                             1861.28  1898.71  1936.73  1969.84  2003.89
                             2010.36  2029.28  2063.34  2077.59  2080.61
                             2094.58  2105.04  2132.55  2153.32  2173.07
                             2179.62  2180.69  2185.42  2189.74  2203.76
                             2204.67  2213.11  2215.63  2257.13  2258.33
                             2271.94  2355.20  2366.13  2394.22  2500.37
                             4367.02  4377.01  4377.99  4380.52  4395.63
                             4427.80  4433.17  4443.04  4444.64  4451.64
                             4455.44  4479.82  4494.08  4521.98  4551.33
                             4602.69  4629.95  4676.89  5142.98  5161.89
                             5196.45  5334.08

 Zero-point correction=                           0.356952 (Hartree/Particle)
 Thermal correction to Energy=                    0.377510
 Thermal correction to Enthalpy=                  0.378454
 Thermal correction to Gibbs Free Energy=         0.305064
 Sum of electronic and zero-point Energies=           -874.026875
 Sum of electronic and thermal Energies=              -874.006317
 Sum of electronic and thermal Enthalpies=            -874.005373
 Sum of electronic and thermal Free Energies=         -874.078763

                     E (Thermal)             CV                S
                      KCal/Mol        Cal/Mol-Kelvin    Cal/Mol-Kelvin
 Total                  236.891             75.876            154.463
 Electronic               0.000              0.000              0.000
 Translational            0.889              2.981             42.636
 Rotational               0.889              2.981             33.787
 Vibrational            235.114             69.914             78.040
 Vibration     1          0.593              1.987              7.752
 Vibration     2          0.593              1.985              6.335
 Vibration     3          0.594              1.981              5.256
 Vibration     4          0.595              1.980              5.162
 Vibration     5          0.597              1.974              4.473
 Vibration     6          0.597              1.972              4.350
 Vibration     7          0.603              1.952              3.541
 Vibration     8          0.606              1.942              3.282
 Vibration     9          0.606              1.941              3.259
 Vibration    10          0.614              1.916              2.847
 Vibration    11          0.623              1.887              2.510
 Vibration    12          0.632              1.859              2.264
 Vibration    13          0.640              1.834              2.096
 Vibration    14          0.640              1.832              2.086
 Vibration    15          0.648              1.808              1.947
 Vibration    16          0.666              1.752              1.687
 Vibration    17          0.670              1.739              1.637
 Vibration    18          0.683              1.701              1.502
 Vibration    19          0.699              1.655              1.363
 Vibration    20          0.731              1.565              1.144
 Vibration    21          0.733              1.560              1.133
 Vibration    22          0.775              1.446              0.923
 Vibration    23          0.789              1.412              0.869
 Vibration    24          0.808              1.364              0.800
 Vibration    25          0.825              1.322              0.745
 Vibration    26          0.842              1.281              0.694
 Vibration    27          0.855              1.251              0.659
 Vibration    28          0.866              1.226              0.632
 Vibration    29          0.874              1.208              0.612
 Vibration    30          0.890              1.172              0.575
 Vibration    31          0.912              1.126              0.531
 Vibration    32          0.945              1.059              0.472
 Vibration    33          0.974              1.001              0.425

 Optimization completed.
    -- Stationary point found.
 Normal termination of Gaussian 16 at Mon Dec 14 14:14:14 2020.

 ----------------------------------------------------------------------
 # B3LYP/6-311++G(d,p) empiricaldispersion=gd3bj scf=xqc pop=npa geom=c
 heck
 ----------------------------------------------------------------------

 --------------------------------------
 CID_80814089_JID_9195_Energie_neutraal
 --------------------------------------
 Structure from the checkpoint file:  "JID_9195.chk"
 Charge =  0 Multiplicity = 1

 SCF Done:  E(RB3LYP) =  -874.640576096     A.U. after   15 cycles
 Normal termination of Gaussian 16 at Mon Dec 14 14:24:53 2020.

 ----------------------------------------------------------------------
 # B3LYP/6-311++G(d,p) empiricaldispersion=gd3bj scf=xqc pop=npa geom=c
 heck
 ----------------------------------------------------------------------

 ------------------------------------
 CID_80814089_JID_9195_Energie_kation
 ------------------------------------
 Structure from the checkpoint file:  "JID_9195.chk"
 Charge =  1 Multiplicity = 2

 SCF Done:  E(UB3LYP) =  -874.362119955     A.U. after   29 cycles
 Normal termination of Gaussian 16 at Mon Dec 14 14:54:12 2020.
 Gaussian 16:  ES64L-G16RevA.03 25-Dec-2016

 ----------------------------------------------------------------------
 # B3LYP/6-311++G(d,p) empiricaldispersion=gd3bj scf=xqc pop=npa geom=c
 heck
 ----------------------------------------------------------------------

 -----------------------------------
 CID_80814089_JID_9195_Energie_anion
 -----------------------------------
 Structure from the checkpoint file:  "JID_9195.chk"
 Charge = -1 Multiplicity = 2

                         Standard orientation:
 ---------------------------------------------------------------------
 Center     Atomic      Atomic             Coordinates (Angstroms)
 Number     Number       Type             X           Y           Z
 ---------------------------------------------------------------------
      1          6           0       -5.345695   -0.554041    0.346355
      2          6           0       -4.201627   -1.515432    0.019917
      3          6           0       -3.418479   -1.107267   -1.238256
      4          7           0       -2.796042    0.203721   -1.164037
      5          6           0       -1.747842    0.514863   -0.339513
      6          6           0       -0.931698   -0.460610    0.253564
      7          6           0        0.126917    0.013548    1.041804
      8          7           0        0.354374    1.326796    1.232844
      9          6           0       -0.494333    2.158278    0.610581
     10          7           0       -1.535857    1.835362   -0.167444
     11          7           0       -0.230377    3.501426    0.746862
     12          7           0        1.003643   -0.831649    1.681096
     13          6           0        1.355141   -2.135473    1.131297
     14          6           0        1.963425   -2.052265   -0.285379
     15          6           0        3.121026   -1.059368   -0.243227
     16          8           0        4.073983   -1.314933    0.495839
     17          7           0        3.060350    0.097300   -0.972279
     18          6           0        1.942355    0.589168   -1.763469
     19          6           0        4.155487    1.048862   -0.841223
     20          1           0       -4.966301    0.454919    0.542262
     21          1           0       -5.894866   -0.879515    1.235928
     22          1           0       -6.061097   -0.490992   -0.483630
     23          1           0       -3.509901   -1.567634    0.869142
     24          1           0       -4.592606   -2.530108   -0.133782
     25          1           0       -2.644133   -1.851176   -1.460065
     26          1           0       -4.089707   -1.092616   -2.104513
     27          1           0       -3.361100    1.009077   -1.397454
     28          1           0       -1.116183   -1.517748    0.128250
     29          1           0       -1.001612    4.117421    0.532735
     30          1           0        0.335870    3.750082    1.545538
     31          1           0        1.788490   -0.319354    2.068390
     32          1           0        2.091345   -2.575145    1.806339
     33          1           0        0.475518   -2.787441    1.129712
     34          1           0        2.385395   -3.027604   -0.550192
     35          1           0        1.190426   -1.815701   -1.015202
     36          1           0        1.609091    1.555472   -1.367426
     37          1           0        2.249522    0.728579   -2.808380
     38          1           0        1.091710   -0.085493   -1.732419
     39          1           0        4.971033    0.570380   -0.302612
     40          1           0        4.494906    1.364894   -1.834986
     41          1           0        3.821643    1.936902   -0.288343
 ---------------------------------------------------------------------

 SCF Done:  E(UB3LYP) =  -874.630575135     A.U. after   32 cycles

 The electronic state is 2-A.
 Alpha  occ. eigenvalues --  -18.99654 -14.26183 -14.23727 -14.23457 -14.23165
 Alpha  occ. eigenvalues --  -14.19861 -14.19747 -10.18451 -10.17605 -10.15641
 Alpha  occ. eigenvalues --  -10.15585 -10.12333 -10.11387 -10.11197 -10.10990
 Alpha  occ. eigenvalues --  -10.09092 -10.07450 -10.06773 -10.06664  -0.95052
 Alpha  occ. eigenvalues --   -0.91083  -0.86420  -0.85049  -0.84983  -0.79216
 Alpha  occ. eigenvalues --   -0.76904  -0.68968  -0.68363  -0.66221  -0.63620
 Alpha  occ. eigenvalues --   -0.61711  -0.60306  -0.57201  -0.54292  -0.52462
 Alpha  occ. eigenvalues --   -0.49943  -0.47424  -0.46051  -0.45118  -0.41600
 Alpha  occ. eigenvalues --   -0.41098  -0.40376  -0.39872  -0.38825  -0.38329
 Alpha  occ. eigenvalues --   -0.37304  -0.36426  -0.36285  -0.35372  -0.34515
 Alpha  occ. eigenvalues --   -0.34112  -0.32856  -0.32751  -0.31896  -0.31604
 Alpha  occ. eigenvalues --   -0.30491  -0.30117  -0.29576  -0.28063  -0.27751
 Alpha  occ. eigenvalues --   -0.26978  -0.25657  -0.25230  -0.24773  -0.24420
 Alpha  occ. eigenvalues --   -0.21753  -0.17112  -0.16788  -0.16196  -0.16025
 Alpha  occ. eigenvalues --   -0.14166  -0.12364   0.03855
 Alpha virt. eigenvalues --    0.05615   0.06046   0.06586   0.07385   0.08032
 Alpha virt. eigenvalues --    0.08057   0.08389   0.08952   0.09354   0.09562
 Alpha virt. eigenvalues --    0.09753   0.10247   0.10687   0.11058   0.11349

  Beta  occ. eigenvalues --  -18.99649 -14.26183 -14.23726 -14.23450 -14.23143
  Beta  occ. eigenvalues --  -14.19855 -14.19733 -10.18447 -10.17604 -10.15637
  Beta  occ. eigenvalues --  -10.15573 -10.12322 -10.11368 -10.11184 -10.10958
  Beta  occ. eigenvalues --  -10.09076 -10.07431 -10.06744 -10.06650  -0.95042
  Beta  occ. eigenvalues --   -0.91068  -0.86405  -0.85032  -0.84974  -0.79190
  Beta  occ. eigenvalues --   -0.76885  -0.68934  -0.68330  -0.66193  -0.63594
  Beta  occ. eigenvalues --   -0.61688  -0.60250  -0.57173  -0.54253  -0.52429
  Beta  occ. eigenvalues --   -0.49880  -0.47404  -0.46021  -0.45092  -0.41567
  Beta  occ. eigenvalues --   -0.41067  -0.40343  -0.39850  -0.38805  -0.38288
  Beta  occ. eigenvalues --   -0.37265  -0.36399  -0.36258  -0.35343  -0.34493
  Beta  occ. eigenvalues --   -0.34077  -0.32837  -0.32720  -0.31876  -0.31586
  Beta  occ. eigenvalues --   -0.30448  -0.30097  -0.29551  -0.28034  -0.27728
  Beta  occ. eigenvalues --   -0.26958  -0.25606  -0.25192  -0.24736  -0.24376
  Beta  occ. eigenvalues --   -0.21729  -0.17098  -0.16763  -0.16180  -0.16011
  Beta  occ. eigenvalues --   -0.14138  -0.12347
  Beta virt. eigenvalues --    0.05749   0.06462   0.06633   0.07106   0.07771
  Beta virt. eigenvalues --    0.08270   0.08504   0.08615   0.09127   0.09366
  Beta virt. eigenvalues --    0.09822   0.10007   0.10470   0.10939   0.11165

 Mulliken charges and spin densities:
               1          2
     1  C    0.628840  -1.284721
     2  C   -0.564508   0.524229
     3  C    0.973279  -1.197796
     4  N   -0.154263   0.088027
     5  C   -0.683489   0.128063
     6  C    0.252332  -0.330430
     7  C    0.366208  -0.352981
     8  N   -0.142791   0.001730
     9  C    0.108082  -0.309103
    10  N   -0.200141   0.051697
    11  N   -0.398756   0.151897
    12  N    0.051051  -0.002050
    13  C   -0.036445  -0.411991
    14  C    0.325822  -0.297258
    15  C   -0.463564   0.114151
    16  O   -0.337236   0.002134
    17  N    0.066894   0.011264
    18  C   -0.047463  -0.380444
    19  C    0.026223  -0.299370
    20  H   -0.078950   0.244932
    21  H   -0.202064   0.336265
    22  H   -0.043938   0.182698
    23  H    0.077789   0.044599
    24  H   -0.459127   0.617542
    25  H   -0.511068   0.683453
    26  H   -0.536833   0.721905
    27  H    0.047339   0.240094
    28  H    0.837728  -0.689205
    29  H    0.037625   0.226352
    30  H    0.063474   0.200220
    31  H    0.235210   0.027987
    32  H    0.218144  -0.003908
    33  H   -0.368346   0.535075
    34  H   -0.182444   0.397384
    35  H   -0.138527   0.253151
    36  H    0.056457   0.145916
    37  H   -0.202883   0.386816
    38  H    0.172519  -0.016154
    39  H    0.095684   0.075202
    40  H    0.011463   0.126155
    41  H    0.100672   0.056471
 Sum of Mulliken charges =  -1.00000   1.00000

 Dipole moment (field-independent basis, Debye):
    X=              4.8080    Y=              3.3045    Z=              2.0942  Tot=              6.1986
 Quadrupole moment (field-independent basis, Debye-Ang):
   XX=           -213.0591   YY=           -168.0511   ZZ=           -152.9415
   XY=             -6.5862   XZ=             -8.3600   YZ=             -4.0361

 Summary of Natural Population Analysis:

                                       Natural Population
                Natural  -----------------------------------------------
    Atom  No    Charge         Core      Valence    Rydberg      Total
 -----------------------------------------------------------------------
      C    1   -0.28719      0.99967     2.28304    0.00448     3.28719
      C    2   -0.19795      0.99964     2.19094    0.00738     3.19795
      C    3   -0.08781      0.99962     2.07626    0.01193     3.08781
      N    4   -0.30532      0.99967     2.79453    0.01113     3.80532
      C    5    0.22705      0.99954     1.75780    0.01562     2.77295
      C    6   -0.22363      0.99946     2.21637    0.00779     3.22363
      C    7    0.22216      0.99955     1.76196    0.01633     2.77784
      N    8   -0.30687      0.99964     2.80053    0.00670     3.80687
      C    9    0.30033      0.99964     1.68091    0.01913     2.69967
      N   10   -0.30807      0.99964     2.79819    0.01024     3.80807
      N   11   -0.39446      0.99970     2.88541    0.00935     3.89446
      N   12   -0.31113      0.99967     2.80152    0.00995     3.81113
      C   13   -0.08492      0.99962     2.07351    0.01179     3.08492
      C   14   -0.23755      0.99958     2.22949    0.00847     3.23755
      C   15    0.34333      0.99963     1.63269    0.02435     2.65667
      O   16   -0.34036      0.99988     3.33536    0.00512     4.34036
      N   17   -0.24751      0.99964     2.73810    0.00977     3.74751
      C   18   -0.17630      0.99962     2.16873    0.00795     3.17630
      C   19   -0.17994      0.99964     2.17399    0.00631     3.17994
      H   20    0.09771      0.00000     0.40108    0.00121     0.40229
      H   21    0.09958      0.00000     0.39942    0.00100     0.40042
      H   22    0.09592      0.00000     0.40271    0.00137     0.40408
      H   23    0.09717      0.00000     0.40142    0.00141     0.40283
      H   24    0.09908      0.00000     0.39913    0.00179     0.40092
      H   25    0.09944      0.00000     0.39819    0.00237     0.40056
      H   26    0.09905      0.00000     0.39922    0.00174     0.40095
      H   27    0.19340      0.00000     0.30344    0.00316     0.30660
      H   28    0.11165      0.00000     0.38614    0.00221     0.38835
      H   29    0.19246      0.00000     0.30558    0.00196     0.30754
      H   30    0.19146      0.00000     0.30678    0.00176     0.30854
      H   31    0.19297      0.00000     0.30447    0.00256     0.30703
      H   32    0.10485      0.00000     0.39411    0.00104     0.39515
      H   33    0.09882      0.00000     0.40006    0.00111     0.40118
      H   34    0.11385      0.00000     0.38504    0.00111     0.38615
      H   35    0.10577      0.00000     0.39236    0.00187     0.39423
      H   36    0.10168      0.00000     0.39701    0.00132     0.39832
      H   37    0.09239      0.00000     0.40666    0.00095     0.40761
      H   38    0.10705      0.00000     0.39138    0.00157     0.39295
      H   39    0.11502      0.00000     0.38396    0.00102     0.38498
      H   40    0.09146      0.00000     0.40741    0.00113     0.40854
      H   41    0.09552      0.00000     0.40316    0.00132     0.40448
 =======================================================================
   * Total *    0.00013     18.99305    52.76803    0.23879    71.99987

 Normal termination of Gaussian 16 at Mon Dec 14 15:25:05 2020.
