 Gaussian 16, Revision A.03,

 -----------------------------------------------------------
 # opt freq B3LYP/6-31G(d) empiricaldispersion=gd3bj scf=xqc
 -----------------------------------------------------------

 ------------------------------
 CID_130438764_JID_302_neutraal
 ------------------------------
 Symbolic Z-matrix:
 Charge =  0 Multiplicity = 1

 SCF Done:  E(RB3LYP) =  -407.973462671     A.U. after   14 cycles
 SCF Done:  E(RB3LYP) =  -407.975639570     A.U. after   11 cycles
 SCF Done:  E(RB3LYP) =  -407.976328253     A.U. after   11 cycles
 SCF Done:  E(RB3LYP) =  -407.976905365     A.U. after   12 cycles
 SCF Done:  E(RB3LYP) =  -407.977014797     A.U. after   12 cycles
 SCF Done:  E(RB3LYP) =  -407.977158953     A.U. after   10 cycles
 SCF Done:  E(RB3LYP) =  -407.977423877     A.U. after   11 cycles
 SCF Done:  E(RB3LYP) =  -407.977434141     A.U. after    9 cycles
 SCF Done:  E(RB3LYP) =  -407.977436612     A.U. after    8 cycles
 SCF Done:  E(RB3LYP) =  -407.977436785     A.U. after    7 cycles
 SCF Done:  E(RB3LYP) =  -407.977436796     A.U. after    6 cycles
 Optimization completed.
    -- Stationary point found.

 1\1\GINC-NODE126\FOpt\RB3LYP\6-31G(d)\C9H17N1\VSC10255\08-Dec-2020\0\\
 # opt freq B3LYP/6-31G(d) empiricaldispersion=gd3bj scf=xqc\\CID_13043
 8764_JID_302_neutraal\\0,1\C,-0.9639886863,0.0612140099,-1.5019668978\
 C,-0.9606240547,0.0040295016,0.0358845963\C,-0.2693533366,1.2480181833
 ,0.6309585498\C,1.2389277782,1.2951829811,0.3765724621\N,1.8852739208,
 0.0665632733,0.8176586703\C,1.3074080527,-1.1596699062,0.26740457\C,-0
 .1936272093,-1.2360151963,0.5416725613\C,3.269327501,0.0772221901,0.94
 60378993\C,4.1101530916,1.1148557706,0.8086267174\C,-2.4126013917,-0.0

 Normal termination of Gaussian 16 at Tue Dec  8 10:23:44 2020.

 --------------------------------------------------------------------
 #N Geom=AllCheck Guess=TCheck SCRF=Check GenChk RB3LYP/6-31G(d) Freq
 --------------------------------------------------------------------

 Structure from the checkpoint file:  "JID_302.chk"
 ------------------------------
 CID_130438764_JID_302_neutraal
 ------------------------------
 Charge =  0 Multiplicity = 1

 SCF Done:  E(RB3LYP) =  -407.977436796     A.U. after    1 cycles

  Exact polarizability: 128.603  -5.740  95.953   0.930  -2.218  77.739
 Approx polarizability: 159.535 -13.246 142.626   2.536  -5.348 116.836

                      1                      2                      3
                      A                      A                      A
 Frequencies --     67.2641               148.5735               198.2413
 Red. masses --      3.3728                 2.5817                 1.5852
 Frc consts  --      0.0090                 0.0336                 0.0367
 IR Inten    --      0.1016                 2.9297                 0.6679

                      4                      5                      6
                      A                      A                      A
 Frequencies --    217.4770               232.6876               261.4166
 Red. masses --      2.4750                 1.2854                 1.9829
 Frc consts  --      0.0690                 0.0410                 0.0798
 IR Inten    --      1.2412                 0.3063                 0.6401

                      7                      8                      9
                      A                      A                      A
 Frequencies --    267.3758               303.8819               325.8314
 Red. masses --      1.2819                 2.0565                 2.1260
 Frc consts  --      0.0540                 0.1119                 0.1330
 IR Inten    --      0.0924                 0.2468                 0.5891

                     10                     11                     12
                      A                      A                      A
 Frequencies --    341.8310               412.3160               426.5979
 Red. masses --      1.9337                 2.0239                 1.9622
 Frc consts  --      0.1331                 0.2027                 0.2104
 IR Inten    --      8.5655                 0.1056                 0.3823

                     13                     14                     15
                      A                      A                      A
 Frequencies --    437.8043               496.2805               551.2262
 Red. masses --      2.6916                 3.0895                 2.6685
 Frc consts  --      0.3040                 0.4483                 0.4777
 IR Inten    --      0.0106                 0.4669                 2.4055

                     16                     17                     18
                      A                      A                      A
 Frequencies --    624.5727               710.7597               721.5465
 Red. masses --      1.9977                 1.7319                 3.0694
 Frc consts  --      0.4591                 0.5155                 0.9415
 IR Inten    --      1.0601                 1.4450                 1.4757

                     19                     20                     21
                      A                      A                      A
 Frequencies --    774.8230               801.9412               826.8254
 Red. masses --      2.5422                 1.3852                 1.5762
 Frc consts  --      0.8992                 0.5249                 0.6349
 IR Inten    --      4.0256                56.6062                 0.7439

                     22                     23                     24
                      A                      A                      A
 Frequencies --    903.0964               932.8085               958.4619
 Red. masses --      1.8390                 2.1799                 1.5449
 Frc consts  --      0.8837                 1.1176                 0.8362
 IR Inten    --      0.3220                 1.0750                 3.1047

                     25                     26                     27
                      A                      A                      A
 Frequencies --    992.7875              1000.4351              1008.5853
 Red. masses --      1.6929                 1.2673                 1.2478
 Frc consts  --      0.9831                 0.7473                 0.7479
 IR Inten    --     10.7960                21.3771                 4.5805

                     28                     29                     30
                      A                      A                      A
 Frequencies --   1021.2338              1038.8430              1053.6121
 Red. masses --      1.5868                 2.0992                 1.7997
 Frc consts  --      0.9750                 1.3347                 1.1771
 IR Inten    --      1.6314                 0.9167                 2.6187

                     31                     32                     33
                      A                      A                      A
 Frequencies --   1080.9499              1088.1995              1171.7569
 Red. masses --      1.5841                 1.6532                 2.5788
 Frc consts  --      1.0905                 1.1534                 2.0861
 IR Inten    --      2.2148                 1.3097                73.0421

                     34                     35                     36
                      A                      A                      A
 Frequencies --   1201.0906              1213.2093              1231.9522
 Red. masses --      1.8732                 1.6751                 1.3813
 Frc consts  --      1.5921                 1.4526                 1.2352
 IR Inten    --     35.3814                 7.6039                 0.4739

                     37                     38                     39
                      A                      A                      A
 Frequencies --   1250.8262              1294.1223              1317.5157
 Red. masses --      1.8028                 2.4380                 1.5795
 Frc consts  --      1.6618                 2.4056                 1.6155
 IR Inten    --     19.8143                25.7564                 9.1458

                     40                     41                     42
                      A                      A                      A
 Frequencies --   1338.9096              1354.2032              1380.7917
 Red. masses --      1.6256                 1.4559                 1.5104
 Frc consts  --      1.7170                 1.5731                 1.6967
 IR Inten    --      5.1518                 3.0322                 5.5777

                     43                     44                     45
                      A                      A                      A
 Frequencies --   1388.7032              1407.6002              1414.2161
 Red. masses --      1.3648                 1.3768                 1.4348
 Frc consts  --      1.5508                 1.6073                 1.6907
 IR Inten    --     14.3805                 8.7573                 3.5599

                     46                     47                     48
                      A                      A                      A
 Frequencies --   1430.0767              1444.7473              1452.5751
 Red. masses --      1.2539                 1.6409                 1.2454
 Frc consts  --      1.5109                 2.0179                 1.5482
 IR Inten    --      5.3851                76.9841                24.3212

                     49                     50                     51
                      A                      A                      A
 Frequencies --   1485.6415              1501.7436              1507.9633
 Red. masses --      1.2474                 1.0922                 1.0768
 Frc consts  --      1.6222                 1.4513                 1.4427
 IR Inten    --      9.0263                 1.4823                 2.4268

                     52                     53                     54
                      A                      A                      A
 Frequencies --   1517.1472              1527.5378              1529.7973
 Red. masses --      1.0502                 1.0701                 1.0700
 Frc consts  --      1.4242                 1.4711                 1.4754
 IR Inten    --      0.1827                 6.2960                 2.3584

                     55                     56                     57
                      A                      A                      A
 Frequencies --   1532.8588              1545.6462              1547.9402
 Red. masses --      1.0684                 1.0871                 1.0624
 Frc consts  --      1.4790                 1.5302                 1.4999
 IR Inten    --      0.6893                23.7287                 5.5685

                     58                     59                     60
                      A                      A                      A
 Frequencies --   1716.0376              2962.9177              2967.3423
 Red. masses --      4.2729                 1.0734                 1.0732
 Frc consts  --      7.4136                 5.5519                 5.5677
 IR Inten    --    171.2444                25.6406                88.5724

                     61                     62                     63
                      A                      A                      A
 Frequencies --   3034.9523              3036.3052              3040.5952
 Red. masses --      1.0408                 1.0589                 1.0492
 Frc consts  --      5.6484                 5.7517                 5.7151
 IR Inten    --      6.2856                26.9734                51.8907

                     64                     65                     66
                      A                      A                      A
 Frequencies --   3049.3809              3077.0667              3079.3386
 Red. masses --      1.0428                 1.0989                 1.0981
 Frc consts  --      5.7130                 6.1305                 6.1350
 IR Inten    --     32.1015                39.6967                 8.2366

                     67                     68                     69
                      A                      A                      A
 Frequencies --   3082.2453              3097.2565              3101.8576
 Red. masses --      1.0993                 1.0886                 1.1025
 Frc consts  --      6.1532                 6.1527                 6.2500
 IR Inten    --     48.8551                23.3981                 2.9855

                     70                     71                     72
                      A                      A                      A
 Frequencies --   3107.2176              3108.5262              3127.2407
 Red. masses --      1.1020                 1.1016                 1.0990
 Frc consts  --      6.2689                 6.2719                 6.3327
 IR Inten    --     52.5346                62.4302                33.1258

                     73                     74                     75
                      A                      A                      A
 Frequencies --   3158.5270              3191.5324              3267.8252
 Red. masses --      1.0862                 1.0623                 1.1160
 Frc consts  --      6.3843                 6.3751                 7.0216
 IR Inten    --     24.4127                 1.3140                19.5765

 - Thermochemistry -
 -------------------
 Temperature   298.150 Kelvin.  Pressure   1.00000 Atm.
 Atom     1 has atomic number  6 and mass  12.00000

 Molecular mass:   139.13610 amu.
 Principal axes and moments of inertia in atomic units:
                           1         2         3
     Eigenvalues --   627.411212253.937732431.30124
           X            0.99999  -0.00179   0.00288
           Y            0.00180   0.99998  -0.00566
           Z           -0.00287   0.00566   0.99998
 This molecule is an asymmetric top.
 Rotational symmetry number  1.
 Warning -- assumption of classical behavior for rotation
           may cause significant error
 Rotational temperatures (Kelvin)      0.13805     0.03843     0.03562
 Rotational constants (GHZ):           2.87649     0.80071     0.74229
 Zero-point vibrational energy     654495.0 (Joules/Mol)
                                  156.42807 (Kcal/Mol)
 Warning -- explicit consideration of  15 degrees of freedom as
           vibrations may cause significant error
 Vibrational temperatures:     96.78   213.76   285.22   312.90   334.79
          (Kelvin)            376.12   384.69   437.22   468.80   491.82
                              593.23   613.78   629.90   714.04   793.09
                              898.62  1022.62  1038.14  1114.80  1153.81
                             1189.62  1299.35  1342.10  1379.01  1428.40
                             1439.40  1451.13  1469.33  1494.66  1515.91
                             1555.25  1565.68  1685.90  1728.10  1745.54
                             1772.50  1799.66  1861.95  1895.61  1926.39
                             1948.40  1986.65  1998.03  2025.22  2034.74
                             2057.56  2078.67  2089.93  2137.51  2160.67
                             2169.62  2182.84  2197.79  2201.04  2205.44
                             2223.84  2227.14  2469.00  4262.98  4269.34
                             4366.62  4368.57  4374.74  4387.38  4427.21
                             4430.48  4434.66  4456.26  4462.88  4470.59
                             4472.48  4499.40  4544.42  4591.90  4701.67

 Zero-point correction=                           0.249284 (Hartree/Particle)
 Thermal correction to Energy=                    0.259759
 Thermal correction to Enthalpy=                  0.260703
 Thermal correction to Gibbs Free Energy=         0.214447
 Sum of electronic and zero-point Energies=           -407.728153
 Sum of electronic and thermal Energies=              -407.717678
 Sum of electronic and thermal Enthalpies=            -407.716734
 Sum of electronic and thermal Free Energies=         -407.762989

                     E (Thermal)             CV                S
                      KCal/Mol        Cal/Mol-Kelvin    Cal/Mol-Kelvin
 Total                  163.001             41.806             97.354
 Electronic               0.000              0.000              0.000
 Translational            0.889              2.981             40.703
 Rotational               0.889              2.981             29.621
 Vibrational            161.224             35.844             27.031
 Vibration     1          0.598              1.970              4.232
 Vibration     2          0.618              1.904              2.690
 Vibration     3          0.637              1.842              2.149
 Vibration     4          0.646              1.814              1.980
 Vibration     5          0.653              1.791              1.858
 Vibration     6          0.669              1.743              1.652
 Vibration     7          0.672              1.733              1.613
 Vibration     8          0.695              1.666              1.395
 Vibration     9          0.710              1.624              1.281
 Vibration    10          0.721              1.592              1.204
 Vibration    11          0.776              1.443              0.918
 Vibration    12          0.788              1.412              0.870
 Vibration    13          0.798              1.388              0.834
 Vibration    14          0.852              1.258              0.667
 Vibration    15          0.907              1.137              0.542

 Optimization completed.
    -- Stationary point found.

 1\1\GINC-NODE126\Freq\RB3LYP\6-31G(d)\C9H17N1\VSC10255\08-Dec-2020\0\\
 #N Geom=AllCheck Guess=TCheck SCRF=Check GenChk RB3LYP/6-31G(d) Freq\\
 CID_130438764_JID_302_neutraal\\0,1\C,-0.9639886863,0.0612140099,-1.50
 19668978\C,-0.9606240547,0.0040295016,0.0358845963\C,-0.2693533366,1.2
 480181833,0.6309585498\C,1.2389277782,1.2951829811,0.3765724621\N,1.88
 52739208,0.0665632733,0.8176586703\C,1.3074080527,-1.1596699062,0.2674
 0457\C,-0.1936272093,-1.2360151963,0.5416725613\C,3.269327501,0.077222
 1901,0.9460378993\C,4.1101530916,1.1148557706,0.8086267174\C,-2.412601

 Normal termination of Gaussian 16 at Tue Dec  8 10:29:25 2020.

 ----------------------------------------------------------------------
 # B3LYP/6-311++G(d,p) empiricaldispersion=gd3bj scf=xqc pop=npa geom=c
 heck
 ----------------------------------------------------------------------

 --------------------------------------
 CID_130438764_JID_302_Energie_neutraal
 --------------------------------------
 Structure from the checkpoint file:  "JID_302.chk"
 Charge =  0 Multiplicity = 1

 SCF Done:  E(RB3LYP) =  -408.091821658     A.U. after   13 cycles
 Normal termination of Gaussian 16 at Tue Dec  8 10:31:57 2020.

 ----------------------------------------------------------------------
 # B3LYP/6-311++G(d,p) empiricaldispersion=gd3bj scf=xqc pop=npa geom=c
 heck
 ----------------------------------------------------------------------

 ------------------------------------
 CID_130438764_JID_302_Energie_kation
 ------------------------------------
 Structure from the checkpoint file:  "JID_302.chk"
 Charge =  1 Multiplicity = 2

 SCF Done:  E(UB3LYP) =  -407.815802626     A.U. after   17 cycles
 Normal termination of Gaussian 16 at Tue Dec  8 10:37:20 2020.
 Gaussian 16:  ES64L-G16RevA.03 25-Dec-2016

 -----------------------------------
 CID_130438764_JID_302_Energie_anion
 -----------------------------------
 Structure from the checkpoint file:  "JID_302.chk"
 Charge = -1 Multiplicity = 2

                         Standard orientation:
 ---------------------------------------------------------------------
 Center     Atomic      Atomic             Coordinates (Angstroms)
 Number     Number       Type             X           Y           Z
 ---------------------------------------------------------------------
      1          6           0       -1.887521   -0.206803    1.501665
      2          6           0       -1.624859   -0.074798   -0.008915
      3          6           0       -0.684467   -1.193116   -0.503389
      4          6           0        0.749849   -1.065445    0.014573
      5          7           0        1.296960    0.253785   -0.272011
      6          6           0        0.477362    1.370734    0.198138
      7          6           0       -0.950240    1.273849   -0.337328
      8          6           0        2.671664    0.420896   -0.151748
      9          6           0        3.604014   -0.510060    0.106317
     10          6           0       -2.964603   -0.168604   -0.752345
     11          1           0       -2.376129   -1.162953    1.723908
     12          1           0       -0.969674   -0.160560    2.095197
     13          1           0       -2.548223    0.596047    1.850147
     14          1           0       -1.082912   -2.174728   -0.215876
     15          1           0       -0.655190   -1.165795   -1.600340
     16          1           0        1.378227   -1.805216   -0.490139
     17          1           0        0.802996   -1.288282    1.095437
     18          1           0        0.942519    2.299661   -0.150075
     19          1           0        0.469128    1.415879    1.301569
     20          1           0       -0.920218    1.396816   -1.427747
     21          1           0       -1.545679    2.102288    0.067969
     22          1           0        2.981162    1.450547   -0.327348
     23          1           0        4.652098   -0.234243    0.088810
     24          1           0        3.371942   -1.547662    0.317210
     25          1           0       -2.822157   -0.076839   -1.835669
     26          1           0       -3.456103   -1.129533   -0.557279
     27          1           0       -3.647694    0.628162   -0.433497
 ---------------------------------------------------------------------

 SCF Done:  E(UB3LYP) =  -408.074587970     A.U. after   32 cycles

 The electronic state is 2-A.
 Alpha  occ. eigenvalues --  -14.22167 -10.09790 -10.09310 -10.09200 -10.07612
 Alpha  occ. eigenvalues --  -10.05964 -10.05756 -10.04988 -10.04792 -10.04552
 Alpha  occ. eigenvalues --   -0.84372  -0.72474  -0.65784  -0.65096  -0.59496
 Alpha  occ. eigenvalues --   -0.57940  -0.53541  -0.51266  -0.46165  -0.41874
 Alpha  occ. eigenvalues --   -0.39880  -0.37019  -0.35675  -0.35042  -0.34008
 Alpha  occ. eigenvalues --   -0.32434  -0.31561  -0.29303  -0.27992  -0.27649
 Alpha  occ. eigenvalues --   -0.26542  -0.26081  -0.25496  -0.24275  -0.22475
 Alpha  occ. eigenvalues --   -0.21107  -0.20180  -0.19331  -0.10249   0.04813
 Alpha virt. eigenvalues --    0.07121   0.07580   0.08325   0.09022   0.09464
 Alpha virt. eigenvalues --    0.10293   0.10603   0.10925   0.11482   0.11819
 Alpha virt. eigenvalues --    0.12237   0.13464   0.13892   0.14241   0.14466

  Beta  occ. eigenvalues --  -14.22167 -10.09778 -10.09286 -10.09182 -10.07612
  Beta  occ. eigenvalues --  -10.05940 -10.05729 -10.04956 -10.04750 -10.04538
  Beta  occ. eigenvalues --   -0.84354  -0.72448  -0.65745  -0.65066  -0.59455
  Beta  occ. eigenvalues --   -0.57868  -0.53477  -0.51202  -0.46120  -0.41811
  Beta  occ. eigenvalues --   -0.39834  -0.36985  -0.35638  -0.35012  -0.33970
  Beta  occ. eigenvalues --   -0.32378  -0.31532  -0.29264  -0.27959  -0.27610
  Beta  occ. eigenvalues --   -0.26507  -0.26037  -0.25450  -0.24238  -0.22436
  Beta  occ. eigenvalues --   -0.21063  -0.20145  -0.19286  -0.10220
  Beta virt. eigenvalues --    0.07067   0.07870   0.08440   0.08986   0.09578
  Beta virt. eigenvalues --    0.10263   0.10855   0.10956   0.11282   0.12045
  Beta virt. eigenvalues --    0.12092   0.12781   0.13847   0.14470   0.14621

 Mulliken charges and spin densities:
               1          2
     1  C    2.033897  -2.670854
     2  C   -2.485612   3.270927
     3  C    1.747993  -2.257732
     4  C   -0.516599   0.019485
     5  N    0.022456   0.203476
     6  C    0.345739  -0.764517
     7  C    0.625848  -1.116387
     8  C   -0.123062   0.161974
     9  C   -0.094626  -0.379992
    10  C    0.349571  -0.873382
    11  H   -0.289508   0.442537
    12  H   -0.028546   0.141173
    13  H   -0.365697   0.520073
    14  H   -0.378821   0.548939
    15  H    0.049998   0.115481
    16  H    0.050314   0.115414
    17  H    0.004756   0.143721
    18  H   -0.358192   0.525423
    19  H    0.005007   0.154096
    20  H   -0.014395   0.180448
    21  H   -0.377998   0.550534
    22  H   -0.357657   0.483190
    23  H   -0.147632   0.284737
    24  H   -0.099465   0.198273
    25  H   -0.149275   0.278314
    26  H   -0.207245   0.343006
    27  H   -0.241247   0.381644
 Sum of Mulliken charges =  -1.00000   1.00000

 Dipole moment (field-independent basis, Debye):
    X=              2.2467    Y=             -1.1692    Z=             -0.9270  Tot=              2.6971
 Quadrupole moment (field-independent basis, Debye-Ang):
   XX=           -127.7797   YY=           -108.3553   ZZ=            -99.3427
   XY=             -1.6036   XZ=              4.0157   YZ=             -0.1126

 Summary of Natural Population Analysis:

                                       Natural Population
                Natural  -----------------------------------------------
    Atom  No    Charge         Core      Valence    Rydberg      Total
 -----------------------------------------------------------------------
      C    1   -0.28807      0.99962     2.28072    0.00774     3.28807
      C    2   -0.04740      0.99957     2.03499    0.01284     3.04740
      C    3   -0.19034      0.99958     2.18002    0.01074     3.19034
      C    4   -0.08469      0.99961     2.07345    0.01163     3.08469
      N    5   -0.26096      0.99967     2.74931    0.01198     3.76096
      C    6   -0.07780      0.99960     2.06675    0.01145     3.07780
      C    7   -0.19197      0.99958     2.18117    0.01122     3.19197
      C    8    0.02406      0.99955     1.96296    0.01343     2.97594
      C    9   -0.26176      0.99960     2.25487    0.00729     3.26176
      C   10   -0.28102      0.99962     2.27394    0.00746     3.28102
      H   11    0.10130      0.00000     0.39727    0.00143     0.39870
      H   12    0.09945      0.00000     0.39906    0.00149     0.40055
      H   13    0.10217      0.00000     0.39637    0.00146     0.39783
      H   14    0.10288      0.00000     0.39585    0.00127     0.39712
      H   15    0.09938      0.00000     0.39909    0.00153     0.40062
      H   16    0.10082      0.00000     0.39785    0.00133     0.39918
      H   17    0.08668      0.00000     0.41181    0.00151     0.41332
      H   18    0.09953      0.00000     0.39867    0.00181     0.40047
      H   19    0.08465      0.00000     0.41374    0.00160     0.41535
      H   20    0.09930      0.00000     0.39888    0.00181     0.40070
      H   21    0.10433      0.00000     0.39394    0.00174     0.39567
      H   22    0.09107      0.00000     0.40760    0.00133     0.40893
      H   23    0.09571      0.00000     0.40344    0.00085     0.40429
      H   24    0.09323      0.00000     0.40573    0.00104     0.40677
      H   25    0.09861      0.00000     0.40019    0.00120     0.40139
      H   26    0.10000      0.00000     0.39882    0.00118     0.40000
      H   27    0.10084      0.00000     0.39795    0.00121     0.39916
 =======================================================================
   * Total *    0.00000      9.99599    28.87443    0.12958    39.00000

 Normal termination of Gaussian 16 at Tue Dec  8 10:46:43 2020.
