 Gaussian 16, Revision A.03,

 -----------------------------------------------------------
 # opt freq B3LYP/6-31G(d) empiricaldispersion=gd3bj scf=xqc
 -----------------------------------------------------------

 -------------------------------
 CID_131292691_JID_4521_neutraal
 -------------------------------
 Symbolic Z-matrix:
 Charge =  0 Multiplicity = 1

 SCF Done:  E(RB3LYP) =  -645.822965625     A.U. after   15 cycles
 SCF Done:  E(RB3LYP) =  -645.825295198     A.U. after   12 cycles
 SCF Done:  E(RB3LYP) =  -645.825471543     A.U. after   11 cycles
 SCF Done:  E(RB3LYP) =  -645.825496453     A.U. after   10 cycles
 SCF Done:  E(RB3LYP) =  -645.825501998     A.U. after    9 cycles
 SCF Done:  E(RB3LYP) =  -645.825503052     A.U. after    8 cycles
 SCF Done:  E(RB3LYP) =  -645.825503205     A.U. after    8 cycles
 SCF Done:  E(RB3LYP) =  -645.825503248     A.U. after    8 cycles
 SCF Done:  E(RB3LYP) =  -645.825503256     A.U. after    8 cycles
 Optimization completed.
    -- Stationary point found.
 Normal termination of Gaussian 16 at Thu Dec 10 09:55:46 2020.

 --------------------------------------------------------------------
 #N Geom=AllCheck Guess=TCheck SCRF=Check GenChk RB3LYP/6-31G(d) Freq
 --------------------------------------------------------------------

 Structure from the checkpoint file:  "JID_4521.chk"
 -------------------------------
 CID_131292691_JID_4521_neutraal
 -------------------------------
 Charge =  0 Multiplicity = 1

 SCF Done:  E(RB3LYP) =  -645.825503256     A.U. after    1 cycles

  Exact polarizability: 179.197   3.357 110.726   0.389  -3.096  64.977
 Approx polarizability: 259.756  -4.261 199.908   0.877  -4.312 104.660

                      1                      2                      3
                      A                      A                      A
 Frequencies --     38.0313                59.3208               118.9823
 Red. masses --      6.8417                 7.4071                 5.4090
 Frc consts  --      0.0058                 0.0154                 0.0451
 IR Inten    --      0.9905                 2.0008                 1.2741

                      4                      5                      6
                      A                      A                      A
 Frequencies --    144.2050               194.6345               226.7977
 Red. masses --      5.9480                 6.2915                 4.1806
 Frc consts  --      0.0729                 0.1404                 0.1267
 IR Inten    --      2.7419                 4.3705                 4.1156

                      7                      8                      9
                      A                      A                      A
 Frequencies --    269.1989               287.9318               316.8755
 Red. masses --      5.6259                 1.4042                 1.1220
 Frc consts  --      0.2402                 0.0686                 0.0664
 IR Inten    --     10.6452                67.4694               116.3180

                     10                     11                     12
                      A                      A                      A
 Frequencies --    334.6097               370.4367               403.7186
 Red. masses --      3.1440                 5.9873                 5.4359
 Frc consts  --      0.2074                 0.4841                 0.5220
 IR Inten    --     16.4119                 0.9938                 1.9189

                     13                     14                     15
                      A                      A                      A
 Frequencies --    425.3504               449.5269               470.8186
 Red. masses --      5.1428                 3.7623                 5.5508
 Frc consts  --      0.5482                 0.4479                 0.7250
 IR Inten    --      2.5759                 4.4611                 0.9429

                     16                     17                     18
                      A                      A                      A
 Frequencies --    539.9925               587.2702               622.6561
 Red. masses --      5.8465                 5.3230                 3.0417
 Frc consts  --      1.0044                 1.0816                 0.6948
 IR Inten    --      3.5737                 6.1283                 4.7729

                     19                     20                     21
                      A                      A                      A
 Frequencies --    626.1358               693.7633               737.6597
 Red. masses --      5.6849                 5.2594                 4.2173
 Frc consts  --      1.3131                 1.4914                 1.3520
 IR Inten    --      2.6750                 1.0177                 0.0882

                     22                     23                     24
                      A                      A                      A
 Frequencies --    751.2285               785.3721               795.6750
 Red. masses --      4.3960                 6.7104                 1.5394
 Frc consts  --      1.4617                 2.4386                 0.5742
 IR Inten    --      2.8099                21.9783                40.5616

                     25                     26                     27
                      A                      A                      A
 Frequencies --    823.1774               861.2547               868.1476
 Red. masses --      1.4339                 4.3402                 2.3461
 Frc consts  --      0.5725                 1.8968                 1.0418
 IR Inten    --      6.7230                33.6038                54.1757

                     28                     29                     30
                      A                      A                      A
 Frequencies --    870.7601               913.4282               955.5383
 Red. masses --      1.5402                 1.2763                 3.5533
 Frc consts  --      0.6881                 0.6274                 1.9115
 IR Inten    --     65.2280                 1.2010               108.6714

                     31                     32                     33
                      A                      A                      A
 Frequencies --    973.4280               981.2591              1087.5929
 Red. masses --      2.7912                 5.3792                 2.0158
 Frc consts  --      1.5583                 3.0517                 1.4049
 IR Inten    --     15.8808                34.8113                14.4879

                     34                     35                     36
                      A                      A                      A
 Frequencies --   1146.3230              1151.7888              1194.2410
 Red. masses --      1.5752                 1.2630                 1.5354
 Frc consts  --      1.2195                 0.9872                 1.2902
 IR Inten    --      4.4545                 2.8845                24.5030

                     37                     38                     39
                      A                      A                      A
 Frequencies --   1206.2854              1217.7181              1243.5002
 Red. masses --      2.2844                 1.6907                 2.1628
 Frc consts  --      1.9585                 1.4771                 1.9704
 IR Inten    --    105.5879                99.3545                49.3702

                     40                     41                     42
                      A                      A                      A
 Frequencies --   1304.3466              1321.6532              1336.0874
 Red. masses --      1.9800                 2.8086                 1.8893
 Frc consts  --      1.9848                 2.8905                 1.9871
 IR Inten    --     34.2479                 8.4535                57.9668

                     43                     44                     45
                      A                      A                      A
 Frequencies --   1366.2189              1401.2263              1417.7874
 Red. masses --      2.2524                 1.5372                 3.4319
 Frc consts  --      2.4770                 1.7782                 4.0645
 IR Inten    --     20.8283                54.8438                38.7738

                     46                     47                     48
                      A                      A                      A
 Frequencies --   1498.1895              1546.5746              1647.5435
 Red. masses --      3.1299                 3.5890                 6.7830
 Frc consts  --      4.1392                 5.0579                10.8479
 IR Inten    --     87.2320                16.3714                47.4986

                     49                     50                     51
                      A                      A                      A
 Frequencies --   1666.3700              1687.8792              1696.4771
 Red. masses --      7.0338                 3.4402                 1.3133
 Frc consts  --     11.5075                 5.7745                 2.2269
 IR Inten    --      9.9723                14.7753                41.7472

                     52                     53                     54
                      A                      A                      A
 Frequencies --   2352.8792              3082.0127              3178.6454
 Red. masses --     12.6617                 1.0842                 1.0895
 Frc consts  --     41.2993                 6.0679                 6.4855
 IR Inten    --      2.7427                 4.9195                14.8046

                     55                     56                     57
                      A                      A                      A
 Frequencies --   3224.5802              3228.4796              3273.0100
 Red. masses --      1.0916                 1.0936                 1.0973
 Frc consts  --      6.6875                 6.7157                 6.9255
 IR Inten    --      5.0240                 2.8986                 2.3503

                     58                     59                     60
                      A                      A                      A
 Frequencies --   3477.9806              3567.2846              3759.0799
 Red. masses --      1.0495                 1.0935                 1.0660
 Frc consts  --      7.4795                 8.1987                 8.8753
 IR Inten    --      1.8847                 2.1348                50.0115

 - Thermochemistry -
 -------------------
 Temperature   298.150 Kelvin.  Pressure   1.00000 Atm.
 Atom     1 has atomic number  6 and mass  12.00000

 Molecular mass:   188.05858 amu.
 Principal axes and moments of inertia in atomic units:
                           1         2         3
     Eigenvalues --   895.105675254.879215461.94856
           X            0.99991   0.00914   0.00978
           Y           -0.00857   0.99833  -0.05710
           Z           -0.01029   0.05701   0.99832
 This molecule is an asymmetric top.
 Rotational symmetry number  1.
 Warning -- assumption of classical behavior for rotation
           may cause significant error
 Rotational temperatures (Kelvin)      0.09676     0.01648     0.01586
 Rotational constants (GHZ):           2.01623     0.34344     0.33042
 Zero-point vibrational energy     435314.7 (Joules/Mol)
                                  104.04272 (Kcal/Mol)
 Warning -- explicit consideration of  17 degrees of freedom as
           vibrations may cause significant error
 Vibrational temperatures:     54.72    85.35   171.19   207.48   280.04
          (Kelvin)            326.31   387.32   414.27   455.91   481.43
                              532.98   580.86   611.98   646.77   677.40
                              776.93   844.95   895.86   900.87   998.17
                             1061.33  1080.85  1129.98  1144.80  1184.37
                             1239.15  1249.07  1252.83  1314.22  1374.81
                             1400.55  1411.81  1564.80  1649.30  1657.17
                             1718.25  1735.58  1752.02  1789.12  1876.66
                             1901.56  1922.33  1965.68  2016.05  2039.88
                             2155.56  2225.18  2370.45  2397.53  2428.48
                             2440.85  3385.27  4434.33  4573.36  4639.45
                             4645.06  4709.13  5004.04  5132.53  5408.48

 Zero-point correction=                           0.165803 (Hartree/Particle)
 Thermal correction to Energy=                    0.177628
 Thermal correction to Enthalpy=                  0.178572
 Thermal correction to Gibbs Free Energy=         0.127341
 Sum of electronic and zero-point Energies=           -645.659701
 Sum of electronic and thermal Energies=              -645.647875
 Sum of electronic and thermal Enthalpies=            -645.646931
 Sum of electronic and thermal Free Energies=         -645.698162

                     E (Thermal)             CV                S
                      KCal/Mol        Cal/Mol-Kelvin    Cal/Mol-Kelvin
 Total                  111.463             45.582            107.825
 Electronic               0.000              0.000              0.000
 Translational            0.889              2.981             41.601
 Rotational               0.889              2.981             31.619
 Vibrational            109.686             39.621             34.605
 Vibration     1          0.594              1.982              5.359
 Vibration     2          0.597              1.974              4.480
 Vibration     3          0.609              1.933              3.117
 Vibration     4          0.616              1.909              2.747
 Vibration     5          0.635              1.847              2.183
 Vibration     6          0.650              1.800              1.904
 Vibration     7          0.674              1.730              1.601
 Vibration     8          0.685              1.696              1.486
 Vibration     9          0.704              1.641              1.326
 Vibration    10          0.716              1.606              1.238
 Vibration    11          0.742              1.533              1.078
 Vibration    12          0.769              1.462              0.949
 Vibration    13          0.787              1.415              0.874
 Vibration    14          0.808              1.362              0.797
 Vibration    15          0.828              1.315              0.735
 Vibration    16          0.895              1.162              0.565
 Vibration    17          0.944              1.059              0.472

                           ! Non-Optimized Parameters !
 Normal termination of Gaussian 16 at Thu Dec 10 10:01:05 2020.

 ----------------------------------------------------------------------
 # B3LYP/6-311++G(d,p) empiricaldispersion=gd3bj scf=xqc pop=npa geom=c
 heck
 ----------------------------------------------------------------------

 ---------------------------------------
 CID_131292691_JID_4521_Energie_neutraal
 ---------------------------------------
 Structure from the checkpoint file:  "JID_4521.chk"
 Charge =  0 Multiplicity = 1

 SCF Done:  E(RB3LYP) =  -646.014427714     A.U. after   15 cycles
 Normal termination of Gaussian 16 at Thu Dec 10 10:02:54 2020.

 ----------------------------------------------------------------------
 # B3LYP/6-311++G(d,p) empiricaldispersion=gd3bj scf=xqc pop=npa geom=c
 heck
 ----------------------------------------------------------------------

 -------------------------------------
 CID_131292691_JID_4521_Energie_kation
 -------------------------------------
 Structure from the checkpoint file:  "JID_4521.chk"
 Charge =  1 Multiplicity = 2

 SCF Done:  E(UB3LYP) =  -645.710004480     A.U. after   28 cycles
 Normal termination of Gaussian 16 at Thu Dec 10 10:07:33 2020.
 Gaussian 16:  ES64L-G16RevA.03 25-Dec-2016

 ----------------------------------------------------------------------
 # B3LYP/6-311++G(d,p) empiricaldispersion=gd3bj scf=xqc pop=npa geom=c
 heck
 ----------------------------------------------------------------------

 ------------------------------------
 CID_131292691_JID_4521_Energie_anion
 ------------------------------------
 Structure from the checkpoint file:  "JID_4521.chk"
 Charge = -1 Multiplicity = 2

                         Standard orientation:
 ---------------------------------------------------------------------
 Center     Atomic      Atomic             Coordinates (Angstroms)
 Number     Number       Type             X           Y           Z
 ---------------------------------------------------------------------
      1          6           0        2.846987    1.226344   -0.085111
      2          6           0        1.515469    1.611157   -0.231938
      3          6           0        0.566013    0.604383   -0.165294
      4          6           0        0.890006   -0.750856    0.038733
      5          6           0        2.230606   -1.124130    0.184112
      6          6           0        3.198923   -0.123490    0.119989
      7          8           0        4.505460   -0.509437    0.264698
      8          6           0       -0.373984   -1.449159    0.040429
      9          6           0       -1.330918   -0.507328   -0.155252
     10          8           0       -0.796826    0.754596   -0.281733
     11          6           0       -2.822038   -0.580114   -0.260682
     12          6           0       -3.455841    0.129614    0.884086
     13          7           0       -3.995262    0.709297    1.733273
     14          7           0       -3.267992   -0.079807   -1.565420
     15          1           0        3.629741    1.980283   -0.128197
     16          1           0        1.236419    2.647216   -0.388007
     17          1           0        2.532306   -2.153490    0.343008
     18          1           0        5.073587    0.273485    0.205473
     19          1           0       -0.540150   -2.509519    0.167410
     20          1           0       -3.101997   -1.636709   -0.183944
     21          1           0       -4.286205   -0.073603   -1.599792
     22          1           0       -2.961334    0.886116   -1.669076
 ---------------------------------------------------------------------

 SCF Done:  E(UB3LYP) =  -646.012933465     A.U. after   33 cycles
 SCF Done:  E(UB3LYP) =  -646.012933465     a.u. after    1 cycles

 The electronic state is 2-A.
 Alpha  occ. eigenvalues --  -19.05444 -19.04588 -14.18981 -14.18957 -10.13411
 Alpha  occ. eigenvalues --  -10.11251 -10.10090 -10.09856 -10.08853 -10.05271
 Alpha  occ. eigenvalues --  -10.04981 -10.04688 -10.04524 -10.03956  -0.98174
 Alpha  occ. eigenvalues --   -0.95432  -0.80372  -0.77542  -0.73048  -0.67853
 Alpha  occ. eigenvalues --   -0.63757  -0.62174  -0.58040  -0.50597  -0.50038
 Alpha  occ. eigenvalues --   -0.46447  -0.43548  -0.40931  -0.40330  -0.38066
 Alpha  occ. eigenvalues --   -0.35731  -0.34679  -0.32790  -0.32518  -0.30658
 Alpha  occ. eigenvalues --   -0.29375  -0.28758  -0.28148  -0.27281  -0.26187
 Alpha  occ. eigenvalues --   -0.25392  -0.22621  -0.21745  -0.21485  -0.20749
 Alpha  occ. eigenvalues --   -0.17553  -0.14956  -0.10764  -0.10087   0.04867
 Alpha virt. eigenvalues --    0.06971   0.07807   0.09092   0.09592   0.10313
 Alpha virt. eigenvalues --    0.11905   0.12148   0.12564   0.13046   0.13755
 Alpha virt. eigenvalues --    0.14058   0.14955   0.15432   0.15792   0.16569

  Beta  occ. eigenvalues --  -19.05349 -19.04599 -14.18869 -14.18819 -10.13414
  Beta  occ. eigenvalues --  -10.11319 -10.09904 -10.09809 -10.08838 -10.05205
  Beta  occ. eigenvalues --  -10.04819 -10.04502 -10.04486 -10.03754  -0.97981
  Beta  occ. eigenvalues --   -0.95455  -0.80145  -0.77321  -0.72810  -0.67505
  Beta  occ. eigenvalues --   -0.63428  -0.61892  -0.57810  -0.50524  -0.49670
  Beta  occ. eigenvalues --   -0.46259  -0.43366  -0.40781  -0.40132  -0.37884
  Beta  occ. eigenvalues --   -0.35494  -0.34538  -0.32408  -0.32316  -0.30510
  Beta  occ. eigenvalues --   -0.29250  -0.28658  -0.27974  -0.27178  -0.26096
  Beta  occ. eigenvalues --   -0.25217  -0.22379  -0.21518  -0.21323  -0.20169
  Beta  occ. eigenvalues --   -0.16607  -0.14802  -0.09574  -0.09348
  Beta virt. eigenvalues --    0.06917   0.08206   0.09070   0.09510   0.10123
  Beta virt. eigenvalues --    0.10543   0.12178   0.12407   0.12756   0.13121
  Beta virt. eigenvalues --    0.14162   0.14216   0.15081   0.15489   0.15997

 Mulliken charges and spin densities:
               1          2
     1  C    0.205040   0.084030
     2  C   -0.530142   0.080520
     3  C   -0.412287  -0.193249
     4  C    1.127092   0.049800
     5  C   -0.470111   0.233793
     6  C   -0.522388  -0.042004
     7  O   -0.251875   0.000596
     8  C    0.154876   0.050788
     9  C    0.217800  -0.004874
    10  O   -0.034614   0.013509
    11  C   -0.198643   0.089390
    12  C   -0.164251  -0.243700
    13  N   -0.342139   0.046752
    14  N   -0.098338  -0.213889
    15  H    0.083347  -0.017213
    16  H    0.091973   0.036965
    17  H    0.120769  -0.007740
    18  H    0.242488  -0.000149
    19  H    0.092988   0.043834
    20  H   -0.055767   0.252625
    21  H   -0.388112   0.639427
    22  H    0.132295   0.100790
 Sum of Mulliken charges =  -1.00000   1.00000

 Dipole moment (field-independent basis, Debye):
    X=              7.3801    Y=             -0.1888    Z=              0.3348  Tot=              7.3901
 Quadrupole moment (field-independent basis, Debye-Ang):
   XX=           -146.3354   YY=            -90.2646   ZZ=           -107.8495
   XY=             11.1253   XZ=             -1.3085   YZ=             -4.8262

 Summary of Natural Population Analysis:

                                       Natural Population
                Natural  -----------------------------------------------
    Atom  No    Charge         Core      Valence    Rydberg      Total
 -----------------------------------------------------------------------
      C    1   -0.11501      0.99955     2.10646    0.00900     3.11501
      C    2   -0.09057      0.99953     2.08205    0.00898     3.09057
      C    3    0.13727      0.99934     1.84984    0.01355     2.86273
      C    4   -0.03635      0.99950     2.02857    0.00828     3.03635
      C    5   -0.09167      0.99949     2.08353    0.00864     3.09167
      C    6    0.13550      0.99940     1.85311    0.01198     2.86450
      O    7   -0.35046      0.99988     3.34425    0.00633     4.35046
      C    8   -0.14240      0.99945     2.13580    0.00714     3.14240
      C    9    0.21439      0.99943     1.77001    0.01617     2.78561
      O   10   -0.24342      0.99985     3.23566    0.00791     4.24342
      C   11   -0.08183      0.99948     2.06947    0.01289     3.08183
      C   12    0.15330      0.99963     1.82707    0.02000     2.84670
      N   13   -0.18261      0.99979     2.67050    0.01232     3.68261
      N   14   -0.39631      0.99978     2.88633    0.01020     3.89631
      H   15    0.08717      0.00000     0.41169    0.00114     0.41283
      H   16    0.09989      0.00000     0.39895    0.00116     0.40011
      H   17    0.09708      0.00000     0.40149    0.00143     0.40292
      H   18    0.22747      0.00000     0.27013    0.00240     0.27253
      H   19    0.10354      0.00000     0.39568    0.00078     0.39646
      H   20    0.11595      0.00000     0.38197    0.00208     0.38405
      H   21    0.18084      0.00000     0.31051    0.00865     0.31916
      H   22    0.17821      0.00000     0.31906    0.00273     0.32179
 =======================================================================
   * Total *   -0.00000     13.99409    34.83214    0.17376    49.00000

 Normal termination of Gaussian 16 at Thu Dec 10 10:14:24 2020.
