 Gaussian 16, Revision A.03,

 -----------------------------------------------------------
 # opt freq B3LYP/6-31G(d) empiricaldispersion=gd3bj scf=xqc
 -----------------------------------------------------------

 -------------------------------
 CID_103088062_JID_4029_neutraal
 -------------------------------
 Symbolic Z-matrix:
 Charge =  0 Multiplicity = 1

 SCF Done:  E(RB3LYP) =  -976.087206711     A.U. after   14 cycles
 SCF Done:  E(RB3LYP) =  -976.092571070     A.U. after   12 cycles
 SCF Done:  E(RB3LYP) =  -976.087274741     A.U. after   14 cycles
 SCF Done:  E(RB3LYP) =  -976.090865204     A.U. after   13 cycles
 SCF Done:  E(RB3LYP) =  -976.093445305     A.U. after   10 cycles
 SCF Done:  E(RB3LYP) =  -976.093656438     A.U. after   12 cycles
 SCF Done:  E(RB3LYP) =  -976.094705563     A.U. after   12 cycles
 SCF Done:  E(RB3LYP) =  -976.093489284     A.U. after   12 cycles
 SCF Done:  E(RB3LYP) =  -976.094621815     A.U. after   12 cycles
 SCF Done:  E(RB3LYP) =  -976.095149448     A.U. after    9 cycles
 SCF Done:  E(RB3LYP) =  -976.095529789     A.U. after    8 cycles
 SCF Done:  E(RB3LYP) =  -976.095530265     A.U. after    7 cycles
 SCF Done:  E(RB3LYP) =  -976.095530665     A.U. after    7 cycles
 SCF Done:  E(RB3LYP) =  -976.095530812     A.U. after    7 cycles
 SCF Done:  E(RB3LYP) =  -976.095530830     A.U. after    6 cycles
 SCF Done:  E(RB3LYP) =  -976.095530829     A.U. after    6 cycles
 Optimization completed.
    -- Stationary point found.
 Normal termination of Gaussian 16 at Thu Dec 10 09:25:31 2020.

 --------------------------------------------------------------------
 #N Geom=AllCheck Guess=TCheck SCRF=Check GenChk RB3LYP/6-31G(d) Freq
 --------------------------------------------------------------------

 Structure from the checkpoint file:  "JID_4029.chk"
 -------------------------------
 CID_103088062_JID_4029_neutraal
 -------------------------------
 Charge =  0 Multiplicity = 1

 SCF Done:  E(RB3LYP) =  -976.095530829     A.U. after    1 cycles

  Exact polarizability: 141.475 -10.347 133.696   3.880  -0.601 122.960
 Approx polarizability: 189.985 -18.937 193.403   5.836  -5.393 190.027

                      1                      2                      3
                      A                      A                      A
 Frequencies --     24.7588                39.1498                41.7410
 Red. masses --      4.5428                 4.2083                 4.8976
 Frc consts  --      0.0016                 0.0038                 0.0050
 IR Inten    --      1.8712                 0.1092                 0.3427

                      4                      5                      6
                      A                      A                      A
 Frequencies --     63.8159                92.0565               100.9296
 Red. masses --      5.1144                 3.2886                 3.2831
 Frc consts  --      0.0123                 0.0164                 0.0197
 IR Inten    --      1.5342                 4.0845                 1.3703

                      7                      8                      9
                      A                      A                      A
 Frequencies --    135.2626               160.5109               185.7761
 Red. masses --      2.2192                 4.9949                 3.5689
 Frc consts  --      0.0239                 0.0758                 0.0726
 IR Inten    --      0.6663                 0.2303                 1.7655

                     10                     11                     12
                      A                      A                      A
 Frequencies --    222.1980               231.6945               256.5797
 Red. masses --      1.9133                 1.3806                 2.7481
 Frc consts  --      0.0557                 0.0437                 0.1066
 IR Inten    --      0.3817                 0.6563                 2.8240

                     13                     14                     15
                      A                      A                      A
 Frequencies --    279.9213               311.1680               316.2984
 Red. masses --      3.2211                 2.0774                 1.9899
 Frc consts  --      0.1487                 0.1185                 0.1173
 IR Inten    --      3.8242                 1.7714                 3.6492

                     16                     17                     18
                      A                      A                      A
 Frequencies --    360.1022               423.9083               482.0963
 Red. masses --      2.2115                 2.0275                 4.1394
 Frc consts  --      0.1690                 0.2147                 0.5668
 IR Inten    --      0.4437                 0.4753                 8.3688

                     19                     20                     21
                      A                      A                      A
 Frequencies --    501.8094               516.3304               563.7375
 Red. masses --      1.2491                 2.3238                 2.0880
 Frc consts  --      0.1853                 0.3650                 0.3910
 IR Inten    --     71.0036                 2.8860                68.2095

                     22                     23                     24
                      A                      A                      A
 Frequencies --    597.5637               628.5629               648.4653
 Red. masses --      2.8294                 1.9287                 3.6205
 Frc consts  --      0.5953                 0.4490                 0.8970
 IR Inten    --      0.9436                74.4743                 1.0660

                     25                     26                     27
                      A                      A                      A
 Frequencies --    660.6644               709.1123               714.1618
 Red. masses --      3.4778                 2.4558                 3.9687
 Frc consts  --      0.8944                 0.7276                 1.1926
 IR Inten    --     30.9801                43.6985                12.9863

                     28                     29                     30
                      A                      A                      A
 Frequencies --    760.7357               813.2213               833.0107
 Red. masses --      1.5844                 2.1360                 2.0095
 Frc consts  --      0.5402                 0.8323                 0.8216
 IR Inten    --     15.0247                 0.5008                 4.2457

                     31                     32                     33
                      A                      A                      A
 Frequencies --    848.5778               879.7961               921.5249
 Red. masses --      3.3862                 1.9845                 2.0266
 Frc consts  --      1.4366                 0.9051                 1.0140
 IR Inten    --      0.3051                 5.8217                 7.2860

                     34                     35                     36
                      A                      A                      A
 Frequencies --    938.0724               964.5217               981.7660
 Red. masses --      2.0617                 1.8245                 1.9517
 Frc consts  --      1.0689                 1.0001                 1.1084
 IR Inten    --      2.7512                 3.7769                 7.4265

                     37                     38                     39
                      A                      A                      A
 Frequencies --   1003.4606              1010.4961              1014.8142
 Red. masses --      1.1745                 1.7748                 1.8145
 Frc consts  --      0.6968                 1.0678                 1.1010
 IR Inten    --      7.7426                 3.8953                 1.8949

                     40                     41                     42
                      A                      A                      A
 Frequencies --   1025.7316              1071.9428              1073.8562
 Red. masses --      1.4297                 2.2219                 1.9707
 Frc consts  --      0.8863                 1.5042                 1.3390
 IR Inten    --      3.3372                 4.2537                 9.0445

                     43                     44                     45
                      A                      A                      A
 Frequencies --   1106.4634              1111.5302              1139.2943
 Red. masses --      1.7746                 2.7879                 1.6574
 Frc consts  --      1.2800                 2.0294                 1.2675
 IR Inten    --     14.0658                 2.2743                 4.7103

                     46                     47                     48
                      A                      A                      A
 Frequencies --   1169.6393              1189.8107              1206.8932
 Red. masses --      1.3260                 2.8665                 1.4510
 Frc consts  --      1.0688                 2.3909                 1.2453
 IR Inten    --     10.2935                39.3930                 7.8126

                     49                     50                     51
                      A                      A                      A
 Frequencies --   1221.9137              1241.8132              1264.1927
 Red. masses --      1.2944                 1.4181                 1.1967
 Frc consts  --      1.1387                 1.2885                 1.1268
 IR Inten    --      0.4732                10.9052                 2.5491

                     52                     53                     54
                      A                      A                      A
 Frequencies --   1286.2381              1305.9848              1317.8036
 Red. masses --      1.8061                 1.2647                 1.3863
 Frc consts  --      1.7605                 1.2710                 1.4184
 IR Inten    --     70.2096                 1.7221                15.0352

                     55                     56                     57
                      A                      A                      A
 Frequencies --   1328.2745              1346.0121              1348.8507
 Red. masses --      1.2652                 1.3377                 1.3357
 Frc consts  --      1.3152                 1.4280                 1.4318
 IR Inten    --     19.2274                26.2770                 6.1577

                     58                     59                     60
                      A                      A                      A
 Frequencies --   1369.7294              1376.9048              1395.9424
 Red. masses --      1.3705                 1.4434                 1.3617
 Frc consts  --      1.5150                 1.6123                 1.5634
 IR Inten    --      8.4254                15.8316                 2.4235

                     61                     62                     63
                      A                      A                      A
 Frequencies --   1399.9416              1409.1327              1424.2402
 Red. masses --      1.2168                 1.4129                 1.3664
 Frc consts  --      1.4051                 1.6529                 1.6330
 IR Inten    --      7.9933                 4.8024                 5.0078

                     64                     65                     66
                      A                      A                      A
 Frequencies --   1439.0460              1456.5371              1495.3067
 Red. masses --      1.4047                 1.8933                 1.0841
 Frc consts  --      1.7138                 2.3666                 1.4282
 IR Inten    --      7.0108                45.3056                 5.9743

                     67                     68                     69
                      A                      A                      A
 Frequencies --   1499.0718              1501.8516              1505.6862
 Red. masses --      1.0966                 1.1032                 1.0736
 Frc consts  --      1.4519                 1.4661                 1.4341
 IR Inten    --      2.7671                 0.8964                 1.8704

                     70                     71                     72
                      A                      A                      A
 Frequencies --   1509.5931              1513.3497              1524.0176
 Red. masses --      1.0982                 1.1218                 1.1113
 Frc consts  --      1.4745                 1.5137                 1.5207
 IR Inten    --      9.5364                29.6754                 9.8223

                     73                     74                     75
                      A                      A                      A
 Frequencies --   1528.1026              1537.6871              1563.3233
 Red. masses --      1.0554                 1.1535                 1.0801
 Frc consts  --      1.4520                 1.6069                 1.5553
 IR Inten    --     14.6630                19.7741                 7.2972

                     76                     77                     78
                      A                      A                      A
 Frequencies --   1819.4262              2980.6317              3010.1904
 Red. masses --      9.9959                 1.0831                 1.0710
 Frc consts  --     19.4958                 5.6694                 5.7179
 IR Inten    --    410.3310                57.0116                43.9592

                     79                     80                     81
                      A                      A                      A
 Frequencies --   3026.7947              3031.8975              3050.7004
 Red. masses --      1.0609                 1.0637                 1.0699
 Frc consts  --      5.7267                 5.7611                 5.8668
 IR Inten    --     47.5166                63.2536                 7.4959

                     82                     83                     84
                      A                      A                      A
 Frequencies --   3058.3391              3064.7136              3065.5261
 Red. masses --      1.0364                 1.0828                 1.0706
 Frc consts  --      5.7113                 5.9920                 5.9278
 IR Inten    --     40.2118                42.0814                 4.7119

                     85                     86                     87
                      A                      A                      A
 Frequencies --   3068.6149              3069.8211              3074.8928
 Red. masses --      1.0981                 1.0677                 1.0640
 Frc consts  --      6.0925                 5.9284                 5.9272
 IR Inten    --     21.0286                38.0635                14.3829

                     88                     89                     90
                      A                      A                      A
 Frequencies --   3080.0132              3098.0424              3125.1789
 Red. masses --      1.0871                 1.1034                 1.1033
 Frc consts  --      6.0759                 6.2398                 6.3489
 IR Inten    --     39.9289                46.0843                22.2393

                     91                     92                     93
                      A                      A                      A
 Frequencies --   3127.7694              3139.8648              3143.3888
 Red. masses --      1.0980                 1.0984                 1.1054
 Frc consts  --      6.3288                 6.3800                 6.4350
 IR Inten    --     22.0605                15.9575                15.6872

                     94                     95                     96
                      A                      A                      A
 Frequencies --   3155.2527              3542.1108              3626.3877
 Red. masses --      1.1067                 1.0728                 1.0776
 Frc consts  --      6.4917                 7.9302                 8.3497
 IR Inten    --      3.3207                 1.5407                19.8688

 - Thermochemistry -
 -------------------
 Temperature   298.150 Kelvin.  Pressure   1.00000 Atm.
 Atom     1 has atomic number  6 and mass  12.00000

 Molecular mass:   216.12964 amu.
 Principal axes and moments of inertia in atomic units:
                           1         2         3
     Eigenvalues --  2459.097603964.332785238.15836
           X            0.99990   0.00482   0.01314
           Y           -0.00487   0.99998   0.00400
           Z           -0.01312  -0.00407   0.99991
 This molecule is an asymmetric top.
 Rotational symmetry number  1.
 Warning -- assumption of classical behavior for rotation
           may cause significant error
 Rotational temperatures (Kelvin)      0.03522     0.02185     0.01654
 Rotational constants (GHZ):           0.73390     0.45524     0.34454
 Zero-point vibrational energy     794342.2 (Joules/Mol)
                                  189.85233 (Kcal/Mol)
 Warning -- explicit consideration of  22 degrees of freedom as
           vibrations may cause significant error
 Vibrational temperatures:     35.62    56.33    60.06    91.82   132.45
          (Kelvin)            145.22   194.61   230.94   267.29   319.69
                              333.36   369.16   402.74   447.70   455.08
                              518.11   609.91   693.63   721.99   742.88
                              811.09   859.76   904.36   933.00   950.55
                             1020.25  1027.52  1094.53  1170.04  1198.52
                             1220.91  1265.83  1325.87  1349.68  1387.73
                             1412.54  1443.76  1453.88  1460.09  1475.80
                             1542.29  1545.04  1591.95  1599.24  1639.19
                             1682.85  1711.87  1736.45  1758.06  1786.69
                             1818.89  1850.61  1879.02  1896.03  1911.09
                             1936.61  1940.70  1970.74  1981.06  2008.45
                             2014.20  2027.43  2049.16  2070.47  2095.63
                             2151.41  2156.83  2160.83  2166.35  2171.97
                             2177.37  2192.72  2198.60  2212.39  2249.27
                             2617.75  4288.46  4330.99  4354.88  4362.22
                             4389.28  4400.27  4409.44  4410.61  4415.05
                             4416.79  4424.08  4431.45  4457.39  4496.44
                             4500.16  4517.57  4522.64  4539.70  5096.31
                             5217.56

 Zero-point correction=                           0.302549 (Hartree/Particle)
 Thermal correction to Energy=                    0.318258
 Thermal correction to Enthalpy=                  0.319202
 Thermal correction to Gibbs Free Energy=         0.257836
 Sum of electronic and zero-point Energies=           -975.792982
 Sum of electronic and thermal Energies=              -975.777273
 Sum of electronic and thermal Enthalpies=            -975.776329
 Sum of electronic and thermal Free Energies=         -975.837694

                     E (Thermal)             CV                S
                      KCal/Mol        Cal/Mol-Kelvin    Cal/Mol-Kelvin
 Total                  199.710             58.293            129.154
 Electronic               0.000              0.000              0.000
 Translational            0.889              2.981             42.015
 Rotational               0.889              2.981             32.302
 Vibrational            197.932             52.332             54.837
 Vibration     1          0.593              1.985              6.210
 Vibration     2          0.594              1.981              5.302
 Vibration     3          0.594              1.980              5.175
 Vibration     4          0.597              1.972              4.336
 Vibration     5          0.602              1.955              3.616
 Vibration     6          0.604              1.948              3.436
 Vibration     7          0.613              1.918              2.870
 Vibration     8          0.622              1.891              2.544
 Vibration     9          0.632              1.859              2.270
 Vibration    10          0.648              1.807              1.941
 Vibration    11          0.653              1.793              1.866
 Vibration    12          0.666              1.752              1.685
 Vibration    13          0.680              1.711              1.534
 Vibration    14          0.700              1.652              1.356
 Vibration    15          0.703              1.642              1.329
 Vibration    16          0.735              1.554              1.122
 Vibration    17          0.786              1.418              0.879
 Vibration    18          0.838              1.290              0.704
 Vibration    19          0.857              1.246              0.654
 Vibration    20          0.871              1.214              0.619
 Vibration    21          0.920              1.110              0.516
 Vibration    22          0.955              1.037              0.454

 Optimization completed.
    -- Stationary point found.
 Normal termination of Gaussian 16 at Thu Dec 10 09:36:46 2020.

 ----------------------------------------------------------------------
 # B3LYP/6-311++G(d,p) empiricaldispersion=gd3bj scf=xqc pop=npa geom=c
 heck
 ----------------------------------------------------------------------

 ---------------------------------------
 CID_103088062_JID_4029_Energie_neutraal
 ---------------------------------------
 Structure from the checkpoint file:  "JID_4029.chk"
 Charge =  0 Multiplicity = 1

 SCF Done:  E(RB3LYP) =  -976.293374736     A.U. after   14 cycles
 Normal termination of Gaussian 16 at Thu Dec 10 09:42:13 2020.

 ----------------------------------------------------------------------
 # B3LYP/6-311++G(d,p) empiricaldispersion=gd3bj scf=xqc pop=npa geom=c
 heck
 ----------------------------------------------------------------------

 -------------------------------------
 CID_103088062_JID_4029_Energie_kation
 -------------------------------------
 Structure from the checkpoint file:  "JID_4029.chk"
 Charge =  1 Multiplicity = 2

 SCF Done:  E(UB3LYP) =  -976.007916909     A.U. after   27 cycles
 Normal termination of Gaussian 16 at Thu Dec 10 09:55:46 2020.
 Gaussian 16:  ES64L-G16RevA.03 25-Dec-2016

 ----------------------------------------------------------------------
 # B3LYP/6-311++G(d,p) empiricaldispersion=gd3bj scf=xqc pop=npa geom=c
 heck
 ----------------------------------------------------------------------

 ------------------------------------
 CID_103088062_JID_4029_Energie_anion
 ------------------------------------
 Structure from the checkpoint file:  "JID_4029.chk"
 Charge = -1 Multiplicity = 2

                         Standard orientation:
 ---------------------------------------------------------------------
 Center     Atomic      Atomic             Coordinates (Angstroms)
 Number     Number       Type             X           Y           Z
 ---------------------------------------------------------------------
      1          6           0       -2.283514    1.309481   -1.337009
      2         16           0       -3.107426    0.881246    0.239023
      3          6           0       -1.753025    0.054381    1.171806
      4          6           0       -1.792757   -1.478595    1.147025
      5          6           0       -1.571806   -2.130353   -0.226132
      6          6           0       -0.251680   -1.759788   -0.903976
      7          7           0        0.899946   -2.229035   -0.130668
      8          6           0        2.209756   -1.786635   -0.572270
      9          6           0        2.637335   -0.327145   -0.290656
     10          6           0        2.560114    0.091828    1.197738
     11          6           0        2.201945    1.585641    1.172163
     12          6           0        1.494800    1.777516   -0.170180
     13          8           0        0.804465    2.722571   -0.519303
     14          7           0        1.788251    0.675463   -0.924997
     15          1           0       -2.983253    1.949680   -1.881302
     16          1           0       -2.078017    0.423670   -1.944368
     17          1           0       -1.361656    1.869409   -1.156251
     18          1           0       -0.802339    0.447037    0.798627
     19          1           0       -1.854848    0.400897    2.205263
     20          1           0       -1.046740   -1.847702    1.867952
     21          1           0       -2.763130   -1.808760    1.535881
     22          1           0       -1.621876   -3.220221   -0.114058
     23          1           0       -2.394917   -1.836093   -0.887969
     24          1           0       -0.206611   -2.242616   -1.890130
     25          1           0       -0.236674   -0.677257   -1.083288
     26          1           0        0.769886   -2.040564    0.858092
     27          1           0        2.970360   -2.427651   -0.104657
     28          1           0        2.278608   -1.971313   -1.652806
     29          1           0        3.674349   -0.223130   -0.650684
     30          1           0        3.488577   -0.131936    1.728643
     31          1           0        1.752878   -0.463177    1.688607
     32          1           0        3.094299    2.223990    1.176305
     33          1           0        1.560328    1.911834    1.993650
     34          1           0        1.519495    0.640420   -1.898863
 ---------------------------------------------------------------------

 SCF Done:  E(UB3LYP) =  -976.284475035     A.U. after   31 cycles

 The electronic state is 2-A.
 Alpha  occ. eigenvalues --  -88.74631 -18.99371 -14.23845 -14.20311 -10.17455
 Alpha  occ. eigenvalues --  -10.11531 -10.10819 -10.09884 -10.09759 -10.09680
 Alpha  occ. eigenvalues --  -10.08653 -10.08152 -10.07950 -10.07868  -7.83228
 Alpha  occ. eigenvalues --   -5.79634  -5.79262  -5.78588  -0.94249  -0.84713
 Alpha  occ. eigenvalues --   -0.80966  -0.72641  -0.68950  -0.67984  -0.64839
 Alpha  occ. eigenvalues --   -0.62120  -0.57046  -0.54892  -0.51777  -0.50004
 Alpha  occ. eigenvalues --   -0.49293  -0.46865  -0.41778  -0.40913  -0.38749
 Alpha  occ. eigenvalues --   -0.37678  -0.36495  -0.35086  -0.34232  -0.33798
 Alpha  occ. eigenvalues --   -0.33109  -0.32668  -0.31709  -0.31305  -0.30545
 Alpha  occ. eigenvalues --   -0.29688  -0.29476  -0.29205  -0.27531  -0.25824
 Alpha  occ. eigenvalues --   -0.24717  -0.24415  -0.24127  -0.23803  -0.21453
 Alpha  occ. eigenvalues --   -0.17074  -0.16136  -0.13319  -0.12524   0.04125
 Alpha virt. eigenvalues --    0.06181   0.06767   0.07655   0.08298   0.08478
 Alpha virt. eigenvalues --    0.08897   0.09605   0.10300   0.10658   0.11158
 Alpha virt. eigenvalues --    0.11419   0.11743   0.11903   0.12119   0.12350

  Beta  occ. eigenvalues --  -88.74630 -18.99369 -14.23818 -14.20304 -10.17456
  Beta  occ. eigenvalues --  -10.11507 -10.10810 -10.09854 -10.09753 -10.09667
  Beta  occ. eigenvalues --  -10.08643 -10.08129 -10.07914 -10.07863  -7.83227
  Beta  occ. eigenvalues --   -5.79633  -5.79259  -5.78587  -0.94242  -0.84677
  Beta  occ. eigenvalues --   -0.80943  -0.72626  -0.68898  -0.67961  -0.64801
  Beta  occ. eigenvalues --   -0.62090  -0.57010  -0.54825  -0.51752  -0.49923
  Beta  occ. eigenvalues --   -0.49239  -0.46835  -0.41722  -0.40883  -0.38726
  Beta  occ. eigenvalues --   -0.37651  -0.36467  -0.35067  -0.34188  -0.33769
  Beta  occ. eigenvalues --   -0.33082  -0.32646  -0.31668  -0.31271  -0.30518
  Beta  occ. eigenvalues --   -0.29661  -0.29450  -0.29150  -0.27508  -0.25803
  Beta  occ. eigenvalues --   -0.24683  -0.24378  -0.24104  -0.23768  -0.21439
  Beta  occ. eigenvalues --   -0.17041  -0.16118  -0.13312  -0.12498
  Beta virt. eigenvalues --    0.06456   0.06813   0.07533   0.07984   0.08829
  Beta virt. eigenvalues --    0.09115   0.09353   0.09876   0.10571   0.10836
  Beta virt. eigenvalues --    0.11640   0.11831   0.12062   0.12186   0.12387

 Mulliken charges and spin densities:
               1          2
     1  C   -0.721854   0.003906
     2  S    0.057447  -0.052418
     3  C    0.131294  -0.058524
     4  C   -0.530298   0.136069
     5  C   -0.421373  -0.183569
     6  C   -0.375621  -0.020357
     7  N    0.095505  -0.042825
     8  C    0.448437  -1.090377
     9  C   -0.424131   0.856742
    10  C    1.868608  -2.272665
    11  C   -0.024680  -0.364677
    12  C    0.167836  -0.163006
    13  O   -0.355283   0.019847
    14  N   -0.028622  -0.190074
    15  H    0.081636   0.088728
    16  H    0.023644   0.132044
    17  H    0.204458   0.001332
    18  H    0.841492  -0.821353
    19  H    0.051793   0.217059
    20  H   -0.203480   0.330280
    21  H    0.102833   0.045979
    22  H    0.148083   0.018960
    23  H    0.083026   0.064528
    24  H   -0.313343   0.485226
    25  H    0.895272  -0.738011
    26  H    0.143645   0.031333
    27  H   -0.225985   0.413752
    28  H   -0.398617   0.564909
    29  H   -0.995275   1.258147
    30  H   -0.719098   0.929778
    31  H   -0.203541   0.279055
    32  H   -0.144442   0.333436
    33  H   -0.135046   0.326480
    34  H   -0.124317   0.460265
 Sum of Mulliken charges =  -1.00000   1.00000

 Dipole moment (field-independent basis, Debye):
    X=             -8.1248    Y=             -0.4209    Z=              0.0283  Tot=              8.1357
 Quadrupole moment (field-independent basis, Debye-Ang):
   XX=           -173.6852   YY=           -143.4785   ZZ=           -134.8150
   XY=              5.9632   XZ=              0.4479   YZ=             -2.2599

 Summary of Natural Population Analysis:

                                       Natural Population
                Natural  -----------------------------------------------
    Atom  No    Charge         Core      Valence    Rydberg      Total
 -----------------------------------------------------------------------
      C    1   -0.35311      0.99961     2.34794    0.00556     3.35311
      S    2    0.07458      4.99964     2.90847    0.01731     7.92542
      C    3   -0.25577      0.99958     2.24444    0.01175     3.25577
      C    4   -0.19714      0.99961     2.18733    0.01020     3.19714
      C    5   -0.19499      0.99962     2.18732    0.00805     3.19499
      C    6   -0.09109      0.99961     2.08059    0.01090     3.09109
      N    7   -0.34457      0.99974     2.83258    0.01225     3.84457
      C    8   -0.08728      0.99960     2.07470    0.01297     3.08728
      C    9   -0.01241      0.99959     1.99894    0.01387     3.01241
      C   10   -0.19146      0.99962     2.18259    0.00925     3.19146
      C   11   -0.22999      0.99959     2.22226    0.00813     3.22999
      C   12    0.34188      0.99966     1.63410    0.02436     2.65812
      O   13   -0.32715      0.99987     3.32173    0.00555     4.32715
      N   14   -0.32374      0.99966     2.81258    0.01150     3.82374
      H   15    0.10320      0.00000     0.39597    0.00082     0.39680
      H   16    0.09700      0.00000     0.40132    0.00167     0.40300
      H   17    0.11942      0.00000     0.37887    0.00171     0.38058
      H   18    0.10659      0.00000     0.39118    0.00223     0.39341
      H   19    0.10560      0.00000     0.39322    0.00118     0.39440
      H   20    0.09537      0.00000     0.40324    0.00139     0.40463
      H   21    0.09951      0.00000     0.39910    0.00140     0.40049
      H   22    0.09981      0.00000     0.39902    0.00117     0.40019
      H   23    0.10089      0.00000     0.39782    0.00129     0.39911
      H   24    0.09215      0.00000     0.40665    0.00120     0.40785
      H   25    0.08382      0.00000     0.41344    0.00273     0.41618
      H   26    0.17138      0.00000     0.32431    0.00431     0.32862
      H   27    0.10011      0.00000     0.39837    0.00152     0.39989
      H   28    0.09668      0.00000     0.40140    0.00192     0.40332
      H   29    0.09619      0.00000     0.39863    0.00518     0.40381
      H   30    0.11069      0.00000     0.38552    0.00379     0.38931
      H   31    0.09192      0.00000     0.40567    0.00242     0.40808
      H   32    0.11250      0.00000     0.38625    0.00126     0.38750
      H   33    0.10939      0.00000     0.38958    0.00104     0.39061
      H   34    0.20002      0.00000     0.29686    0.00312     0.29998
 =======================================================================
   * Total *    0.00000     17.99501    40.80200    0.20299    59.00000

 Normal termination of Gaussian 16 at Thu Dec 10 10:12:33 2020.
