 Gaussian 16, Revision A.03,

 -----------------------------------------------------------
 # opt freq B3LYP/6-31G(d) empiricaldispersion=gd3bj scf=xqc
 -----------------------------------------------------------

 -------------------------------
 CID_131245319_JID_3763_neutraal
 -------------------------------
 Symbolic Z-matrix:
 Charge =  0 Multiplicity = 1

 SCF Done:  E(RB3LYP) =  -900.810466790     A.U. after   13 cycles
 SCF Done:  E(RB3LYP) =  -900.814863189     A.U. after   11 cycles
 SCF Done:  E(RB3LYP) =  -900.815284487     A.U. after   11 cycles
 SCF Done:  E(RB3LYP) =  -900.815444649     A.U. after   10 cycles
 SCF Done:  E(RB3LYP) =  -900.815506051     A.U. after   10 cycles
 SCF Done:  E(RB3LYP) =  -900.815529086     A.U. after   10 cycles
 SCF Done:  E(RB3LYP) =  -900.815530813     A.U. after    8 cycles
 SCF Done:  E(RB3LYP) =  -900.815530970     A.U. after    7 cycles
 Optimization completed.
    -- Stationary point found.
 Normal termination of Gaussian 16 at Mon Dec 14 13:06:50 2020.

 --------------------------------------------------------------------
 #N Geom=AllCheck Guess=TCheck SCRF=Check GenChk RB3LYP/6-31G(d) Freq
 --------------------------------------------------------------------

 Structure from the checkpoint file:  "JID_3763.chk"
 -------------------------------
 CID_131245319_JID_3763_neutraal
 -------------------------------
 Charge =  0 Multiplicity = 1

 SCF Done:  E(RB3LYP) =  -900.815530970     A.U. after    1 cycles

  Exact polarizability: 169.317   4.691 135.186  -3.460   3.382 106.876
 Approx polarizability: 204.110  14.877 202.643  -6.129   5.868 166.618

                      1                      2                      3
                      A                      A                      A
 Frequencies --     30.2695                42.0493                51.2935
 Red. masses --      4.2884                 3.8797                 3.1085
 Frc consts  --      0.0023                 0.0040                 0.0048
 IR Inten    --      0.4362                 0.3809                 0.9341

                      4                      5                      6
                      A                      A                      A
 Frequencies --    106.6975               117.5473               126.0457
 Red. masses --      3.2776                 2.7393                 2.7563
 Frc consts  --      0.0220                 0.0223                 0.0258
 IR Inten    --      0.5001                 3.6461                 1.5344

                      7                      8                      9
                      A                      A                      A
 Frequencies --    191.9687               208.6298               228.5181
 Red. masses --      2.3171                 2.4766                 1.9323
 Frc consts  --      0.0503                 0.0635                 0.0595
 IR Inten    --      6.6870                 0.6173                 2.6606

                     10                     11                     12
                      A                      A                      A
 Frequencies --    244.5999               253.2513               279.5600
 Red. masses --      1.5761                 2.0428                 2.5668
 Frc consts  --      0.0556                 0.0772                 0.1182
 IR Inten    --      0.1785                10.9158                 6.3793

                     13                     14                     15
                      A                      A                      A
 Frequencies --    302.8060               308.0822               355.4280
 Red. masses --      2.1915                 1.4805                 2.5666
 Frc consts  --      0.1184                 0.0828                 0.1910
 IR Inten    --     24.5118                24.0760                 2.2448

                     16                     17                     18
                      A                      A                      A
 Frequencies --    391.6702               393.3734               439.2535
 Red. masses --      3.3638                 2.4290                 2.6684
 Frc consts  --      0.3040                 0.2215                 0.3033
 IR Inten    --      1.6585                 0.4587                 7.1807

                     19                     20                     21
                      A                      A                      A
 Frequencies --    459.0376               517.4852               538.0387
 Red. masses --      2.2839                 2.3393                 2.5115
 Frc consts  --      0.2835                 0.3691                 0.4284
 IR Inten    --     15.2799                 0.5360                 1.4841

                     22                     23                     24
                      A                      A                      A
 Frequencies --    594.2166               628.9873               689.3457
 Red. masses --      2.5350                 3.3497                 4.9516
 Frc consts  --      0.5274                 0.7808                 1.3863
 IR Inten    --      9.8467                 0.7711                 4.5822

                     25                     26                     27
                      A                      A                      A
 Frequencies --    759.9343               827.5206               845.4054
 Red. masses --      2.3724                 1.7020                 1.9881
 Frc consts  --      0.8072                 0.6867                 0.8372
 IR Inten    --      2.5832                42.6384                 2.0673

                     28                     29                     30
                      A                      A                      A
 Frequencies --    863.1511               880.2745               912.2269
 Red. masses --      1.9162                 1.3575                 1.7779
 Frc consts  --      0.8411                 0.6197                 0.8717
 IR Inten    --      4.4057                80.1077                21.3865

                     31                     32                     33
                      A                      A                      A
 Frequencies --    939.4892               968.3260               975.3146
 Red. masses --      1.8239                 1.5012                 1.7542
 Frc consts  --      0.9485                 0.8293                 0.9831
 IR Inten    --      0.5125                15.6784                 2.5201

                     34                     35                     36
                      A                      A                      A
 Frequencies --   1012.4805              1019.9700              1024.3539
 Red. masses --      1.5903                 1.5149                 2.2260
 Frc consts  --      0.9605                 0.9286                 1.3762
 IR Inten    --      7.8298                18.6745                15.5791

                     37                     38                     39
                      A                      A                      A
 Frequencies --   1034.4763              1046.2705              1057.1003
 Red. masses --      2.3151                 2.1925                 1.7714
 Frc consts  --      1.4597                 1.4141                 1.1663
 IR Inten    --      1.0085                 4.9244                 5.0905

                     40                     41                     42
                      A                      A                      A
 Frequencies --   1095.5556              1116.0566              1127.7319
 Red. masses --      3.1053                 2.2403                 1.8899
 Frc consts  --      2.1960                 1.6441                 1.4161
 IR Inten    --     16.7920                 5.7782                29.4774

                     43                     44                     45
                      A                      A                      A
 Frequencies --   1150.6252              1173.9398              1183.5635
 Red. masses --      2.2722                 1.4852                 1.5186
 Frc consts  --      1.7724                 1.2059                 1.2534
 IR Inten    --     27.4132                11.2097                 8.5167

                     46                     47                     48
                      A                      A                      A
 Frequencies --   1206.6421              1229.0872              1253.0099
 Red. masses --      2.0076                 1.2007                 1.3132
 Frc consts  --      1.7222                 1.0687                 1.2148
 IR Inten    --     16.6842                 2.4604                10.3188

                     49                     50                     51
                      A                      A                      A
 Frequencies --   1262.2105              1292.1028              1319.1907
 Red. masses --      1.1980                 1.3353                 1.3761
 Frc consts  --      1.1245                 1.3135                 1.4110
 IR Inten    --     14.1093                13.2629                 1.6139

                     52                     53                     54
                      A                      A                      A
 Frequencies --   1321.3294              1332.9853              1348.7501
 Red. masses --      1.2327                 1.2922                 1.2294
 Frc consts  --      1.2681                 1.3528                 1.3177
 IR Inten    --     25.2557                 1.2758                 9.4426

                     55                     56                     57
                      A                      A                      A
 Frequencies --   1351.9333              1360.5980              1391.9044
 Red. masses --      1.2210                 1.2558                 1.5792
 Frc consts  --      1.3148                 1.3697                 1.8026
 IR Inten    --      5.7684                20.9517                21.1537

                     58                     59                     60
                      A                      A                      A
 Frequencies --   1398.5756              1409.4022              1413.7562
 Red. masses --      1.3084                 1.3255                 1.3819
 Frc consts  --      1.5079                 1.5514                 1.6273
 IR Inten    --     27.4601                 3.9735                 2.5855

                     61                     62                     63
                      A                      A                      A
 Frequencies --   1438.7185              1439.9031              1444.0806
 Red. masses --      1.2417                 1.4298                 1.3788
 Frc consts  --      1.5143                 1.7466                 1.6941
 IR Inten    --      1.2145                33.4973                13.1950

                     64                     65                     66
                      A                      A                      A
 Frequencies --   1491.3387              1494.2429              1502.2420
 Red. masses --      1.0859                 1.0961                 1.0889
 Frc consts  --      1.4229                 1.4419                 1.4478
 IR Inten    --      2.8936                 3.2945                12.0904

                     67                     68                     69
                      A                      A                      A
 Frequencies --   1523.5315              1528.3523              1530.5284
 Red. masses --      1.0420                 1.0745                 1.0501
 Frc consts  --      1.4250                 1.4788                 1.4494
 IR Inten    --      7.1347                 4.1944                 2.3870

                     70                     71                     72
                      A                      A                      A
 Frequencies --   1531.3699              1541.0481              1691.7949
 Red. masses --      1.0891                 1.1032                 1.0966
 Frc consts  --      1.5048                 1.5436                 1.8493
 IR Inten    --      0.6220                 9.6590                27.2593

                     73                     74                     75
                      A                      A                      A
 Frequencies --   1751.4238              2900.0905              2961.1125
 Red. masses --      5.8423                 1.0732                 1.0715
 Frc consts  --     10.5589                 5.3181                 5.5356
 IR Inten    --      1.4253                87.6637                73.4071

                     76                     77                     78
                      A                      A                      A
 Frequencies --   2989.1421              3012.7912              3029.3259
 Red. masses --      1.0718                 1.0682                 1.0614
 Frc consts  --      5.6421                 5.7126                 5.7389
 IR Inten    --     37.5778                38.7644                45.8706

                     79                     80                     81
                      A                      A                      A
 Frequencies --   3030.0015              3041.1691              3051.1520
 Red. masses --      1.0819                 1.0890                 1.0357
 Frc consts  --      5.8521                 5.9339                 5.6811
 IR Inten    --     10.5962                43.1189                32.3311

                     82                     83                     84
                      A                      A                      A
 Frequencies --   3055.5724              3068.0900              3071.4738
 Red. masses --      1.0845                 1.0680                 1.0983
 Frc consts  --      5.9658                 5.9231                 6.1046
 IR Inten    --     22.0227                31.2791                13.0880

                     85                     86                     87
                      A                      A                      A
 Frequencies --   3085.0166              3089.7784              3115.8655
 Red. masses --      1.0932                 1.0936                 1.1020
 Frc consts  --      6.1301                 6.1513                 6.3035
 IR Inten    --     22.0498                33.5187                29.0150

                     88                     89                     90
                      A                      A                      A
 Frequencies --   3117.9982              3131.9359              3141.1067
 Red. masses --      1.1036                 1.1025                 1.0902
 Frc consts  --      6.3216                 6.3718                 6.3374
 IR Inten    --     19.1997                22.5681                11.9110

                     91                     92                     93
                      A                      A                      A
 Frequencies --   3149.3621              3462.3379              3551.0591
 Red. masses --      1.0871                 1.0494                 1.0929
 Frc consts  --      6.3528                 7.4120                 8.1196
 IR Inten    --     28.6576                 5.7675                 1.7744

 - Thermochemistry -
 -------------------
 Temperature   298.150 Kelvin.  Pressure   1.00000 Atm.
 Atom     1 has atomic number  6 and mass  12.00000

 Molecular mass:   200.13472 amu.
 Principal axes and moments of inertia in atomic units:
                           1         2         3
     Eigenvalues --  1285.423936238.486436919.93889
           X            0.99992  -0.01231  -0.00286
           Y            0.01235   0.99980   0.01580
           Z            0.00266  -0.01583   0.99987
 This molecule is an asymmetric top.
 Rotational symmetry number  1.
 Warning -- assumption of classical behavior for rotation
           may cause significant error
 Rotational temperatures (Kelvin)      0.06738     0.01388     0.01252
 Rotational constants (GHZ):           1.40400     0.28929     0.26080
 Zero-point vibrational energy     779764.0 (Joules/Mol)
                                  186.36806 (Kcal/Mol)
 Warning -- explicit consideration of  22 degrees of freedom as
           vibrations may cause significant error
 Vibrational temperatures:     43.55    60.50    73.80   153.51   169.12
          (Kelvin)            181.35   276.20   300.17   328.79   351.92
                              364.37   402.22   435.67   443.26   511.38
                              563.53   565.98   631.99   660.45   744.55
                              774.12   854.95   904.97   991.81  1093.38
                             1190.62  1216.35  1241.88  1266.52  1312.49
                             1351.72  1393.21  1403.26  1456.73  1467.51
                             1473.82  1488.38  1505.35  1520.93  1576.26
                             1605.76  1622.55  1655.49  1689.04  1702.88
                             1736.09  1768.38  1802.80  1816.04  1859.05
                             1898.02  1901.10  1917.87  1940.55  1945.13
                             1957.60  2002.64  2012.24  2027.82  2034.08
                             2069.99  2071.70  2077.71  2145.70  2149.88
                             2161.39  2192.02  2198.96  2202.09  2203.30
                             2217.22  2434.12  2519.91  4172.58  4260.38
                             4300.71  4334.73  4358.52  4359.50  4375.56
                             4389.93  4396.29  4414.30  4419.17  4438.65
                             4445.50  4483.04  4486.10  4506.16  4519.35
                             4531.23  4981.53  5109.18

 Zero-point correction=                           0.296996 (Hartree/Particle)
 Thermal correction to Energy=                    0.311805
 Thermal correction to Enthalpy=                  0.312749
 Thermal correction to Gibbs Free Energy=         0.254249
 Sum of electronic and zero-point Energies=           -900.518535
 Sum of electronic and thermal Energies=              -900.503726
 Sum of electronic and thermal Enthalpies=            -900.502782
 Sum of electronic and thermal Free Energies=         -900.561282

                     E (Thermal)             CV                S
                      KCal/Mol        Cal/Mol-Kelvin    Cal/Mol-Kelvin
 Total                  195.661             55.525            123.124
 Electronic               0.000              0.000              0.000
 Translational            0.889              2.981             41.786
 Rotational               0.889              2.981             32.384
 Vibrational            193.883             49.563             48.953
 Vibration     1          0.594              1.984              5.812
 Vibration     2          0.595              1.980              5.160
 Vibration     3          0.596              1.977              4.767
 Vibration     4          0.606              1.944              3.328
 Vibration     5          0.608              1.935              3.140
 Vibration     6          0.611              1.927              3.006
 Vibration     7          0.634              1.851              2.209
 Vibration     8          0.642              1.828              2.056
 Vibration     9          0.651              1.798              1.891
 Vibration    10          0.660              1.772              1.769
 Vibration    11          0.664              1.757              1.708
 Vibration    12          0.680              1.711              1.536
 Vibration    13          0.694              1.668              1.401
 Vibration    14          0.698              1.658              1.373
 Vibration    15          0.731              1.564              1.142
 Vibration    16          0.759              1.488              0.994
 Vibration    17          0.761              1.484              0.987
 Vibration    18          0.799              1.385              0.829
 Vibration    19          0.817              1.341              0.769
 Vibration    20          0.872              1.211              0.616
 Vibration    21          0.893              1.166              0.570
 Vibration    22          0.952              1.044              0.460

                           ! Non-Optimized Parameters !
 Normal termination of Gaussian 16 at Mon Dec 14 13:14:47 2020.

 ----------------------------------------------------------------------
 # B3LYP/6-311++G(d,p) empiricaldispersion=gd3bj scf=xqc pop=npa geom=c
 heck
 ----------------------------------------------------------------------

 ---------------------------------------
 CID_131245319_JID_3763_Energie_neutraal
 ---------------------------------------
 Structure from the checkpoint file:  "JID_3763.chk"
 Charge =  0 Multiplicity = 1

 SCF Done:  E(RB3LYP) =  -900.990847285     A.U. after   14 cycles
 Normal termination of Gaussian 16 at Mon Dec 14 13:18:09 2020.

 ----------------------------------------------------------------------
 # B3LYP/6-311++G(d,p) empiricaldispersion=gd3bj scf=xqc pop=npa geom=c
 heck
 ----------------------------------------------------------------------

 -------------------------------------
 CID_131245319_JID_3763_Energie_kation
 -------------------------------------
 Structure from the checkpoint file:  "JID_3763.chk"
 Charge =  1 Multiplicity = 2

 SCF Done:  E(UB3LYP) =  -900.721040973     A.U. after   26 cycles
 Normal termination of Gaussian 16 at Mon Dec 14 13:26:26 2020.
 Gaussian 16:  ES64L-G16RevA.03 25-Dec-2016

 ----------------------------------------------------------------------
 # B3LYP/6-311++G(d,p) empiricaldispersion=gd3bj scf=xqc pop=npa geom=c
 heck
 ----------------------------------------------------------------------

 ------------------------------------
 CID_131245319_JID_3763_Energie_anion
 ------------------------------------
 Structure from the checkpoint file:  "JID_3763.chk"
 Charge = -1 Multiplicity = 2

                         Standard orientation:
 ---------------------------------------------------------------------
 Center     Atomic      Atomic             Coordinates (Angstroms)
 Number     Number       Type             X           Y           Z
 ---------------------------------------------------------------------
      1          6           0       -3.857732    1.870593    0.242755
      2          6           0       -2.696900    1.037667   -0.305240
      3          6           0       -1.360037    1.490487    0.289767
      4          6           0       -0.111248    0.711447   -0.149989
      5          7           0       -0.034899   -0.607102    0.474435
      6          6           0       -0.462103   -1.739452   -0.323536
      7          6           0       -1.805748   -1.523140   -1.027772
      8         16           0       -3.110827   -0.740359   -0.012524
      9          6           0        1.177708   -0.849270    1.255492
     10          6           0        2.457649   -0.854219    0.456156
     11          6           0        3.442718    0.033814    0.610564
     12          6           0        4.701040    0.073797   -0.207791
     13          7           0        4.856369    1.403314   -0.816187
     14          1           0       -4.805534    1.591439   -0.227352
     15          1           0       -3.679282    2.935769    0.055543
     16          1           0       -3.957841    1.732221    1.325282
     17          1           0       -2.657399    1.157298   -1.396586
     18          1           0       -1.226414    2.547777    0.012874
     19          1           0       -1.417717    1.445178    1.383766
     20          1           0        0.773587    1.285859    0.143710
     21          1           0       -0.063617    0.648594   -1.249554
     22          1           0       -0.546647   -2.598864    0.353335
     23          1           0        0.266298   -2.023957   -1.111308
     24          1           0       -2.196059   -2.491880   -1.354910
     25          1           0       -1.683683   -0.913957   -1.929612
     26          1           0        1.242898   -0.082841    2.038048
     27          1           0        1.044714   -1.812591    1.766686
     28          1           0        2.549512   -1.618699   -0.317068
     29          1           0        3.356005    0.814172    1.368001
     30          1           0        5.569314   -0.082060    0.448038
     31          1           0        4.694214   -0.763505   -0.928526
     32          1           0        5.734715    1.447488   -1.330534
     33          1           0        4.113805    1.544471   -1.499622
 ---------------------------------------------------------------------

 SCF Done:  E(UB3LYP) =  -900.977097996     A.U. after   33 cycles
 SCF Done:  E(UB3LYP) =  -900.977097996     a.u. after    1 cycles

 The electronic state is 2-A.
 Alpha  occ. eigenvalues --  -88.73917 -14.20577 -14.18768 -10.11238 -10.10440
 Alpha  occ. eigenvalues --  -10.10439 -10.10410 -10.09670 -10.09267 -10.08108
 Alpha  occ. eigenvalues --  -10.07556 -10.07220 -10.06967  -7.82553  -5.78943
 Alpha  occ. eigenvalues --   -5.78592  -5.77913  -0.83345  -0.77929  -0.73246
 Alpha  occ. eigenvalues --   -0.69501  -0.68391  -0.63971  -0.60809  -0.57675
 Alpha  occ. eigenvalues --   -0.55323  -0.52947  -0.47188  -0.46960  -0.45334
 Alpha  occ. eigenvalues --   -0.40001  -0.39752  -0.38477  -0.37826  -0.35872
 Alpha  occ. eigenvalues --   -0.35234  -0.35109  -0.32887  -0.32252  -0.31916
 Alpha  occ. eigenvalues --   -0.30914  -0.30368  -0.28359  -0.27880  -0.26729
 Alpha  occ. eigenvalues --   -0.26152  -0.25719  -0.25016  -0.24384  -0.23978
 Alpha  occ. eigenvalues --   -0.20857  -0.16451  -0.14203  -0.13175  -0.11195
 Alpha  occ. eigenvalues --    0.04415
 Alpha virt. eigenvalues --    0.06062   0.06490   0.07450   0.08099   0.08612
 Alpha virt. eigenvalues --    0.08818   0.09358   0.09625   0.10078   0.10781
 Alpha virt. eigenvalues --    0.10919   0.10988   0.11364   0.12226   0.12589

  Beta  occ. eigenvalues --  -88.73916 -14.20565 -14.18715 -10.11224 -10.10439
  Beta  occ. eigenvalues --  -10.10427 -10.10391 -10.09653 -10.09239 -10.08096
  Beta  occ. eigenvalues --  -10.07547 -10.07223 -10.06939  -7.82550  -5.78941
  Beta  occ. eigenvalues --   -5.78591  -5.77911  -0.83319  -0.77846  -0.73222
  Beta  occ. eigenvalues --   -0.69468  -0.68356  -0.63942  -0.60778  -0.57632
  Beta  occ. eigenvalues --   -0.55276  -0.52888  -0.47148  -0.46913  -0.45283
  Beta  occ. eigenvalues --   -0.39967  -0.39724  -0.38430  -0.37785  -0.35829
  Beta  occ. eigenvalues --   -0.35196  -0.35070  -0.32853  -0.32210  -0.31880
  Beta  occ. eigenvalues --   -0.30868  -0.30339  -0.28327  -0.27849  -0.26703
  Beta  occ. eigenvalues --   -0.26120  -0.25697  -0.24984  -0.24354  -0.23952
  Beta  occ. eigenvalues --   -0.20834  -0.16390  -0.14146  -0.13155  -0.11140
  Beta virt. eigenvalues --    0.06352   0.06812   0.07322   0.07756   0.08390
  Beta virt. eigenvalues --    0.09004   0.09224   0.09695   0.09861   0.10314
  Beta virt. eigenvalues --    0.10908   0.11160   0.11354   0.11660   0.12447

 Mulliken charges and spin densities:
               1          2
     1  C    0.230741  -0.983822
     2  C   -0.073961   0.467910
     3  C   -0.014192  -0.413061
     4  C   -0.451123  -0.248467
     5  N    0.231646   0.069756
     6  C    0.195599  -0.454440
     7  C   -0.264899  -0.230175
     8  S    0.180364  -0.159978
     9  C   -0.485083  -0.046507
    10  C    0.335853  -0.102308
    11  C   -1.226762   1.260047
    12  C    1.993516  -2.682865
    13  N   -0.458151   0.115461
    14  H   -0.019850   0.170515
    15  H   -0.048528   0.183576
    16  H    0.120137   0.022979
    17  H   -0.183755   0.407834
    18  H   -0.038651   0.158554
    19  H    0.137189   0.008856
    20  H    0.259309  -0.099743
    21  H   -0.223344   0.364936
    22  H    0.146444  -0.030824
    23  H   -0.298327   0.416882
    24  H   -0.198843   0.438202
    25  H    0.089975   0.089434
    26  H    0.149734   0.015823
    27  H    0.027984   0.122001
    28  H    0.082921   0.073271
    29  H   -0.064915   0.192121
    30  H   -0.194856   0.337326
    31  H   -0.574993   0.724995
    32  H   -0.203521   0.438773
    33  H   -0.157656   0.372935
 Sum of Mulliken charges =  -1.00000   1.00000

 Dipole moment (field-independent basis, Debye):
    X=             -7.1898    Y=             -1.3928    Z=              5.5349  Tot=              9.1797
 Quadrupole moment (field-independent basis, Debye-Ang):
   XX=           -199.5060   YY=           -128.5480   ZZ=           -125.4745
   XY=             -8.0120   XZ=             12.2394   YZ=              2.7092

 Summary of Natural Population Analysis:

                                       Natural Population
                Natural  -----------------------------------------------
    Atom  No    Charge         Core      Valence    Rydberg      Total
 -----------------------------------------------------------------------
      C    1   -0.28854      0.99964     2.28196    0.00694     3.28854
      C    2   -0.16402      0.99957     2.15090    0.01355     3.16402
      C    3   -0.19575      0.99958     2.18524    0.01092     3.19575
      C    4   -0.08932      0.99960     2.07703    0.01269     3.08932
      N    5   -0.28354      0.99971     2.77154    0.01229     3.78354
      C    6   -0.08277      0.99959     2.07127    0.01191     3.08277
      C    7   -0.25997      0.99959     2.24926    0.01112     3.25997
      S    8    0.08667      4.99959     2.89695    0.01679     7.91333
      C    9   -0.09262      0.99960     2.08108    0.01194     3.09262
      C   10   -0.10017      0.99950     2.09167    0.00900     3.10017
      C   11   -0.08972      0.99951     2.07950    0.01070     3.08972
      C   12   -0.10392      0.99962     2.09151    0.01279     3.10392
      N   13   -0.42144      0.99977     2.91096    0.01071     3.92144
      H   14    0.10303      0.00000     0.39603    0.00094     0.39697
      H   15    0.10223      0.00000     0.39685    0.00092     0.39777
      H   16    0.09842      0.00000     0.40070    0.00088     0.40158
      H   17    0.09791      0.00000     0.40015    0.00194     0.40209
      H   18    0.09833      0.00000     0.40051    0.00116     0.40167
      H   19    0.09853      0.00000     0.40009    0.00138     0.40147
      H   20    0.10221      0.00000     0.39633    0.00145     0.39779
      H   21    0.09130      0.00000     0.40649    0.00221     0.40870
      H   22    0.09257      0.00000     0.40600    0.00143     0.40743
      H   23    0.08564      0.00000     0.41249    0.00187     0.41436
      H   24    0.10883      0.00000     0.39032    0.00086     0.39117
      H   25    0.10327      0.00000     0.39454    0.00218     0.39673
      H   26    0.09318      0.00000     0.40573    0.00110     0.40682
      H   27    0.09599      0.00000     0.40285    0.00116     0.40401
      H   28    0.09374      0.00000     0.40471    0.00155     0.40626
      H   29    0.09099      0.00000     0.40758    0.00142     0.40901
      H   30    0.09245      0.00000     0.40616    0.00139     0.40755
      H   31    0.08334      0.00000     0.41380    0.00286     0.41666
      H   32    0.17767      0.00000     0.31810    0.00423     0.32233
      H   33    0.17547      0.00000     0.32123    0.00330     0.32453
 =======================================================================
   * Total *    0.00000     16.99487    37.81953    0.18560    55.00000

 Normal termination of Gaussian 16 at Mon Dec 14 13:37:03 2020.
