 Gaussian 16, Revision A.03,

 -----------------------------------------------------------
 # opt freq B3LYP/6-31G(d) empiricaldispersion=gd3bj scf=xqc
 -----------------------------------------------------------

 -----------------------------
 CID_70110095_JID_737_neutraal
 -----------------------------
 Symbolic Z-matrix:
 Charge =  0 Multiplicity = 1

 SCF Done:  E(RB3LYP) =  -437.639906454     A.U. after   14 cycles
 SCF Done:  E(RB3LYP) =  -437.642741102     A.U. after   12 cycles
 SCF Done:  E(RB3LYP) =  -437.642983525     A.U. after   11 cycles
 SCF Done:  E(RB3LYP) =  -437.643004807     A.U. after   11 cycles
 SCF Done:  E(RB3LYP) =  -437.643016232     A.U. after    9 cycles
 SCF Done:  E(RB3LYP) =  -437.643023425     A.U. after   10 cycles
 SCF Done:  E(RB3LYP) =  -437.643024322     A.U. after    9 cycles
 SCF Done:  E(RB3LYP) =  -437.643024563     A.U. after    8 cycles
 Optimization completed.
    -- Stationary point found.

 1\1\GINC-NODE200\FOpt\RB3LYP\6-31G(d)\C7H11N3\VSC10255\08-Dec-2020\0\\
 # opt freq B3LYP/6-31G(d) empiricaldispersion=gd3bj scf=xqc\\CID_70110
 095_JID_737_neutraal\\0,1\C,1.0943322888,0.043505803,0.1014330786\C,0.
 138665999,0.2816356948,-1.0793588512\C,0.8668673974,0.8609088495,-2.27
 01474823\N,1.0635531415,2.1879274463,-2.2434329529\C,1.746880408,2.725
 4493184,-3.2566082295\C,2.2460822743,1.9459412809,-4.2982135723\N,2.05
 99963407,0.6243418712,-4.3351574671\C,1.3709431347,0.0733977908,-3.326
 4562877\C,1.1425409793,-1.419737644,-3.3982663508\N,-0.1736666997,-1.7

 Normal termination of Gaussian 16 at Tue Dec  8 12:29:38 2020.

 --------------------------------------------------------------------
 #N Geom=AllCheck Guess=TCheck SCRF=Check GenChk RB3LYP/6-31G(d) Freq
 --------------------------------------------------------------------

 Structure from the checkpoint file:  "JID_737.chk"
 -----------------------------
 CID_70110095_JID_737_neutraal
 -----------------------------
 Charge =  0 Multiplicity = 1

 SCF Done:  E(RB3LYP) =  -437.643024563     A.U. after    1 cycles

  Exact polarizability: 114.040   0.280  93.471   0.465  -8.665  60.093
 Approx polarizability: 169.641   1.482 146.546   1.192 -22.849  92.601

                      1                      2                      3
                      A                      A                      A
 Frequencies --     57.1373                96.3320               100.4716
 Red. masses --      2.4801                 4.1159                 3.5403
 Frc consts  --      0.0048                 0.0225                 0.0211
 IR Inten    --      0.2344                 0.6958                 1.6521

                      4                      5                      6
                      A                      A                      A
 Frequencies --    153.9790               211.6562               233.2621
 Red. masses --      3.1891                 1.1693                 1.0769
 Frc consts  --      0.0445                 0.0309                 0.0345
 IR Inten    --      1.6233                37.1772                 5.3870

                      7                      8                      9
                      A                      A                      A
 Frequencies --    280.4430               344.0847               368.5779
 Red. masses --      2.9320                 2.0802                 5.2078
 Frc consts  --      0.1359                 0.1451                 0.4168
 IR Inten    --     12.3140                 3.0822                 8.9373

                     10                     11                     12
                      A                      A                      A
 Frequencies --    428.3128               499.8607               566.9051
 Red. masses --      2.4333                 6.0516                 3.7982
 Frc consts  --      0.2630                 0.8909                 0.7192
 IR Inten    --      0.8417                 3.0898                 0.5828

                     13                     14                     15
                      A                      A                      A
 Frequencies --    601.5959               619.7665               722.5847
 Red. masses --      4.3068                 4.9167                 3.8620
 Frc consts  --      0.9184                 1.1127                 1.1881
 IR Inten    --      3.3110                 8.7961                 4.3505

                     16                     17                     18
                      A                      A                      A
 Frequencies --    805.4298               833.0625               859.8370
 Red. masses --      1.2103                 3.9027                 1.5045
 Frc consts  --      0.4626                 1.5958                 0.6553
 IR Inten    --      1.0030                36.3383                97.2191

                     19                     20                     21
                      A                      A                      A
 Frequencies --    877.9011               893.4707               979.4737
 Red. masses --      1.3317                 3.0141                 1.4266
 Frc consts  --      0.6047                 1.4176                 0.8064
 IR Inten    --     11.5379                 9.8064                 0.5836

                     22                     23                     24
                      A                      A                      A
 Frequencies --    988.5568              1005.7943              1056.9823
 Red. masses --      2.4641                 2.1925                 2.2564
 Frc consts  --      1.4188                 1.3068                 1.4852
 IR Inten    --      4.1380                34.3885                 3.0565

                     25                     26                     27
                      A                      A                      A
 Frequencies --   1071.7868              1090.8382              1118.4536
 Red. masses --      1.8749                 1.9802                 1.9862
 Frc consts  --      1.2689                 1.3883                 1.4639
 IR Inten    --      8.5493                13.3227                14.1564

                     28                     29                     30
                      A                      A                      A
 Frequencies --   1142.6145              1210.9319              1256.1004
 Red. masses --      1.7488                 1.9506                 3.6453
 Frc consts  --      1.3452                 1.6852                 3.3887
 IR Inten    --     14.3713                12.7146                 2.6492

                     31                     32                     33
                      A                      A                      A
 Frequencies --   1278.8824              1296.0452              1317.2742
 Red. masses --      2.0108                 1.8038                 1.2534
 Frc consts  --      1.9377                 1.7852                 1.2814
 IR Inten    --      3.4708                 1.2518                 1.4682

                     34                     35                     36
                      A                      A                      A
 Frequencies --   1323.4633              1374.0747              1430.3317
 Red. masses --      1.2982                 1.5236                 1.2705
 Frc consts  --      1.3397                 1.6949                 1.5314
 IR Inten    --      5.0038                 1.7207                 8.7479

                     37                     38                     39
                      A                      A                      A
 Frequencies --   1436.7978              1462.0107              1504.0770
 Red. masses --      1.5461                 2.4189                 1.9397
 Frc consts  --      1.8805                 3.0463                 2.5854
 IR Inten    --     35.6703                24.3463                 0.7396

                     40                     41                     42
                      A                      A                      A
 Frequencies --   1512.3946              1525.9673              1537.4842
 Red. masses --      1.1852                 1.0448                 1.0829
 Frc consts  --      1.5973                 1.4334                 1.5082
 IR Inten    --      1.6511                 5.0594                 5.0218

                     43                     44                     45
                      A                      A                      A
 Frequencies --   1542.2368              1601.3947              1620.0984
 Red. masses --      1.0890                 8.7756                 5.3901
 Frc consts  --      1.5261                13.2594                 8.3355
 IR Inten    --      4.8158                 3.3935                 0.5040

                     46                     47                     48
                      A                      A                      A
 Frequencies --   1693.1052              2971.3848              3052.2781
 Red. masses --      1.0911                 1.0729                 1.0350
 Frc consts  --      1.8428                 5.5811                 5.6812
 IR Inten    --     27.0904                72.8635                27.7473

                     49                     50                     51
                      A                      A                      A
 Frequencies --   3071.8752              3106.8568              3115.1326
 Red. masses --      1.0597                 1.1029                 1.0894
 Frc consts  --      5.8919                 6.2722                 6.2284
 IR Inten    --     20.8922                 4.3035                18.4822

                     52                     53                     54
                      A                      A                      A
 Frequencies --   3123.5238              3135.8409              3172.7642
 Red. masses --      1.1030                 1.1037                 1.0871
 Frc consts  --      6.3407                 6.3946                 6.4478
 IR Inten    --     37.9256                31.0979                 5.4098

                     55                     56                     57
                      A                      A                      A
 Frequencies --   3191.9010              3461.8617              3551.0040
 Red. masses --      1.0970                 1.0493                 1.0927
 Frc consts  --      6.5848                 7.4090                 8.1182
 IR Inten    --     53.5186                 1.8098                 0.9802

 - Thermochemistry -
 -------------------
 Temperature   298.150 Kelvin.  Pressure   1.00000 Atm.
 Atom     1 has atomic number  6 and mass  12.00000

 Molecular mass:   137.09530 amu.
 Principal axes and moments of inertia in atomic units:
                           1         2         3
     Eigenvalues --  1165.209011317.007682189.87091
           X            0.99779  -0.06636  -0.00416
           Y            0.06639   0.99776   0.00847
           Z            0.00359  -0.00873   0.99996
 This molecule is an asymmetric top.
 Rotational symmetry number  1.
 Warning -- assumption of classical behavior for rotation
           may cause significant error
 Rotational temperatures (Kelvin)      0.07433     0.06577     0.03955
 Rotational constants (GHZ):           1.54886     1.37033     0.82413
 Zero-point vibrational energy     471844.6 (Joules/Mol)
                                  112.77358 (Kcal/Mol)
 Warning -- explicit consideration of  14 degrees of freedom as
           vibrations may cause significant error
 Vibrational temperatures:     82.21   138.60   144.56   221.54   304.53
          (Kelvin)            335.61   403.49   495.06   530.30   616.25
                              719.19   815.65   865.56   891.71  1039.64
                             1158.83  1198.59  1237.11  1263.10  1285.51
                             1409.24  1422.31  1447.11  1520.76  1542.06
                             1569.47  1609.21  1643.97  1742.26  1807.25
                             1840.03  1864.72  1895.26  1904.17  1976.99
                             2057.93  2067.23  2103.51  2164.03  2176.00
                             2195.53  2212.10  2218.93  2304.05  2330.96
                             2436.00  4275.16  4391.55  4419.74  4470.07
                             4481.98  4494.05  4511.78  4564.90  4592.43
                             4980.85  5109.10

 Zero-point correction=                           0.179716 (Hartree/Particle)
 Thermal correction to Energy=                    0.189483
 Thermal correction to Enthalpy=                  0.190427
 Thermal correction to Gibbs Free Energy=         0.144316
 Sum of electronic and zero-point Energies=           -437.463308
 Sum of electronic and thermal Energies=              -437.453542
 Sum of electronic and thermal Enthalpies=            -437.452598
 Sum of electronic and thermal Free Energies=         -437.498708

                     E (Thermal)             CV                S
                      KCal/Mol        Cal/Mol-Kelvin    Cal/Mol-Kelvin
 Total                  118.902             35.997             97.048
 Electronic               0.000              0.000              0.000
 Translational            0.889              2.981             40.658
 Rotational               0.889              2.981             29.598
 Vibrational            117.125             30.035             26.791
 Vibration     1          0.596              1.975              4.554
 Vibration     2          0.603              1.952              3.527
 Vibration     3          0.604              1.949              3.445
 Vibration     4          0.619              1.898              2.622
 Vibration     5          0.643              1.823              2.029
 Vibration     6          0.654              1.790              1.854
 Vibration     7          0.680              1.710              1.531
 Vibration     8          0.723              1.587              1.193
 Vibration     9          0.741              1.537              1.086
 Vibration    10          0.790              1.409              0.864
 Vibration    11          0.855              1.250              0.658
 Vibration    12          0.923              1.103              0.510
 Vibration    13          0.960              1.028              0.447
 Vibration    14          0.980              0.990              0.417

                           ! Non-Optimized Parameters !

 1\1\GINC-NODE200\Freq\RB3LYP\6-31G(d)\C7H11N3\VSC10255\08-Dec-2020\0\\
 #N Geom=AllCheck Guess=TCheck SCRF=Check GenChk RB3LYP/6-31G(d) Freq\\
 CID_70110095_JID_737_neutraal\\0,1\C,1.0943322888,0.043505803,0.101433
 0786\C,0.138665999,0.2816356948,-1.0793588512\C,0.8668673974,0.8609088
 495,-2.2701474823\N,1.0635531415,2.1879274463,-2.2434329529\C,1.746880
 408,2.7254493184,-3.2566082295\C,2.2460822743,1.9459412809,-4.29821357
 23\N,2.0599963407,0.6243418712,-4.3351574671\C,1.3709431347,0.07339779
 08,-3.3264562877\C,1.1425409793,-1.419737644,-3.3982663508\N,-0.173666

 Normal termination of Gaussian 16 at Tue Dec  8 12:39:33 2020.

 ----------------------------------------------------------------------
 # B3LYP/6-311++G(d,p) empiricaldispersion=gd3bj scf=xqc pop=npa geom=c
 heck
 ----------------------------------------------------------------------

 -------------------------------------
 CID_70110095_JID_737_Energie_neutraal
 -------------------------------------
 Structure from the checkpoint file:  "JID_737.chk"
 Charge =  0 Multiplicity = 1

 SCF Done:  E(RB3LYP) =  -437.768626417     A.U. after   14 cycles
 Normal termination of Gaussian 16 at Tue Dec  8 12:42:31 2020.

 ----------------------------------------------------------------------
 # B3LYP/6-311++G(d,p) empiricaldispersion=gd3bj scf=xqc pop=npa geom=c
 heck
 ----------------------------------------------------------------------

 -----------------------------------
 CID_70110095_JID_737_Energie_kation
 -----------------------------------
 Structure from the checkpoint file:  "JID_737.chk"
 Charge =  1 Multiplicity = 2

 SCF Done:  E(UB3LYP) =  -437.435834490     A.U. after   29 cycles
 Normal termination of Gaussian 16 at Tue Dec  8 12:50:17 2020.
 Gaussian 16:  ES64L-G16RevA.03 25-Dec-2016

 ----------------------------------
 CID_70110095_JID_737_Energie_anion
 ----------------------------------
 Structure from the checkpoint file:  "JID_737.chk"
 Charge = -1 Multiplicity = 2

                         Standard orientation:
 ---------------------------------------------------------------------
 Center     Atomic      Atomic             Coordinates (Angstroms)
 Number     Number       Type             X           Y           Z
 ---------------------------------------------------------------------
      1          6           0       -1.626400    2.253645    0.695915
      2          6           0       -1.271242    1.356361   -0.501171
      3          6           0        0.019758    0.607119   -0.265019
      4          7           0        1.145275    1.290239   -0.523739
      5          6           0        2.304337    0.674504   -0.279126
      6          6           0        2.351561   -0.620959    0.232071
      7          7           0        1.239188   -1.310330    0.496669
      8          6           0        0.069198   -0.705118    0.250387
      9          6           0       -1.180943   -1.509888    0.526558
     10          7           0       -1.653748   -2.156351   -0.708260
     11          1           0       -1.782467    1.658528    1.602931
     12          1           0       -2.540841    2.823661    0.500050
     13          1           0       -0.813062    2.959879    0.890345
     14          1           0       -2.095454    0.664689   -0.703288
     15          1           0       -1.138197    1.977218   -1.392912
     16          1           0        3.215171    1.229779   -0.494188
     17          1           0        3.300236   -1.113386    0.435356
     18          1           0       -0.910353   -2.298443    1.233611
     19          1           0       -1.931778   -0.865997    1.016232
     20          1           0       -2.499547   -2.687775   -0.507161
     21          1           0       -1.916334   -1.447042   -1.391354
 ---------------------------------------------------------------------

 SCF Done:  E(UB3LYP) =  -437.764850265     A.U. after   31 cycles

 The electronic state is 2-A.
 Alpha  occ. eigenvalues --  -14.15902 -14.14976 -14.14336 -10.06382 -10.05581
 Alpha  occ. eigenvalues --  -10.05439 -10.05076 -10.04933 -10.04903 -10.04739
 Alpha  occ. eigenvalues --   -0.81970  -0.75327  -0.73920  -0.66412  -0.61059
 Alpha  occ. eigenvalues --   -0.54559  -0.52478  -0.46959  -0.46059  -0.37868
 Alpha  occ. eigenvalues --   -0.36116  -0.34912  -0.32022  -0.31921  -0.31077
 Alpha  occ. eigenvalues --   -0.29577  -0.27241  -0.25708  -0.24580  -0.23966
 Alpha  occ. eigenvalues --   -0.23194  -0.21401  -0.17330  -0.14578  -0.11477
 Alpha  occ. eigenvalues --   -0.11134  -0.09111   0.05441
 Alpha virt. eigenvalues --    0.07752   0.09278   0.09640   0.10422   0.11719
 Alpha virt. eigenvalues --    0.12169   0.12469   0.12546   0.13058   0.14286
 Alpha virt. eigenvalues --    0.14792   0.16295   0.17374   0.17527   0.18634

  Beta  occ. eigenvalues --  -14.15825 -14.14531 -14.13802 -10.06425 -10.05586
  Beta  occ. eigenvalues --  -10.05485 -10.04949 -10.04931 -10.04774 -10.04725
  Beta  occ. eigenvalues --   -0.81358  -0.74910  -0.73323  -0.66272  -0.60843
  Beta  occ. eigenvalues --   -0.54334  -0.52231  -0.46559  -0.45931  -0.37659
  Beta  occ. eigenvalues --   -0.35961  -0.34754  -0.31930  -0.31732  -0.30977
  Beta  occ. eigenvalues --   -0.29384  -0.26896  -0.25559  -0.23958  -0.23674
  Beta  occ. eigenvalues --   -0.23109  -0.21256  -0.14996  -0.13918  -0.11109
  Beta  occ. eigenvalues --   -0.10550  -0.08590
  Beta virt. eigenvalues --    0.08160   0.09538   0.09590   0.10461   0.11498
  Beta virt. eigenvalues --    0.11823   0.12421   0.12696   0.12863   0.13215
  Beta virt. eigenvalues --    0.14462   0.14923   0.16542   0.17405   0.17499

 Mulliken charges and spin densities:
               1          2
     1  C   -0.508942  -0.072997
     2  C    0.043046  -0.342958
     3  C   -0.284676   0.506169
     4  N   -0.068120   0.181439
     5  C   -0.112398   0.142207
     6  C    0.001569  -0.005454
     7  N   -0.091381   0.261563
     8  C    0.260451  -0.247170
     9  C   -0.073188  -0.850222
    10  N   -0.317382  -0.019879
    11  H    0.145649  -0.022299
    12  H    0.101345   0.011530
    13  H    0.118748   0.015943
    14  H   -0.192919   0.322315
    15  H    0.186072  -0.027553
    16  H    0.125076  -0.009479
    17  H    0.129451   0.003089
    18  H    0.058508   0.098382
    19  H   -0.201967   0.311554
    20  H   -0.408386   0.645503
    21  H    0.089444   0.098318
 Sum of Mulliken charges =  -1.00000   1.00000

 Dipole moment (field-independent basis, Debye):
    X=              1.5561    Y=              4.7107    Z=              1.0428  Tot=              5.0695
 Quadrupole moment (field-independent basis, Debye-Ang):
   XX=            -92.0507   YY=            -95.5546   ZZ=            -74.9917
   XY=            -11.4819   XZ=             -0.9022   YZ=             -1.2241

 Summary of Natural Population Analysis:

                                       Natural Population
                Natural  -----------------------------------------------
    Atom  No    Charge         Core      Valence    Rydberg      Total
 -----------------------------------------------------------------------
      C    1   -0.28188      0.99966     2.27698    0.00523     3.28188
      C    2   -0.20589      0.99961     2.19505    0.01122     3.20589
      C    3    0.07784      0.99949     1.90655    0.01612     2.92216
      N    4   -0.18050      0.99968     2.66930    0.01152     3.68050
      C    5    0.01746      0.99960     1.96900    0.01395     2.98254
      C    6   -0.01279      0.99960     1.99960    0.01359     3.01279
      N    7   -0.15327      0.99968     2.64281    0.01078     3.65327
      C    8    0.10104      0.99948     1.88374    0.01573     2.89896
      C    9   -0.10713      0.99960     2.09265    0.01488     3.10713
      N   10   -0.41515      0.99977     2.90404    0.01134     3.91515
      H   11    0.09582      0.00000     0.40315    0.00103     0.40418
      H   12    0.09024      0.00000     0.40895    0.00082     0.40976
      H   13    0.09974      0.00000     0.39927    0.00100     0.40026
      H   14    0.09619      0.00000     0.40200    0.00181     0.40381
      H   15    0.10036      0.00000     0.39808    0.00156     0.39964
      H   16    0.07879      0.00000     0.41976    0.00144     0.42121
      H   17    0.08029      0.00000     0.41822    0.00149     0.41971
      H   18    0.09775      0.00000     0.39985    0.00240     0.40225
      H   19    0.07768      0.00000     0.42028    0.00205     0.42232
      H   20    0.17437      0.00000     0.31834    0.00729     0.32563
      H   21    0.16903      0.00000     0.32877    0.00220     0.33097
 =======================================================================
   * Total *    0.00000      9.99616    26.85638    0.14745    37.00000

 Normal termination of Gaussian 16 at Tue Dec  8 13:04:45 2020.
