 Gaussian 16, Revision A.03,

 -----------------------------------------------------------
 # opt freq B3LYP/6-31G(d) empiricaldispersion=gd3bj scf=xqc
 -----------------------------------------------------------

 ------------------------------
 CID_14435554_JID_2595_neutraal
 ------------------------------
 Symbolic Z-matrix:
 Charge =  0 Multiplicity = 1

 SCF Done:  E(RB3LYP) =  -559.616674538     A.U. after   13 cycles
 SCF Done:  E(RB3LYP) =  -559.620541151     A.U. after   11 cycles
 SCF Done:  E(RB3LYP) =  -559.621570413     A.U. after   11 cycles
 SCF Done:  E(RB3LYP) =  -559.622411201     A.U. after   11 cycles
 SCF Done:  E(RB3LYP) =  -559.623842176     A.U. after   13 cycles
 SCF Done:  E(RB3LYP) =  -559.625179328     A.U. after   13 cycles
 SCF Done:  E(RB3LYP) =  -559.625994005     A.U. after   10 cycles
 SCF Done:  E(RB3LYP) =  -559.627069252     A.U. after   13 cycles
 SCF Done:  E(RB3LYP) =  -559.628382679     A.U. after   11 cycles
 SCF Done:  E(RB3LYP) =  -559.629858493     A.U. after   11 cycles
 SCF Done:  E(RB3LYP) =  -559.631971085     A.U. after   10 cycles
 SCF Done:  E(RB3LYP) =  -559.631976165     A.U. after    8 cycles
 SCF Done:  E(RB3LYP) =  -559.631979368     A.U. after    8 cycles
 SCF Done:  E(RB3LYP) =  -559.631981066     A.U. after    8 cycles
 SCF Done:  E(RB3LYP) =  -559.631981444     A.U. after    7 cycles
 SCF Done:  E(RB3LYP) =  -559.631981512     A.U. after    6 cycles
 Optimization completed.
    -- Stationary point found.
 Normal termination of Gaussian 16 at Wed Dec  9 18:03:47 2020.

 --------------------------------------------------------------------
 #N Geom=AllCheck Guess=TCheck SCRF=Check GenChk RB3LYP/6-31G(d) Freq
 --------------------------------------------------------------------

 Structure from the checkpoint file:  "JID_2595.chk"
 ------------------------------
 CID_14435554_JID_2595_neutraal
 ------------------------------
 Charge =  0 Multiplicity = 1

 SCF Done:  E(RB3LYP) =  -559.631981512     A.U. after    1 cycles

  Exact polarizability: 120.230  -2.333 104.335  -1.750  -0.159  96.823
 Approx polarizability: 144.526  -2.605 145.707  -3.885  -1.977 141.308

                      1                      2                      3
                      A                      A                      A
 Frequencies --     32.3640                39.3538                67.8779
 Red. masses --      3.4633                 3.3299                 1.9144
 Frc consts  --      0.0021                 0.0030                 0.0052
 IR Inten    --      0.0352                 0.3239                 0.1629

                      4                      5                      6
                      A                      A                      A
 Frequencies --     99.9497               115.5078               175.7125
 Red. masses --      3.2163                 3.4268                 2.6690
 Frc consts  --      0.0189                 0.0269                 0.0486
 IR Inten    --      0.5690                 1.4870                 1.4907

                      7                      8                      9
                      A                      A                      A
 Frequencies --    210.8536               249.4137               281.3702
 Red. masses --      2.8779                 1.8804                 1.6539
 Frc consts  --      0.0754                 0.0689                 0.0771
 IR Inten    --      2.8339                 2.7352                 1.9786

                     10                     11                     12
                      A                      A                      A
 Frequencies --    299.7770               314.3485               351.0878
 Red. masses --      2.2509                 2.3079                 2.3579
 Frc consts  --      0.1192                 0.1344                 0.1712
 IR Inten    --      2.9966                 1.8538                 2.0998

                     13                     14                     15
                      A                      A                      A
 Frequencies --    390.6065               440.6015               453.4439
 Red. masses --      2.0180                 2.7696                 2.7840
 Frc consts  --      0.1814                 0.3168                 0.3373
 IR Inten    --      0.4407                 8.2986                 2.0610

                     16                     17                     18
                      A                      A                      A
 Frequencies --    510.0356               540.3123               568.1158
 Red. masses --      2.7279                 2.1760                 3.4149
 Frc consts  --      0.4181                 0.3743                 0.6494
 IR Inten    --      0.5453                 4.6331                11.8505

                     19                     20                     21
                      A                      A                      A
 Frequencies --    675.7825               808.1321               826.5290
 Red. masses --      2.7441                 2.1765                 1.2442
 Frc consts  --      0.7383                 0.8375                 0.5008
 IR Inten    --      1.5456                30.9687                 9.8547

                     22                     23                     24
                      A                      A                      A
 Frequencies --    831.2058               833.1789               854.7092
 Red. masses --      2.5746                 1.6631                 2.0040
 Frc consts  --      1.0480                 0.6802                 0.8625
 IR Inten    --      1.7025                24.0692                 1.8762

                     25                     26                     27
                      A                      A                      A
 Frequencies --    880.1864               883.0157               917.9559
 Red. masses --      2.5833                 1.9689                 1.8910
 Frc consts  --      1.1792                 0.9045                 0.9388
 IR Inten    --     33.8520                 0.8210                13.9839

                     28                     29                     30
                      A                      A                      A
 Frequencies --    934.9278               977.5103               988.2813
 Red. masses --      1.7367                 1.5806                 1.9338
 Frc consts  --      0.8944                 0.8898                 1.1128
 IR Inten    --     26.5979                31.7850                35.8667

                     31                     32                     33
                      A                      A                      A
 Frequencies --   1039.7154              1059.5358              1064.0046
 Red. masses --      2.0522                 2.0882                 2.3116
 Frc consts  --      1.3071                 1.3812                 1.5419
 IR Inten    --     12.0194               117.8764                 2.3418

                     34                     35                     36
                      A                      A                      A
 Frequencies --   1068.0556              1082.0851              1100.8042
 Red. masses --      2.3304                 2.2821                 2.6229
 Frc consts  --      1.5663                 1.5744                 1.8726
 IR Inten    --     14.8495                79.9593                52.3667

                     37                     38                     39
                      A                      A                      A
 Frequencies --   1148.1285              1150.8516              1167.2783
 Red. masses --      2.9646                 1.8986                 2.6096
 Frc consts  --      2.3025                 1.4815                 2.0950
 IR Inten    --     91.4011                 6.1833                81.9118

                     40                     41                     42
                      A                      A                      A
 Frequencies --   1190.4886              1207.3528              1219.1193
 Red. masses --      3.0032                 1.6936                 1.3783
 Frc consts  --      2.5078                 1.4545                 1.2069
 IR Inten    --     16.0520                 6.3004                 7.9501

                     43                     44                     45
                      A                      A                      A
 Frequencies --   1235.9499              1292.9849              1300.3662
 Red. masses --      1.4875                 1.2456                 1.2170
 Frc consts  --      1.3388                 1.2269                 1.2125
 IR Inten    --     24.3734                 2.8429                 9.7035

                     46                     47                     48
                      A                      A                      A
 Frequencies --   1321.4890              1326.2788              1351.5949
 Red. masses --      1.1957                 1.1575                 1.2030
 Frc consts  --      1.2303                 1.1996                 1.2948
 IR Inten    --     24.2720                 4.8484                16.9390

                     49                     50                     51
                      A                      A                      A
 Frequencies --   1368.9492              1395.7217              1399.0708
 Red. masses --      1.3185                 1.4721                 1.2770
 Frc consts  --      1.4558                 1.6896                 1.4728
 IR Inten    --      6.0307                 2.0929                18.2898

                     52                     53                     54
                      A                      A                      A
 Frequencies --   1402.0255              1408.1936              1409.2839
 Red. masses --      1.3202                 1.3661                 1.3908
 Frc consts  --      1.5290                 1.5961                 1.6274
 IR Inten    --     26.4384                13.5949                13.8091

                     55                     56                     57
                      A                      A                      A
 Frequencies --   1416.6150              1431.4635              1439.5721
 Red. masses --      1.2969                 1.2930                 1.3132
 Frc consts  --      1.5334                 1.5611                 1.6035
 IR Inten    --      2.4799                 3.8635                16.4102

                     58                     59                     60
                      A                      A                      A
 Frequencies --   1446.4516              1493.0518              1503.0936
 Red. masses --      1.2959                 1.0971                 1.0973
 Frc consts  --      1.5975                 1.4409                 1.4607
 IR Inten    --      2.0376                 4.0202                 1.5497

                     61                     62                     63
                      A                      A                      A
 Frequencies --   1512.5778              1517.0354              1517.6305
 Red. masses --      1.0858                 1.0840                 1.0595
 Frc consts  --      1.4637                 1.4699                 1.4377
 IR Inten    --      3.9584                 3.6825                 2.0770

                     64                     65                     66
                      A                      A                      A
 Frequencies --   1522.1314              1531.4594              1536.9321
 Red. masses --      1.0954                 1.0390                 1.0985
 Frc consts  --      1.4953                 1.4357                 1.5288
 IR Inten    --      5.4956                 3.4006                 3.5979

                     67                     68                     69
                      A                      A                      A
 Frequencies --   1554.2958              1568.1685              2922.3369
 Red. masses --      1.0987                 1.1772                 1.0735
 Frc consts  --      1.5638                 1.7056                 5.4012
 IR Inten    --      0.6595                31.8321                74.4522

                     70                     71                     72
                      A                      A                      A
 Frequencies --   3021.8798              3026.6478              3038.0155
 Red. masses --      1.0642                 1.0634                 1.0840
 Frc consts  --      5.7255                 5.7393                 5.8946
 IR Inten    --     31.6077                30.8836                50.4491

                     73                     74                     75
                      A                      A                      A
 Frequencies --   3041.6567              3046.4398              3047.3504
 Red. masses --      1.0638                 1.0750                 1.0683
 Frc consts  --      5.7988                 5.8783                 5.8451
 IR Inten    --     24.8133                17.5264                26.3561

                     76                     77                     78
                      A                      A                      A
 Frequencies --   3048.6203              3055.7659              3060.9871
 Red. masses --      1.0371                 1.0613                 1.0718
 Frc consts  --      5.6791                 5.8389                 5.9170
 IR Inten    --     28.7165                26.4372                46.4091

                     79                     80                     81
                      A                      A                      A
 Frequencies --   3072.9792              3085.1845              3089.0229
 Red. masses --      1.1015                 1.0995                 1.1004
 Frc consts  --      6.1287                 6.1661                 6.1865
 IR Inten    --     59.5126                32.2514                61.6333

                     82                     83                     84
                      A                      A                      A
 Frequencies --   3098.0914              3109.9979              3112.6858
 Red. masses --      1.1020                 1.1034                 1.1011
 Frc consts  --      6.2318                 6.2880                 6.2857
 IR Inten    --     50.1187                33.5940                49.2197

                     85                     86                     87
                      A                      A                      A
 Frequencies --   3121.7377              3130.9555              3482.0269
 Red. masses --      1.1010                 1.1030                 1.0734
 Frc consts  --      6.3217                 6.3705                 7.6677
 IR Inten    --     37.1154                31.0216                91.7947

 - Thermochemistry -
 -------------------
 Temperature   298.150 Kelvin.  Pressure   1.00000 Atm.
 Atom     1 has atomic number  6 and mass  12.00000

 Molecular mass:   173.14158 amu.
 Principal axes and moments of inertia in atomic units:
                           1         2         3
     Eigenvalues --  1145.791223357.143053765.79634
           X            0.99997   0.00229  -0.00796
           Y           -0.00230   1.00000  -0.00114
           Z            0.00796   0.00115   0.99997
 This molecule is an asymmetric top.
 Rotational symmetry number  1.
 Warning -- assumption of classical behavior for rotation
           may cause significant error
 Rotational temperatures (Kelvin)      0.07559     0.02580     0.02300
 Rotational constants (GHZ):           1.57510     0.53758     0.47925
 Zero-point vibrational energy     746854.6 (Joules/Mol)
                                  178.50253 (Kcal/Mol)
 Warning -- explicit consideration of  18 degrees of freedom as
           vibrations may cause significant error
 Vibrational temperatures:     46.56    56.62    97.66   143.81   166.19
          (Kelvin)            252.81   303.37   358.85   404.83   431.31
                              452.28   505.14   562.00   633.93   652.40
                              733.83   777.39   817.39   972.30  1162.72
                             1189.19  1195.92  1198.76  1229.74  1266.39
                             1270.46  1320.73  1345.15  1406.42  1421.92
                             1495.92  1524.44  1530.87  1536.69  1556.88
                             1583.81  1651.90  1655.82  1679.45  1712.85
                             1737.11  1754.04  1778.26  1860.32  1870.94
                             1901.33  1908.22  1944.64  1969.61  2008.13
                             2012.95  2017.20  2026.08  2027.65  2038.19
                             2059.56  2071.22  2081.12  2148.17  2162.62
                             2176.26  2182.68  2183.53  2190.01  2203.43
                             2211.30  2236.28  2256.24  4204.59  4347.81
                             4354.67  4371.03  4376.27  4383.15  4384.46
                             4386.28  4396.57  4404.08  4421.33  4438.89
                             4444.42  4457.46  4474.59  4478.46  4491.48
                             4504.75  5009.86

 Zero-point correction=                           0.284462 (Hartree/Particle)
 Thermal correction to Energy=                    0.297189
 Thermal correction to Enthalpy=                  0.298133
 Thermal correction to Gibbs Free Energy=         0.244317
 Sum of electronic and zero-point Energies=           -559.347520
 Sum of electronic and thermal Energies=              -559.334793
 Sum of electronic and thermal Enthalpies=            -559.333848
 Sum of electronic and thermal Free Energies=         -559.387664

                     E (Thermal)             CV                S
                      KCal/Mol        Cal/Mol-Kelvin    Cal/Mol-Kelvin
 Total                  186.489             47.964            113.265
 Electronic               0.000              0.000              0.000
 Translational            0.889              2.981             41.354
 Rotational               0.889              2.981             31.050
 Vibrational            184.711             42.003             40.861
 Vibration     1          0.594              1.983              5.679
 Vibration     2          0.594              1.981              5.291
 Vibration     3          0.598              1.970              4.214
 Vibration     4          0.604              1.949              3.455
 Vibration     5          0.608              1.937              3.174
 Vibration     6          0.628              1.872              2.373
 Vibration     7          0.643              1.824              2.036
 Vibration     8          0.662              1.764              1.735
 Vibration     9          0.681              1.708              1.525
 Vibration    10          0.692              1.674              1.418
 Vibration    11          0.702              1.646              1.339
 Vibration    12          0.728              1.573              1.161
 Vibration    13          0.758              1.490              0.998
 Vibration    14          0.800              1.382              0.825
 Vibration    15          0.812              1.353              0.785
 Vibration    16          0.865              1.228              0.634
 Vibration    17          0.895              1.161              0.565
 Vibration    18          0.924              1.100              0.508

                           ! Non-Optimized Parameters !
 Normal termination of Gaussian 16 at Wed Dec  9 18:11:46 2020.

 ----------------------------------------------------------------------
 # B3LYP/6-311++G(d,p) empiricaldispersion=gd3bj scf=xqc pop=npa geom=c
 heck
 ----------------------------------------------------------------------

 --------------------------------------
 CID_14435554_JID_2595_Energie_neutraal
 --------------------------------------
 Structure from the checkpoint file:  "JID_2595.chk"
 Charge =  0 Multiplicity = 1

 SCF Done:  E(RB3LYP) =  -559.795083402     A.U. after   13 cycles
 Normal termination of Gaussian 16 at Wed Dec  9 18:15:17 2020.

 ----------------------------------------------------------------------
 # B3LYP/6-311++G(d,p) empiricaldispersion=gd3bj scf=xqc pop=npa geom=c
 heck
 ----------------------------------------------------------------------

 ------------------------------------
 CID_14435554_JID_2595_Energie_kation
 ------------------------------------
 Structure from the checkpoint file:  "JID_2595.chk"
 Charge =  1 Multiplicity = 2

 SCF Done:  E(UB3LYP) =  -559.504056765     A.U. after   18 cycles
 Normal termination of Gaussian 16 at Wed Dec  9 18:23:26 2020.
 Gaussian 16:  ES64L-G16RevA.03 25-Dec-2016

 ----------------------------------------------------------------------
 # B3LYP/6-311++G(d,p) empiricaldispersion=gd3bj scf=xqc pop=npa geom=c
 heck
 ----------------------------------------------------------------------

 -----------------------------------
 CID_14435554_JID_2595_Energie_anion
 -----------------------------------
 Structure from the checkpoint file:  "JID_2595.chk"
 Charge = -1 Multiplicity = 2

                         Standard orientation:
 ---------------------------------------------------------------------
 Center     Atomic      Atomic             Coordinates (Angstroms)
 Number     Number       Type             X           Y           Z
 ---------------------------------------------------------------------
      1          6           0       -3.529705   -1.601742    0.646243
      2          6           0       -3.084518   -0.163567    0.395305
      3          7           0       -2.157598   -0.112574   -0.729852
      4          6           0       -1.668492    1.217280   -1.065027
      5          6           0       -0.753910    1.920839   -0.051628
      6          8           0        0.579727    1.407601    0.000807
      7          6           0        0.810143    0.279889    0.806833
      8          6           0        2.260465    0.334295    1.287011
      9          6           0        3.232143    0.124872    0.118926
     10          6           0        2.873434   -1.169067   -0.623384
     11          6           0        1.399346   -1.152660   -1.017961
     12          8           0        0.553422   -0.946134    0.124466
     13          1           0       -3.984860   -2.022437   -0.255997
     14          1           0       -4.254827   -1.652701    1.465950
     15          1           0       -2.671889   -2.229764    0.916587
     16          1           0       -3.955334    0.458685    0.145309
     17          1           0       -2.671954    0.250928    1.336174
     18          1           0       -1.357788   -0.713880   -0.532801
     19          1           0       -1.126588    1.159738   -2.018080
     20          1           0       -2.538586    1.868238   -1.233559
     21          1           0       -0.638976    2.971820   -0.339974
     22          1           0       -1.193957    1.897790    0.956186
     23          1           0        0.107159    0.267836    1.649565
     24          1           0        2.395926   -0.460296    2.031228
     25          1           0        2.433096    1.294372    1.784149
     26          1           0        3.158440    0.976734   -0.567661
     27          1           0        4.264812    0.090540    0.484414
     28          1           0        3.491235   -1.295372   -1.521161
     29          1           0        3.058558   -2.034038    0.027154
     30          1           0        1.209730   -0.363964   -1.757748
     31          1           0        1.080353   -2.108782   -1.440861
 ---------------------------------------------------------------------

 SCF Done:  E(UB3LYP) =  -559.777631582     A.U. after   30 cycles

 The electronic state is 2-A.
 Alpha  occ. eigenvalues --  -19.02992 -19.02952 -14.18507 -10.16746 -10.11642
 Alpha  occ. eigenvalues --  -10.11503 -10.09148 -10.08827 -10.06605 -10.06504
 Alpha  occ. eigenvalues --  -10.06482 -10.05919  -0.97165  -0.91274  -0.80021
 Alpha  occ. eigenvalues --   -0.70033  -0.67436  -0.65096  -0.60924  -0.54701
 Alpha  occ. eigenvalues --   -0.54052  -0.52181  -0.49751  -0.45395  -0.41478
 Alpha  occ. eigenvalues --   -0.41007  -0.38746  -0.37556  -0.36374  -0.35414
 Alpha  occ. eigenvalues --   -0.33952  -0.33261  -0.32959  -0.31163  -0.29383
 Alpha  occ. eigenvalues --   -0.28935  -0.27944  -0.27004  -0.26391  -0.25227
 Alpha  occ. eigenvalues --   -0.24763  -0.24215  -0.23901  -0.22652  -0.20227
 Alpha  occ. eigenvalues --   -0.18283  -0.17070  -0.11739   0.04641
 Alpha virt. eigenvalues --    0.06381   0.07244   0.07491   0.08567   0.09041
 Alpha virt. eigenvalues --    0.09055   0.10124   0.10295   0.11322   0.11364
 Alpha virt. eigenvalues --    0.11809   0.12028   0.12689   0.13234   0.14298

  Beta  occ. eigenvalues --  -19.02983 -19.02950 -14.18504 -10.16733 -10.11620
  Beta  occ. eigenvalues --  -10.11493 -10.09138 -10.08804 -10.06579 -10.06484
  Beta  occ. eigenvalues --  -10.06462 -10.05899  -0.97152  -0.91263  -0.80006
  Beta  occ. eigenvalues --   -0.69994  -0.67402  -0.65063  -0.60884  -0.54664
  Beta  occ. eigenvalues --   -0.54005  -0.52124  -0.49696  -0.45342  -0.41424
  Beta  occ. eigenvalues --   -0.40974  -0.38719  -0.37523  -0.36332  -0.35383
  Beta  occ. eigenvalues --   -0.33931  -0.33225  -0.32928  -0.31124  -0.29353
  Beta  occ. eigenvalues --   -0.28902  -0.27905  -0.26965  -0.26364  -0.25185
  Beta  occ. eigenvalues --   -0.24739  -0.24187  -0.23865  -0.22612  -0.20189
  Beta  occ. eigenvalues --   -0.18264  -0.17042  -0.11725
  Beta virt. eigenvalues --    0.06793   0.07458   0.07718   0.08167   0.09285
  Beta virt. eigenvalues --    0.09449   0.09600   0.10444   0.10619   0.11733
  Beta virt. eigenvalues --    0.11916   0.12085   0.12347   0.13023   0.13555

 Mulliken charges and spin densities:
               1          2
     1  C    0.648523  -1.148738
     2  C   -0.200119  -0.001794
     3  N   -0.107705   0.019595
     4  C   -0.631315   0.290640
     5  C    0.594779  -0.718236
     6  O   -0.075742   0.079972
     7  C   -0.722940   0.286749
     8  C    1.578340  -2.101517
     9  C   -0.707895   0.579572
    10  C    0.738267  -1.229816
    11  C    0.060659  -0.115891
    12  O   -0.146621   0.068120
    13  H    0.064279   0.075590
    14  H   -0.234641   0.353767
    15  H   -0.077827   0.224766
    16  H   -0.342742   0.499825
    17  H   -0.033758   0.103633
    18  H    0.384108  -0.137071
    19  H    0.033713   0.145234
    20  H   -0.118527   0.236299
    21  H   -0.308170   0.474029
    22  H   -0.248547   0.390004
    23  H    0.027807   0.177065
    24  H   -0.276284   0.436957
    25  H   -0.106075   0.283578
    26  H    0.187948  -0.038585
    27  H   -0.554083   0.733924
    28  H   -0.604427   0.768474
    29  H   -0.007771   0.155763
    30  H    0.282288  -0.157112
    31  H   -0.095524   0.265206
 Sum of Mulliken charges =  -1.00000   1.00000

 Dipole moment (field-independent basis, Debye):
    X=             -1.5913    Y=              0.4183    Z=             -2.0322  Tot=              2.6148
 Quadrupole moment (field-independent basis, Debye-Ang):
   XX=           -158.6966   YY=           -115.7153   ZZ=           -111.7438
   XY=              5.0824   XZ=              1.3244   YZ=             -2.5087

 Summary of Natural Population Analysis:

                                       Natural Population
                Natural  -----------------------------------------------
    Atom  No    Charge         Core      Valence    Rydberg      Total
 -----------------------------------------------------------------------
      C    1   -0.28592      0.99967     2.28160    0.00466     3.28592
      C    2   -0.08744      0.99965     2.07698    0.01082     3.08744
      N    3   -0.35285      0.99974     2.84126    0.01185     3.85285
      C    4   -0.10052      0.99963     2.08869    0.01221     3.10052
      C    5   -0.01714      0.99956     2.00541    0.01216     3.01714
      O    6   -0.30881      0.99987     3.29977    0.00917     4.30881
      C    7    0.21966      0.99956     1.76074    0.02005     2.78034
      C    8   -0.20417      0.99960     2.19493    0.00965     3.20417
      C    9   -0.19211      0.99962     2.18367    0.00881     3.19211
      C   10   -0.20311      0.99963     2.19494    0.00853     3.20311
      C   11   -0.01362      0.99956     2.00158    0.01248     3.01362
      O   12   -0.31380      0.99989     3.30476    0.00915     4.31380
      H   13    0.09715      0.00000     0.40143    0.00142     0.40285
      H   14    0.09745      0.00000     0.40156    0.00099     0.40255
      H   15    0.09746      0.00000     0.40106    0.00148     0.40254
      H   16    0.08663      0.00000     0.41173    0.00164     0.41337
      H   17    0.07679      0.00000     0.42123    0.00198     0.42321
      H   18    0.18592      0.00000     0.30936    0.00472     0.31408
      H   19    0.09388      0.00000     0.40484    0.00127     0.40612
      H   20    0.09181      0.00000     0.40688    0.00131     0.40819
      H   21    0.08971      0.00000     0.40888    0.00141     0.41029
      H   22    0.08182      0.00000     0.41639    0.00180     0.41818
      H   23    0.08218      0.00000     0.41586    0.00195     0.41782
      H   24    0.10060      0.00000     0.39798    0.00142     0.39940
      H   25    0.10502      0.00000     0.39358    0.00140     0.39498
      H   26    0.09842      0.00000     0.39997    0.00160     0.40158
      H   27    0.10186      0.00000     0.39634    0.00180     0.39814
      H   28    0.10166      0.00000     0.39679    0.00155     0.39834
      H   29    0.09692      0.00000     0.40150    0.00158     0.40308
      H   30    0.08320      0.00000     0.41518    0.00162     0.41680
      H   31    0.09135      0.00000     0.40756    0.00109     0.40865
 =======================================================================
   * Total *   -0.00000     11.99597    35.84245    0.16158    48.00000

 Normal termination of Gaussian 16 at Wed Dec  9 18:32:26 2020.
