 Gaussian 16, Revision A.03,

 -----------------------------------------------------------
 # opt freq B3LYP/6-31G(d) empiricaldispersion=gd3bj scf=xqc
 -----------------------------------------------------------

 -------------------------------
 CID_146675370_JID_2916_neutraal
 -------------------------------
 Symbolic Z-matrix:
 Charge =  0 Multiplicity = 1

 SCF Done:  E(RB3LYP) =  -502.634042091     A.U. after   12 cycles
 SCF Done:  E(RB3LYP) =  -502.638015024     A.U. after   11 cycles
 SCF Done:  E(RB3LYP) =  -502.638415358     A.U. after   10 cycles
 SCF Done:  E(RB3LYP) =  -502.638696927     A.U. after   10 cycles
 SCF Done:  E(RB3LYP) =  -502.638747312     A.U. after   10 cycles
 SCF Done:  E(RB3LYP) =  -502.638899487     A.U. after   10 cycles
 SCF Done:  E(RB3LYP) =  -502.638953488     A.U. after    9 cycles
 SCF Done:  E(RB3LYP) =  -502.638962829     A.U. after    9 cycles
 SCF Done:  E(RB3LYP) =  -502.638967390     A.U. after    8 cycles
 SCF Done:  E(RB3LYP) =  -502.638968585     A.U. after    7 cycles
 SCF Done:  E(RB3LYP) =  -502.638969519     A.U. after    8 cycles
 SCF Done:  E(RB3LYP) =  -502.638969917     A.U. after    8 cycles
 SCF Done:  E(RB3LYP) =  -502.638970017     A.U. after    6 cycles
 Optimization completed.
    -- Stationary point found.
 Normal termination of Gaussian 16 at Wed Dec  9 18:15:45 2020.

 --------------------------------------------------------------------
 #N Geom=AllCheck Guess=TCheck SCRF=Check GenChk RB3LYP/6-31G(d) Freq
 --------------------------------------------------------------------

 Structure from the checkpoint file:  "JID_2916.chk"
 -------------------------------
 CID_146675370_JID_2916_neutraal
 -------------------------------
 Charge =  0 Multiplicity = 1

 SCF Done:  E(RB3LYP) =  -502.638970017     A.U. after    1 cycles

  Exact polarizability: 127.257  -0.528 109.219   1.151   2.735 102.377
 Approx polarizability: 159.090   0.410 156.414   0.438   3.075 153.920

                      1                      2                      3
                      A                      A                      A
 Frequencies --     24.4563                63.6391                90.3981
 Red. masses --      2.8781                 2.6633                 3.1952
 Frc consts  --      0.0010                 0.0064                 0.0154
 IR Inten    --      0.3287                 0.1467                 0.1635

                      4                      5                      6
                      A                      A                      A
 Frequencies --    140.5402               192.9468               220.0513
 Red. masses --      2.3752                 3.0103                 2.9488
 Frc consts  --      0.0276                 0.0660                 0.0841
 IR Inten    --      0.2101                 0.6740                 3.9977

                      7                      8                      9
                      A                      A                      A
 Frequencies --    259.2348               282.3442               309.8319
 Red. masses --      1.0764                 2.7445                 2.1953
 Frc consts  --      0.0426                 0.1289                 0.1242
 IR Inten    --      0.6414                 3.0202                 0.8901

                     10                     11                     12
                      A                      A                      A
 Frequencies --    315.3658               374.0919               391.4585
 Red. masses --      1.1218                 1.9199                 1.8465
 Frc consts  --      0.0657                 0.1583                 0.1667
 IR Inten    --      0.5070                 0.9754                 0.7985

                     13                     14                     15
                      A                      A                      A
 Frequencies --    395.2953               451.9722               495.7458
 Red. masses --      2.1538                 1.8782                 2.5402
 Frc consts  --      0.1983                 0.2261                 0.3678
 IR Inten    --      4.0730                 0.4741                 3.9150

                     16                     17                     18
                      A                      A                      A
 Frequencies --    540.5336               602.1693               720.9257
 Red. masses --      4.1083                 2.2816                 3.7916
 Frc consts  --      0.7072                 0.4874                 1.1611
 IR Inten    --      1.8258                43.9359                 3.5012

                     19                     20                     21
                      A                      A                      A
 Frequencies --    748.3168               780.2803               830.5338
 Red. masses --      2.6728                 2.9035                 2.9815
 Frc consts  --      0.8818                 1.0415                 1.2117
 IR Inten    --      2.6925                 4.2726                 6.7817

                     22                     23                     24
                      A                      A                      A
 Frequencies --    847.9397               857.1296               869.9475
 Red. masses --      3.6729                 2.7086                 2.3752
 Frc consts  --      1.5559                 1.1724                 1.0591
 IR Inten    --     11.9956                 3.2639                48.0047

                     25                     26                     27
                      A                      A                      A
 Frequencies --    914.3659               921.1641               946.3320
 Red. masses --      1.7768                 2.1671                 2.0691
 Frc consts  --      0.8752                 1.0834                 1.0917
 IR Inten    --      0.1513                 1.7196                10.5308

                     28                     29                     30
                      A                      A                      A
 Frequencies --    976.8837               998.5695              1022.4336
 Red. masses --      2.5114                 1.8838                 1.9347
 Frc consts  --      1.4121                 1.1067                 1.1916
 IR Inten    --      0.2223                 2.9192                 0.1664

                     31                     32                     33
                      A                      A                      A
 Frequencies --   1038.7971              1072.7850              1079.0999
 Red. masses --      1.6731                 1.8535                 2.1378
 Frc consts  --      1.0638                 1.2568                 1.4667
 IR Inten    --      2.7381                35.0007                17.4822

                     34                     35                     36
                      A                      A                      A
 Frequencies --   1085.6276              1087.8716              1097.2602
 Red. masses --      1.9518                 1.5390                 2.0682
 Frc consts  --      1.3553                 1.0731                 1.4671
 IR Inten    --      0.9272                 7.4297                16.0806

                     37                     38                     39
                      A                      A                      A
 Frequencies --   1135.9211              1139.8814              1162.0090
 Red. masses --      1.2677                 1.7800                 2.1159
 Frc consts  --      0.9637                 1.3627                 1.6833
 IR Inten    --      9.2530                 9.7979                 1.3965

                     40                     41                     42
                      A                      A                      A
 Frequencies --   1190.8541              1195.2729              1198.3541
 Red. masses --      1.2728                 1.3759                 1.2150
 Frc consts  --      1.0635                 1.1582                 1.0280
 IR Inten    --      4.4520                 9.1108                 6.7232

                     43                     44                     45
                      A                      A                      A
 Frequencies --   1214.7949              1226.4055              1254.3866
 Red. masses --      1.2214                 1.5498                 1.4470
 Frc consts  --      1.0620                 1.3734                 1.3415
 IR Inten    --      0.2310                 0.8990                 3.5261

                     46                     47                     48
                      A                      A                      A
 Frequencies --   1274.6423              1282.7549              1305.3989
 Red. masses --      1.4710                 1.3324                 1.4581
 Frc consts  --      1.4081                 1.2917                 1.4640
 IR Inten    --      3.5577                 2.1019                20.9027

                     49                     50                     51
                      A                      A                      A
 Frequencies --   1322.0710              1333.9728              1337.7480
 Red. masses --      1.4073                 2.1964                 1.5798
 Frc consts  --      1.4493                 2.3028                 1.6657
 IR Inten    --      5.5033                20.1509                 5.2489

                     52                     53                     54
                      A                      A                      A
 Frequencies --   1348.7899              1367.9958              1373.1131
 Red. masses --      1.3465                 1.4252                 1.4782
 Frc consts  --      1.4433                 1.5714                 1.6420
 IR Inten    --      0.9987                 1.4190                 5.9355

                     55                     56                     57
                      A                      A                      A
 Frequencies --   1380.8055              1409.0587              1419.8616
 Red. masses --      1.3814                 1.3471                 1.4500
 Frc consts  --      1.5518                 1.5758                 1.7223
 IR Inten    --      2.5274                 8.4634                 2.0926

                     58                     59                     60
                      A                      A                      A
 Frequencies --   1435.5275              1457.2785              1468.2141
 Red. masses --      1.2675                 1.4087                 1.1522
 Frc consts  --      1.5389                 1.7626                 1.4634
 IR Inten    --      7.4992                 6.2285                 0.2948

                     61                     62                     63
                      A                      A                      A
 Frequencies --   1491.5911              1506.1149              1514.6654
 Red. masses --      1.1463                 1.0513                 1.0803
 Frc consts  --      1.5026                 1.4051                 1.4602
 IR Inten    --      0.8856                 9.2553                 6.4465

                     64                     65                     66
                      A                      A                      A
 Frequencies --   1519.9297              1527.5187              1531.8833
 Red. masses --      1.0718                 1.0935                 1.1108
 Frc consts  --      1.4588                 1.5032                 1.5358
 IR Inten    --     15.0125                 5.6930                 0.4270

                     67                     68                     69
                      A                      A                      A
 Frequencies --   1540.3628              1541.2219              1555.3027
 Red. masses --      1.0523                 1.0891                 1.0959
 Frc consts  --      1.4711                 1.5243                 1.5619
 IR Inten    --      4.0029                 0.4315                 3.9979

                     70                     71                     72
                      A                      A                      A
 Frequencies --   1556.4033              2930.5161              2935.6537
 Red. masses --      1.0557                 1.0614                 1.0738
 Frc consts  --      1.5067                 5.3703                 5.4522
 IR Inten    --      5.0851                47.4803               103.9731

                     73                     74                     75
                      A                      A                      A
 Frequencies --   2941.0848              2961.3490              3022.5138
 Red. masses --      1.0632                 1.0742                 1.0668
 Frc consts  --      5.4187                 5.5504                 5.7421
 IR Inten    --    123.9270               108.7774                28.5038

                     76                     77                     78
                      A                      A                      A
 Frequencies --   3036.0932              3048.8435              3053.3014
 Red. masses --      1.0662                 1.0749                 1.0734
 Frc consts  --      5.7903                 5.8869                 5.8957
 IR Inten    --     28.3599                21.3013                42.7416

                     79                     80                     81
                      A                      A                      A
 Frequencies --   3058.6353              3064.8458              3072.5253
 Red. masses --      1.0688                 1.0792                 1.0911
 Frc consts  --      5.8910                 5.9727                 6.0689
 IR Inten    --     73.7152                46.7774                26.0355

                     82                     83                     84
                      A                      A                      A
 Frequencies --   3076.5715              3079.9280              3083.5334
 Red. masses --      1.0878                 1.0894                 1.0963
 Frc consts  --      6.0664                 6.0887                 6.1415
 IR Inten    --     49.2275                43.6953                22.6755

                     85                     86                     87
                      A                      A                      A
 Frequencies --   3094.5955              3098.4036              3107.3310
 Red. masses --      1.0865                 1.0980                 1.1026
 Frc consts  --      6.1307                 6.2102                 6.2723
 IR Inten    --     77.8981                 5.2182                33.6257

                     88                     89                     90
                      A                      A                      A
 Frequencies --   3112.7245              3128.5471              3513.7407
 Red. masses --      1.1000                 1.0946                 1.0750
 Frc consts  --      6.2797                 6.3122                 7.8202
 IR Inten    --     40.7164                25.2029                 0.7292

 - Thermochemistry -
 -------------------
 Temperature   298.150 Kelvin.  Pressure   1.00000 Atm.
 Atom     1 has atomic number  6 and mass  12.00000

 Molecular mass:   168.16265 amu.
 Principal axes and moments of inertia in atomic units:
                           1         2         3
     Eigenvalues --  1103.633962941.940653167.39506
           X            0.99997  -0.00082   0.00708
           Y            0.00048   0.99888   0.04737
           Z           -0.00711  -0.04736   0.99885
 This molecule is an asymmetric top.
 Rotational symmetry number  1.
 Warning -- assumption of classical behavior for rotation
           may cause significant error
 Rotational temperatures (Kelvin)      0.07848     0.02944     0.02735
 Rotational constants (GHZ):           1.63527     0.61345     0.56979
 Zero-point vibrational energy     783477.3 (Joules/Mol)
                                  187.25558 (Kcal/Mol)
 Warning -- explicit consideration of  17 degrees of freedom as
           vibrations may cause significant error
 Vibrational temperatures:     35.19    91.56   130.06   202.21   277.61
          (Kelvin)            316.60   372.98   406.23   445.78   453.74
                              538.23   563.22   568.74   650.29   713.27
                              777.71   866.39  1037.25  1076.66  1122.65
                             1194.95  1220.00  1233.22  1251.66  1315.57
                             1325.35  1361.56  1405.52  1436.72  1471.05
                             1494.60  1543.50  1552.58  1561.98  1565.20
                             1578.71  1634.34  1640.04  1671.87  1713.37
                             1719.73  1724.16  1747.82  1764.52  1804.78
                             1833.93  1845.60  1878.18  1902.17  1919.29
                             1924.72  1940.61  1968.24  1975.60  1986.67
                             2027.32  2042.86  2065.40  2096.70  2112.43
                             2146.07  2166.96  2179.27  2186.84  2197.76
                             2204.04  2216.24  2217.47  2237.73  2239.32
                             4216.36  4223.75  4231.57  4260.72  4348.72
                             4368.26  4386.61  4393.02  4400.69  4409.63
                             4420.68  4426.50  4431.33  4436.52  4452.43
                             4457.91  4470.76  4478.52  4501.28  5055.49

 Zero-point correction=                           0.298411 (Hartree/Particle)
 Thermal correction to Energy=                    0.310289
 Thermal correction to Enthalpy=                  0.311233
 Thermal correction to Gibbs Free Energy=         0.259980
 Sum of electronic and zero-point Energies=           -502.340559
 Sum of electronic and thermal Energies=              -502.328681
 Sum of electronic and thermal Enthalpies=            -502.327737
 Sum of electronic and thermal Free Energies=         -502.378990

                     E (Thermal)             CV                S
                      KCal/Mol        Cal/Mol-Kelvin    Cal/Mol-Kelvin
 Total                  194.709             46.717            107.871
 Electronic               0.000              0.000              0.000
 Translational            0.889              2.981             41.267
 Rotational               0.889              2.981             30.709
 Vibrational            192.932             40.755             35.894
 Vibration     1          0.593              1.985              6.235
 Vibration     2          0.597              1.972              4.341
 Vibration     3          0.602              1.956              3.651
 Vibration     4          0.615              1.913              2.797
 Vibration     5          0.635              1.850              2.199
 Vibration     6          0.647              1.811              1.959
 Vibration     7          0.668              1.747              1.667
 Vibration     8          0.681              1.706              1.519
 Vibration     9          0.699              1.655              1.363
 Vibration    10          0.703              1.644              1.334
 Vibration    11          0.745              1.525              1.063
 Vibration    12          0.759              1.488              0.995
 Vibration    13          0.762              1.480              0.980
 Vibration    14          0.811              1.357              0.790
 Vibration    15          0.851              1.259              0.669
 Vibration    16          0.896              1.160              0.564
 Vibration    17          0.960              1.027              0.446

 Optimization completed.
    -- Stationary point found.
 Normal termination of Gaussian 16 at Wed Dec  9 18:24:11 2020.

 ----------------------------------------------------------------------
 # B3LYP/6-311++G(d,p) empiricaldispersion=gd3bj scf=xqc pop=npa geom=c
 heck
 ----------------------------------------------------------------------

 ---------------------------------------
 CID_146675370_JID_2916_Energie_neutraal
 ---------------------------------------
 Structure from the checkpoint file:  "JID_2916.chk"
 Charge =  0 Multiplicity = 1

 SCF Done:  E(RB3LYP) =  -502.778219347     A.U. after   14 cycles
 Normal termination of Gaussian 16 at Wed Dec  9 18:27:29 2020.

 ----------------------------------------------------------------------
 # B3LYP/6-311++G(d,p) empiricaldispersion=gd3bj scf=xqc pop=npa geom=c
 heck
 ----------------------------------------------------------------------

 -------------------------------------
 CID_146675370_JID_2916_Energie_kation
 -------------------------------------
 Structure from the checkpoint file:  "JID_2916.chk"
 Charge =  1 Multiplicity = 2

 SCF Done:  E(UB3LYP) =  -502.508640085     A.U. after   21 cycles
 Normal termination of Gaussian 16 at Wed Dec  9 18:34:02 2020.
 Gaussian 16:  ES64L-G16RevA.03 25-Dec-2016

 ----------------------------------------------------------------------
 # B3LYP/6-311++G(d,p) empiricaldispersion=gd3bj scf=xqc pop=npa geom=c
 heck
 ----------------------------------------------------------------------

 ------------------------------------
 CID_146675370_JID_2916_Energie_anion
 ------------------------------------
 Structure from the checkpoint file:  "JID_2916.chk"
 Charge = -1 Multiplicity = 2

                         Standard orientation:
 ---------------------------------------------------------------------
 Center     Atomic      Atomic             Coordinates (Angstroms)
 Number     Number       Type             X           Y           Z
 ---------------------------------------------------------------------
      1          6           0        2.558559    1.548021    0.196994
      2          7           0        2.482105    0.321936   -0.573857
      3          6           0        3.504458   -0.630053   -0.187770
      4          6           0        1.146648   -0.250524   -0.732548
      5          6           0        0.473636   -0.870353    0.518584
      6          6           0       -0.235350    0.155318    1.443451
      7          6           0       -1.752227    0.143131    1.099996
      8          6           0       -2.242975    1.387954    0.349703
      9          7           0       -1.826392    1.112539   -1.025280
     10          6           0       -2.199983   -0.284380   -1.281687
     11          6           0       -1.949657   -1.012668    0.066520
     12          6           0       -0.661985   -1.849206    0.148553
     13          1           0        3.532890    2.023953    0.026348
     14          1           0        2.449938    1.407178    1.289759
     15          1           0        1.777593    2.240002   -0.135426
     16          1           0        3.439345   -0.969785    0.864668
     17          1           0        3.445706   -1.515381   -0.830963
     18          1           0        4.494422   -0.176739   -0.321866
     19          1           0        0.490855    0.524777   -1.143135
     20          1           0        1.239097   -1.037918   -1.493678
     21          1           0        1.246263   -1.410170    1.078631
     22          1           0       -0.093361   -0.130953    2.492140
     23          1           0        0.179470    1.159803    1.333573
     24          1           0       -2.346952   -0.014404    2.004689
     25          1           0       -1.788711    2.315876    0.715123
     26          1           0       -3.340373    1.481496    0.460692
     27          1           0       -2.247651    1.750813   -1.695691
     28          1           0       -1.597132   -0.694761   -2.099756
     29          1           0       -3.261903   -0.392533   -1.564231
     30          1           0       -2.821505   -1.628159    0.307226
     31          1           0       -0.459270   -2.406418   -0.774267
     32          1           0       -0.775464   -2.591448    0.949348
 ---------------------------------------------------------------------

 SCF Done:  E(UB3LYP) =  -502.763641875     A.U. after   26 cycles

 The electronic state is 2-A.
 Alpha  occ. eigenvalues --  -14.19848 -14.18730 -10.08576 -10.08450 -10.07944
 Alpha  occ. eigenvalues --  -10.07870 -10.07356 -10.06026 -10.05918 -10.05743
 Alpha  occ. eigenvalues --  -10.05411 -10.05060  -0.81739  -0.81049  -0.71724
 Alpha  occ. eigenvalues --   -0.63541  -0.63010  -0.60549  -0.57947  -0.56315
 Alpha  occ. eigenvalues --   -0.50220  -0.47073  -0.44427  -0.43426  -0.41275
 Alpha  occ. eigenvalues --   -0.38044  -0.36727  -0.35898  -0.35435  -0.32838
 Alpha  occ. eigenvalues --   -0.32015  -0.31665  -0.30849  -0.28734  -0.27427
 Alpha  occ. eigenvalues --   -0.27047  -0.26556  -0.25976  -0.25347  -0.22488
 Alpha  occ. eigenvalues --   -0.22249  -0.21466  -0.20960  -0.20649  -0.20145
 Alpha  occ. eigenvalues --   -0.12066  -0.10389   0.04504
 Alpha virt. eigenvalues --    0.06498   0.07411   0.07843   0.08929   0.08985
 Alpha virt. eigenvalues --    0.09485   0.10164   0.10359   0.11215   0.11666
 Alpha virt. eigenvalues --    0.12262   0.12493   0.12868   0.13532   0.14522

  Beta  occ. eigenvalues --  -14.19843 -14.18710 -10.08555 -10.08435 -10.07921
  Beta  occ. eigenvalues --  -10.07846 -10.07351 -10.06015 -10.05906 -10.05737
  Beta  occ. eigenvalues --  -10.05396 -10.05045  -0.81724  -0.81019  -0.71692
  Beta  occ. eigenvalues --   -0.63508  -0.62972  -0.60519  -0.57913  -0.56267
  Beta  occ. eigenvalues --   -0.50171  -0.47015  -0.44391  -0.43388  -0.41194
  Beta  occ. eigenvalues --   -0.38007  -0.36703  -0.35876  -0.35402  -0.32804
  Beta  occ. eigenvalues --   -0.31985  -0.31615  -0.30819  -0.28709  -0.27398
  Beta  occ. eigenvalues --   -0.27020  -0.26533  -0.25949  -0.25324  -0.22454
  Beta  occ. eigenvalues --   -0.22219  -0.21431  -0.20924  -0.20617  -0.20113
  Beta  occ. eigenvalues --   -0.12010  -0.10364
  Beta virt. eigenvalues --    0.06557   0.07450   0.08019   0.08493   0.09301
  Beta virt. eigenvalues --    0.09540   0.10034   0.10613   0.10766   0.11661
  Beta virt. eigenvalues --    0.11998   0.12661   0.12834   0.13154   0.13812

 Mulliken charges and spin densities:
               1          2
     1  C   -0.002412  -0.388980
     2  N    0.127428   0.096799
     3  C    0.428516  -0.723957
     4  C   -1.151860  -0.081508
     5  C    0.543229   0.151994
     6  C   -0.186871  -0.372479
     7  C   -0.576948   0.806368
     8  C    1.106292  -1.708323
     9  N   -0.341884   0.186111
    10  C    0.502188  -1.209279
    11  C    0.097219   0.269022
    12  C    0.121909  -0.923879
    13  H   -0.105966   0.239502
    14  H   -0.017040   0.145208
    15  H    0.025647   0.111311
    16  H   -0.241590   0.346184
    17  H   -0.100597   0.238056
    18  H   -0.024294   0.148920
    19  H    0.484197  -0.182329
    20  H    0.071646   0.055559
    21  H    0.504320  -0.296402
    22  H   -0.271530   0.421083
    23  H    0.231834  -0.117571
    24  H   -0.451707   0.695573
    25  H   -0.239300   0.378161
    26  H   -0.362451   0.500219
    27  H    0.057346   0.197258
    28  H   -0.041999   0.180665
    29  H   -0.631707   0.770939
    30  H   -0.141766   0.376414
    31  H   -0.066876   0.200971
    32  H   -0.344974   0.488391
 Sum of Mulliken charges =  -1.00000   1.00000

 Dipole moment (field-independent basis, Debye):
    X=              3.9608    Y=              0.4764    Z=             -1.3892  Tot=              4.2243
 Quadrupole moment (field-independent basis, Debye-Ang):
   XX=           -150.3322   YY=           -113.5576   ZZ=           -115.0045
   XY=              0.1284   XZ=              0.2277   YZ=              2.2610

 Summary of Natural Population Analysis:

                                       Natural Population
                Natural  -----------------------------------------------
    Atom  No    Charge         Core      Valence    Rydberg      Total
 -----------------------------------------------------------------------
      C    1   -0.17511      0.99965     2.16856    0.00690     3.17511
      N    2   -0.27838      0.99973     2.76558    0.01306     3.77838
      C    3   -0.17778      0.99965     2.16901    0.00913     3.17778
      C    4   -0.08540      0.99958     2.07474    0.01109     3.08540
      C    5   -0.12509      0.99959     2.11472    0.01078     3.12509
      C    6   -0.19078      0.99961     2.18084    0.01032     3.19078
      C    7   -0.11089      0.99959     2.09917    0.01213     3.11089
      C    8   -0.08322      0.99961     2.07188    0.01174     3.08322
      N    9   -0.34821      0.99975     2.83628    0.01218     3.84821
      C   10   -0.08715      0.99962     2.07578    0.01175     3.08715
      C   11   -0.11238      0.99959     2.10074    0.01205     3.11238
      C   12   -0.18555      0.99961     2.17588    0.01006     3.18555
      H   13    0.08960      0.00000     0.40924    0.00116     0.41040
      H   14    0.07924      0.00000     0.41925    0.00151     0.42076
      H   15    0.09734      0.00000     0.40147    0.00120     0.40266
      H   16    0.07954      0.00000     0.41892    0.00154     0.42046
      H   17    0.09431      0.00000     0.40475    0.00095     0.40569
      H   18    0.09156      0.00000     0.40745    0.00100     0.40844
      H   19    0.11015      0.00000     0.38748    0.00237     0.38985
      H   20    0.08875      0.00000     0.40974    0.00151     0.41125
      H   21    0.09719      0.00000     0.40073    0.00208     0.40281
      H   22    0.09973      0.00000     0.39885    0.00142     0.40027
      H   23    0.09954      0.00000     0.39845    0.00201     0.40046
      H   24    0.10423      0.00000     0.39380    0.00197     0.39577
      H   25    0.09232      0.00000     0.40646    0.00122     0.40768
      H   26    0.08220      0.00000     0.41546    0.00233     0.41780
      H   27    0.17641      0.00000     0.32095    0.00264     0.32359
      H   28    0.09095      0.00000     0.40781    0.00124     0.40905
      H   29    0.08525      0.00000     0.41254    0.00221     0.41475
      H   30    0.10444      0.00000     0.39346    0.00211     0.39556
      H   31    0.09698      0.00000     0.40198    0.00103     0.40302
      H   32    0.10021      0.00000     0.39847    0.00132     0.39979
 =======================================================================
   * Total *    0.00000     11.99557    34.84042    0.16401    47.00000

 Normal termination of Gaussian 16 at Wed Dec  9 18:41:50 2020.
