 Gaussian 16, Revision A.03,

 -----------------------------------------------------------
 # opt freq B3LYP/6-31G(d) empiricaldispersion=gd3bj scf=xqc
 -----------------------------------------------------------

 ------------------------------
 CID_54798986_JID_1718_neutraal
 ------------------------------
 Symbolic Z-matrix:
 Charge =  0 Multiplicity = 1

 SCF Done:  E(RB3LYP) =  -448.513473434     A.U. after   12 cycles
 SCF Done:  E(RB3LYP) =  -448.517302115     A.U. after   10 cycles
 SCF Done:  E(RB3LYP) =  -448.517577017     A.U. after   10 cycles
 SCF Done:  E(RB3LYP) =  -448.517639666     A.U. after   10 cycles
 SCF Done:  E(RB3LYP) =  -448.517661331     A.U. after    9 cycles
 SCF Done:  E(RB3LYP) =  -448.517670010     A.U. after    9 cycles
 SCF Done:  E(RB3LYP) =  -448.517671712     A.U. after    8 cycles
 SCF Done:  E(RB3LYP) =  -448.517672085     A.U. after    6 cycles
 SCF Done:  E(RB3LYP) =  -448.517672672     A.U. after    7 cycles
 SCF Done:  E(RB3LYP) =  -448.517673225     A.U. after    7 cycles
 SCF Done:  E(RB3LYP) =  -448.517698978     A.U. after    8 cycles
 SCF Done:  E(RB3LYP) =  -448.517702117     A.U. after    9 cycles
 SCF Done:  E(RB3LYP) =  -448.517700993     A.U. after    9 cycles
 SCF Done:  E(RB3LYP) =  -448.517702950     A.U. after    8 cycles
 SCF Done:  E(RB3LYP) =  -448.517703330     A.U. after    8 cycles
 SCF Done:  E(RB3LYP) =  -448.517703356     A.U. after    6 cycles
 Optimization completed.
    -- Stationary point found.
 Normal termination of Gaussian 16 at Tue Dec  8 21:05:10 2020.

 --------------------------------------------------------------------
 #N Geom=AllCheck Guess=TCheck SCRF=Check GenChk RB3LYP/6-31G(d) Freq
 --------------------------------------------------------------------

 Structure from the checkpoint file:  "JID_1718.chk"
 ------------------------------
 CID_54798986_JID_1718_neutraal
 ------------------------------
 Charge =  0 Multiplicity = 1

 SCF Done:  E(RB3LYP) =  -448.517703356     A.U. after    1 cycles

  Exact polarizability: 131.035  -0.998 102.305   0.354   0.331  99.139
 Approx polarizability: 151.748  -0.490 144.800   1.011   1.580 149.778

                      1                      2                      3
                      A                      A                      A
 Frequencies --     32.0747                36.7166                60.5680
 Red. masses --      1.8017                 2.7988                 2.6016
 Frc consts  --      0.0011                 0.0022                 0.0056
 IR Inten    --      0.0162                 0.2012                 0.0248

                      4                      5                      6
                      A                      A                      A
 Frequencies --     92.4354               147.6947               202.7321
 Red. masses --      2.7771                 2.2151                 2.8074
 Frc consts  --      0.0140                 0.0285                 0.0680
 IR Inten    --      0.0942                 0.9720                 0.5132

                      7                      8                      9
                      A                      A                      A
 Frequencies --    215.9476               236.3197               263.3824
 Red. masses --      1.4003                 1.6289                 1.0858
 Frc consts  --      0.0385                 0.0536                 0.0444
 IR Inten    --      1.3586                 1.3020                 0.6094

                     10                     11                     12
                      A                      A                      A
 Frequencies --    276.7088               291.7796               335.9742
 Red. masses --      1.4263                 1.5609                 2.0260
 Frc consts  --      0.0643                 0.0783                 0.1347
 IR Inten    --      0.5513                 0.0241                 0.0941

                     13                     14                     15
                      A                      A                      A
 Frequencies --    367.3134               416.8481               441.9936
 Red. masses --      2.4274                 2.0479                 2.2269
 Frc consts  --      0.1930                 0.2097                 0.2563
 IR Inten    --      0.6680                 0.0699                 0.8641

                     16                     17                     18
                      A                      A                      A
 Frequencies --    461.6330               497.1243               599.8402
 Red. masses --      2.4101                 2.3735                 2.6234
 Frc consts  --      0.3026                 0.3456                 0.5561
 IR Inten    --      0.2879                 4.6740                 1.4806

                     19                     20                     21
                      A                      A                      A
 Frequencies --    631.5303               760.5079               773.8860
 Red. masses --      3.2645                 2.2670                 1.5536
 Frc consts  --      0.7671                 0.7725                 0.5482
 IR Inten    --      0.8719                 2.2829                16.7379

                     22                     23                     24
                      A                      A                      A
 Frequencies --    797.3646               823.8568               886.3326
 Red. masses --      1.3228                 1.6107                 2.9217
 Frc consts  --      0.4955                 0.6441                 1.3523
 IR Inten    --     38.7398                 6.6834                 3.1043

                     25                     26                     27
                      A                      A                      A
 Frequencies --    898.3295               927.7079               937.9888
 Red. masses --      2.3037                 2.1186                 1.9790
 Frc consts  --      1.0953                 1.0743                 1.0259
 IR Inten    --      0.9817                 6.5405                 2.1830

                     28                     29                     30
                      A                      A                      A
 Frequencies --    953.0380               961.7080               967.9038
 Red. masses --      1.6102                 1.4040                 1.6819
 Frc consts  --      0.8617                 0.7651                 0.9283
 IR Inten    --      0.6792                 0.5507                 7.8341

                     31                     32                     33
                      A                      A                      A
 Frequencies --    974.3340               980.0621              1005.2224
 Red. masses --      1.2470                 1.5251                 1.4180
 Frc consts  --      0.6975                 0.8631                 0.8442
 IR Inten    --      0.8608                 0.6449                 0.3736

                     34                     35                     36
                      A                      A                      A
 Frequencies --   1043.3726              1058.9619              1080.0082
 Red. masses --      1.7396                 1.9883                 1.5526
 Frc consts  --      1.1158                 1.3137                 1.0670
 IR Inten    --      0.5732                 0.2121                 7.2332

                     37                     38                     39
                      A                      A                      A
 Frequencies --   1110.9446              1120.4257              1168.8493
 Red. masses --      2.4440                 2.1918                 3.1741
 Frc consts  --      1.7772                 1.6211                 2.5549
 IR Inten    --      4.7697                 4.7862                73.5447

                     40                     41                     42
                      A                      A                      A
 Frequencies --   1191.4947              1216.0644              1232.3934
 Red. masses --      1.3075                 1.4818                 1.4093
 Frc consts  --      1.0936                 1.2911                 1.2611
 IR Inten    --      4.8077                 4.1778                 9.5454

                     43                     44                     45
                      A                      A                      A
 Frequencies --   1255.3969              1272.5546              1282.2857
 Red. masses --      2.3111                 1.8982                 1.2307
 Frc consts  --      2.1460                 1.8111                 1.1922
 IR Inten    --     11.8550                 3.3700                 0.5678

                     46                     47                     48
                      A                      A                      A
 Frequencies --   1297.3392              1308.6405              1322.6096
 Red. masses --      2.5335                 1.4493                 1.4162
 Frc consts  --      2.5123                 1.4623                 1.4596
 IR Inten    --      4.6037                 1.1122                 1.6356

                     49                     50                     51
                      A                      A                      A
 Frequencies --   1341.4724              1351.3810              1358.9056
 Red. masses --      1.3063                 1.3361                 1.3234
 Frc consts  --      1.3850                 1.4376                 1.4398
 IR Inten    --      1.5303                 1.1789                 2.4969

                     52                     53                     54
                      A                      A                      A
 Frequencies --   1366.7953              1391.3227              1421.4008
 Red. masses --      1.3906                 1.3739                 1.2911
 Frc consts  --      1.5306                 1.5670                 1.5369
 IR Inten    --      3.3777                12.7628                 9.1969

                     55                     56                     57
                      A                      A                      A
 Frequencies --   1423.0572              1428.5003              1458.6359
 Red. masses --      1.2717                 1.3282                 1.2497
 Frc consts  --      1.5174                 1.5969                 1.5666
 IR Inten    --      5.5968                 3.3004                 7.7062

                     58                     59                     60
                      A                      A                      A
 Frequencies --   1509.0117              1510.6871              1513.2338
 Red. masses --      1.1150                 1.1102                 1.0821
 Frc consts  --      1.4960                 1.4928                 1.4600
 IR Inten    --     15.5900                16.9032                 0.5505

                     61                     62                     63
                      A                      A                      A
 Frequencies --   1518.5252              1522.4770              1522.5899
 Red. masses --      1.0605                 1.0563                 1.0861
 Frc consts  --      1.4407                 1.4425                 1.4835
 IR Inten    --      0.6107                 0.4832                 1.9975

                     64                     65                     66
                      A                      A                      A
 Frequencies --   1525.1685              1531.9366              1536.6143
 Red. masses --      1.0846                 1.0838                 1.0726
 Frc consts  --      1.4865                 1.4986                 1.4921
 IR Inten    --      4.2794                13.7529                13.1406

                     67                     68                     69
                      A                      A                      A
 Frequencies --   1544.3645              1548.8920              1554.1097
 Red. masses --      1.0651                 1.1045                 1.0635
 Frc consts  --      1.4967                 1.5612                 1.5134
 IR Inten    --      4.2768                 2.6225                 7.8160

                     70                     71                     72
                      A                      A                      A
 Frequencies --   2940.0229              3013.6588              3024.4200
 Red. masses --      1.0719                 1.0802                 1.0721
 Frc consts  --      5.4592                 5.7802                 5.7781
 IR Inten    --     61.7237                 3.1951                20.6884

                     73                     74                     75
                      A                      A                      A
 Frequencies --   3034.4527              3037.2092              3038.7622
 Red. masses --      1.0353                 1.0364                 1.0711
 Frc consts  --      5.6165                 5.6326                 5.8272
 IR Inten    --     28.9789                33.2508                50.6186

                     76                     77                     78
                      A                      A                      A
 Frequencies --   3044.4440              3052.4098              3053.3593
 Red. masses --      1.0430                 1.0747                 1.0720
 Frc consts  --      5.6958                 5.8998                 5.8887
 IR Inten    --     17.6115                15.4074                51.6648

                     79                     80                     81
                      A                      A                      A
 Frequencies --   3069.5994              3091.6769              3098.2853
 Red. masses --      1.0634                 1.0985                 1.1023
 Frc consts  --      5.9033                 6.1862                 6.2344
 IR Inten    --     51.4642                24.1573                 0.7192

                     82                     83                     84
                      A                      A                      A
 Frequencies --   3101.1046              3101.4901              3103.2041
 Red. masses --      1.1013                 1.0958                 1.1017
 Frc consts  --      6.2398                 6.2103                 6.2506
 IR Inten    --     16.2248                19.9957                55.9565

                     85                     86                     87
                      A                      A                      A
 Frequencies --   3108.1798              3108.4548              3111.6328
 Red. masses --      1.0997                 1.1008                 1.1014
 Frc consts  --      6.2596                 6.2667                 6.2828
 IR Inten    --     28.3752                58.1771                53.9382

                     88                     89                     90
                      A                      A                      A
 Frequencies --   3119.6490              3138.4881              3479.0504
 Red. masses --      1.1015                 1.0996                 1.0729
 Frc consts  --      6.3162                 6.3813                 7.6509
 IR Inten    --     75.3745                23.2533                 1.0551

 - Thermochemistry -
 -------------------
 Temperature   298.150 Kelvin.  Pressure   1.00000 Atm.
 Atom     1 has atomic number  6 and mass  12.00000

 Molecular mass:   155.16740 amu.
 Principal axes and moments of inertia in atomic units:
                           1         2         3
     Eigenvalues --   706.453463925.373514135.82089
           X            1.00000  -0.00041  -0.00004
           Y            0.00041   0.99997   0.00774
           Z            0.00004  -0.00774   0.99997
 This molecule is an asymmetric top.
 Rotational symmetry number  1.
 Warning -- assumption of classical behavior for rotation
           may cause significant error
 Rotational temperatures (Kelvin)      0.12260     0.02207     0.02094
 Rotational constants (GHZ):           2.55465     0.45976     0.43637
 Zero-point vibrational energy     789337.0 (Joules/Mol)
                                  188.65606 (Kcal/Mol)
 Warning -- explicit consideration of  18 degrees of freedom as
           vibrations may cause significant error
 Vibrational temperatures:     46.15    52.83    87.14   132.99   212.50
          (Kelvin)            291.69   310.70   340.01   378.95   398.12
                              419.81   483.39   528.48   599.75   635.93
                              664.19   715.25   863.04   908.63  1094.20
                             1113.45  1147.23  1185.35  1275.23  1292.50
                             1334.76  1349.56  1371.21  1383.68  1392.60
                             1401.85  1410.09  1446.29  1501.18  1523.61
                             1553.89  1598.40  1612.04  1681.71  1714.30
                             1749.65  1773.14  1806.24  1830.92  1844.92
                             1866.58  1882.84  1902.94  1930.08  1944.34
                             1955.16  1966.51  2001.80  2045.08  2047.46
                             2055.29  2098.65  2171.13  2173.54  2177.21
                             2184.82  2190.50  2190.67  2194.38  2204.12
                             2210.85  2222.00  2228.51  2236.02  4230.04
                             4335.98  4351.47  4365.90  4369.87  4372.10
                             4380.28  4391.74  4393.10  4416.47  4448.23
                             4457.74  4461.80  4462.35  4464.82  4471.98
                             4472.37  4476.95  4488.48  4515.58  5005.58

 Zero-point correction=                           0.300643 (Hartree/Particle)
 Thermal correction to Energy=                    0.313608
 Thermal correction to Enthalpy=                  0.314552
 Thermal correction to Gibbs Free Energy=         0.260566
 Sum of electronic and zero-point Energies=           -448.217061
 Sum of electronic and thermal Energies=              -448.204095
 Sum of electronic and thermal Enthalpies=            -448.203151
 Sum of electronic and thermal Free Energies=         -448.257137

                     E (Thermal)             CV                S
                      KCal/Mol        Cal/Mol-Kelvin    Cal/Mol-Kelvin
 Total                  196.792             48.963            113.623
 Electronic               0.000              0.000              0.000
 Translational            0.889              2.981             41.028
 Rotational               0.889              2.981             30.818
 Vibrational            195.015             43.002             41.778
 Vibration     1          0.594              1.983              5.697
 Vibration     2          0.594              1.982              5.429
 Vibration     3          0.597              1.973              4.439
 Vibration     4          0.602              1.955              3.608
 Vibration     5          0.617              1.905              2.702
 Vibration     6          0.639              1.836              2.108
 Vibration     7          0.645              1.817              1.993
 Vibration     8          0.655              1.785              1.830
 Vibration     9          0.670              1.740              1.639
 Vibration    10          0.678              1.717              1.554
 Vibration    11          0.687              1.689              1.464
 Vibration    12          0.717              1.604              1.231
 Vibration    13          0.740              1.539              1.091
 Vibration    14          0.780              1.434              0.903
 Vibration    15          0.802              1.379              0.820
 Vibration    16          0.819              1.335              0.761
 Vibration    17          0.853              1.256              0.665
 Vibration    18          0.958              1.032              0.450

 Optimization completed.
    -- Stationary point found.
 Normal termination of Gaussian 16 at Tue Dec  8 21:12:24 2020.

 ----------------------------------------------------------------------
 # B3LYP/6-311++G(d,p) empiricaldispersion=gd3bj scf=xqc pop=npa geom=c
 heck
 ----------------------------------------------------------------------

 --------------------------------------
 CID_54798986_JID_1718_Energie_neutraal
 --------------------------------------
 Structure from the checkpoint file:  "JID_1718.chk"
 Charge =  0 Multiplicity = 1

 SCF Done:  E(RB3LYP) =  -448.645086756     A.U. after   13 cycles
 Normal termination of Gaussian 16 at Tue Dec  8 21:15:55 2020.

 ----------------------------------------------------------------------
 # B3LYP/6-311++G(d,p) empiricaldispersion=gd3bj scf=xqc pop=npa geom=c
 heck
 ----------------------------------------------------------------------

 ------------------------------------
 CID_54798986_JID_1718_Energie_kation
 ------------------------------------
 Structure from the checkpoint file:  "JID_1718.chk"
 Charge =  1 Multiplicity = 2

 SCF Done:  E(UB3LYP) =  -448.347070615     A.U. after   16 cycles
 Normal termination of Gaussian 16 at Tue Dec  8 21:22:26 2020.
 Gaussian 16:  ES64L-G16RevA.03 25-Dec-2016

 ----------------------------------------------------------------------
 # B3LYP/6-311++G(d,p) empiricaldispersion=gd3bj scf=xqc pop=npa geom=c
 heck
 ----------------------------------------------------------------------

 -----------------------------------
 CID_54798986_JID_1718_Energie_anion
 -----------------------------------
 Structure from the checkpoint file:  "JID_1718.chk"
 Charge = -1 Multiplicity = 2

                         Standard orientation:
 ---------------------------------------------------------------------
 Center     Atomic      Atomic             Coordinates (Angstroms)
 Number     Number       Type             X           Y           Z
 ---------------------------------------------------------------------
      1          6           0        2.714874    1.195736   -0.908743
      2          6           0        2.460608   -0.030581   -0.018988
      3          6           0        3.428263   -1.162124   -0.399544
      4          6           0        2.676787    0.346046    1.457032
      5          6           0        1.018913   -0.540121   -0.230942
      6          7           0        0.007889    0.450643    0.129873
      7          6           0       -1.341962    0.127874   -0.309732
      8          6           0       -2.007152   -1.146806    0.255504
      9          6           0       -3.487288   -0.966793   -0.114703
     10          6           0       -3.747076    0.566208   -0.020742
     11          6           0       -2.349304    1.229252    0.065828
     12          1           0        3.717916    1.604059   -0.735930
     13          1           0        1.975316    1.974734   -0.704235
     14          1           0        2.639341    0.929028   -1.970272
     15          1           0        4.469696   -0.840008   -0.283274
     16          1           0        3.277851   -2.045711    0.233028
     17          1           0        3.287401   -1.467546   -1.443655
     18          1           0        2.052229    1.198209    1.747786
     19          1           0        2.442999   -0.496516    2.120689
     20          1           0        3.720382    0.630588    1.634998
     21          1           0        0.883172   -0.770567   -1.296162
     22          1           0        0.898140   -1.496544    0.312096
     23          1           0       -0.002985    0.568562    1.142080
     24          1           0       -1.307459    0.035657   -1.405549
     25          1           0       -1.574237   -2.074188   -0.133546
     26          1           0       -1.879559   -1.155014    1.348394
     27          1           0       -4.159145   -1.548346    0.524464
     28          1           0       -3.651169   -1.311516   -1.142845
     29          1           0       -4.351970    0.813420    0.857622
     30          1           0       -4.305384    0.920454   -0.893315
     31          1           0       -2.143340    1.550039    1.096344
     32          1           0       -2.244408    2.114558   -0.567643
 ---------------------------------------------------------------------

 SCF Done:  E(UB3LYP) =  -448.628140957     A.U. after   28 cycles

 The electronic state is 2-A.
 Alpha  occ. eigenvalues --  -14.18839 -10.08913 -10.08123 -10.07644 -10.06270
 Alpha  occ. eigenvalues --  -10.06200 -10.05920 -10.05527 -10.05300 -10.05247
 Alpha  occ. eigenvalues --  -10.04690  -0.80620  -0.72652  -0.70053  -0.60780
 Alpha  occ. eigenvalues --   -0.59698  -0.58298  -0.57888  -0.54317  -0.47331
 Alpha  occ. eigenvalues --   -0.46508  -0.43057  -0.38746  -0.38080  -0.36336
 Alpha  occ. eigenvalues --   -0.35055  -0.33940  -0.31947  -0.31359  -0.30751
 Alpha  occ. eigenvalues --   -0.29083  -0.28110  -0.27043  -0.26038  -0.25921
 Alpha  occ. eigenvalues --   -0.24516  -0.23963  -0.23606  -0.22699  -0.21984
 Alpha  occ. eigenvalues --   -0.21915  -0.21601  -0.20759  -0.11824   0.04660
 Alpha virt. eigenvalues --    0.06569   0.07384   0.07987   0.08700   0.08986
 Alpha virt. eigenvalues --    0.09112   0.10245   0.10418   0.10966   0.11077
 Alpha virt. eigenvalues --    0.11440   0.11841   0.12594   0.13864   0.14021

  Beta  occ. eigenvalues --  -14.18824 -10.08904 -10.08106 -10.07641 -10.06251
  Beta  occ. eigenvalues --  -10.06179 -10.05906 -10.05503 -10.05271 -10.05215
  Beta  occ. eigenvalues --  -10.04669  -0.80595  -0.72628  -0.70028  -0.60738
  Beta  occ. eigenvalues --   -0.59655  -0.58241  -0.57843  -0.54265  -0.47272
  Beta  occ. eigenvalues --   -0.46446  -0.43000  -0.38693  -0.38048  -0.36300
  Beta  occ. eigenvalues --   -0.35025  -0.33906  -0.31911  -0.31325  -0.30719
  Beta  occ. eigenvalues --   -0.29043  -0.28073  -0.27009  -0.26008  -0.25888
  Beta  occ. eigenvalues --   -0.24488  -0.23924  -0.23568  -0.22660  -0.21950
  Beta  occ. eigenvalues --   -0.21883  -0.21568  -0.20732  -0.11799
  Beta virt. eigenvalues --    0.06742   0.07356   0.08045   0.08502   0.09242
  Beta virt. eigenvalues --    0.09431   0.09526   0.10642   0.10807   0.11312
  Beta virt. eigenvalues --    0.11488   0.11747   0.12199   0.12865   0.14177

 Mulliken charges and spin densities:
               1          2
     1  C    0.582618  -1.121041
     2  C   -2.399772   3.097190
     3  C    0.321855  -0.932771
     4  C    0.801215  -1.406614
     5  C    0.336925  -1.076374
     6  N    0.290912  -0.100412
     7  C   -0.833549   0.790216
     8  C    0.246928  -0.262849
     9  C    0.507859  -1.131907
    10  C    0.220715  -0.505223
    11  C    0.949859  -1.451696
    12  H   -0.064254   0.204682
    13  H    0.097565   0.069802
    14  H   -0.131366   0.255187
    15  H   -0.339661   0.496473
    16  H   -0.119974   0.252512
    17  H   -0.104347   0.232147
    18  H   -0.178496   0.296671
    19  H   -0.284375   0.438582
    20  H   -0.142171   0.296116
    21  H   -0.054613   0.210191
    22  H   -0.018578   0.163576
    23  H    0.417583  -0.205100
    24  H   -0.157465   0.310792
    25  H   -0.104441   0.249342
    26  H   -0.263514   0.406665
    27  H   -0.303399   0.461180
    28  H    0.047601   0.092375
    29  H    0.023222   0.103409
    30  H   -0.206251   0.345110
    31  H   -0.224148   0.343451
    32  H    0.085513   0.078317
 Sum of Mulliken charges =  -1.00000   1.00000

 Dipole moment (field-independent basis, Debye):
    X=             -1.2656    Y=              1.2385    Z=             -1.1394  Tot=              2.1057
 Quadrupole moment (field-independent basis, Debye-Ang):
   XX=           -153.1914   YY=           -109.5546   ZZ=           -109.2585
   XY=             -0.6280   XZ=              0.2069   YZ=              1.6358

 Summary of Natural Population Analysis:

                                       Natural Population
                Natural  -----------------------------------------------
    Atom  No    Charge         Core      Valence    Rydberg      Total
 -----------------------------------------------------------------------
      C    1   -0.28442      0.99962     2.27872    0.00608     3.28442
      C    2   -0.05461      0.99959     2.04247    0.01255     3.05461
      C    3   -0.28391      0.99962     2.27690    0.00738     3.28391
      C    4   -0.28804      0.99962     2.28084    0.00758     3.28804
      C    5   -0.08198      0.99957     2.07073    0.01169     3.08198
      N    6   -0.33993      0.99972     2.82886    0.01134     3.83993
      C    7   -0.00554      0.99958     1.99369    0.01227     3.00554
      C    8   -0.20061      0.99961     2.19168    0.00931     3.20061
      C    9   -0.19016      0.99965     2.18362    0.00689     3.19016
      C   10   -0.19213      0.99965     2.18574    0.00675     3.19213
      C   11   -0.18921      0.99962     2.18183    0.00776     3.18921
      H   12    0.09618      0.00000     0.40286    0.00097     0.40382
      H   13    0.10800      0.00000     0.39057    0.00143     0.39200
      H   14    0.09706      0.00000     0.40198    0.00096     0.40294
      H   15    0.09961      0.00000     0.39934    0.00105     0.40039
      H   16    0.10014      0.00000     0.39865    0.00122     0.39986
      H   17    0.09876      0.00000     0.40015    0.00109     0.40124
      H   18    0.09964      0.00000     0.39921    0.00114     0.40036
      H   19    0.10025      0.00000     0.39855    0.00120     0.39975
      H   20    0.10030      0.00000     0.39864    0.00106     0.39970
      H   21    0.09276      0.00000     0.40566    0.00158     0.40724
      H   22    0.08357      0.00000     0.41466    0.00177     0.41643
      H   23    0.17028      0.00000     0.32600    0.00372     0.32972
      H   24    0.08842      0.00000     0.41006    0.00152     0.41158
      H   25    0.10196      0.00000     0.39683    0.00121     0.39804
      H   26    0.09414      0.00000     0.40417    0.00168     0.40586
      H   27    0.09888      0.00000     0.39972    0.00140     0.40112
      H   28    0.09356      0.00000     0.40493    0.00150     0.40644
      H   29    0.09644      0.00000     0.40213    0.00144     0.40356
      H   30    0.09544      0.00000     0.40314    0.00142     0.40456
      H   31    0.09413      0.00000     0.40431    0.00156     0.40587
      H   32    0.10101      0.00000     0.39774    0.00124     0.39899
 =======================================================================
   * Total *   -0.00000     10.99586    32.87440    0.12975    44.00000

 Normal termination of Gaussian 16 at Tue Dec  8 21:31:30 2020.
