 Gaussian 16, Revision A.03,

 -----------------------------------------------------------
 # opt freq B3LYP/6-31G(d) empiricaldispersion=gd3bj scf=xqc
 -----------------------------------------------------------

 -------------------------------
 CID_65223031_JID_10227_neutraal
 -------------------------------
 Symbolic Z-matrix:
 Charge =  0 Multiplicity = 1

 SCF Done:  E(RB3LYP) =  -1316.02874566     A.U. after   15 cycles
 SCF Done:  E(RB3LYP) =  -1316.03527954     A.U. after   13 cycles
 SCF Done:  E(RB3LYP) =  -1316.03675297     A.U. after   13 cycles
 SCF Done:  E(RB3LYP) =  -1316.03804678     A.U. after   12 cycles
 SCF Done:  E(RB3LYP) =  -1316.03933198     A.U. after   13 cycles
 SCF Done:  E(RB3LYP) =  -1316.04075725     A.U. after   13 cycles
 SCF Done:  E(RB3LYP) =  -1316.04229597     A.U. after   12 cycles
 SCF Done:  E(RB3LYP) =  -1316.04338225     A.U. after   13 cycles
 SCF Done:  E(RB3LYP) =  -1316.04361290     A.U. after   12 cycles
 SCF Done:  E(RB3LYP) =  -1316.04380512     A.U. after   12 cycles
 SCF Done:  E(RB3LYP) =  -1316.04395287     A.U. after   10 cycles
 SCF Done:  E(RB3LYP) =  -1316.04395761     A.U. after   10 cycles
 SCF Done:  E(RB3LYP) =  -1316.04395965     A.U. after    9 cycles
 SCF Done:  E(RB3LYP) =  -1316.04395989     A.U. after    8 cycles
 SCF Done:  E(RB3LYP) =  -1316.04395995     A.U. after    7 cycles
 Optimization completed.
    -- Stationary point found.
 Normal termination of Gaussian 16 at Sun Dec 13 16:54:22 2020.

 --------------------------------------------------------------------
 #N Geom=AllCheck Guess=TCheck SCRF=Check GenChk RB3LYP/6-31G(d) Freq
 --------------------------------------------------------------------

 Structure from the checkpoint file:  "JID_10227.chk"
 -------------------------------
 CID_65223031_JID_10227_neutraal
 -------------------------------
 Charge =  0 Multiplicity = 1

 SCF Done:  E(RB3LYP) =  -1316.04395995     A.U. after    1 cycles

  Exact polarizability: 219.868   3.220 171.235 -12.175  -1.007 122.494
 Approx polarizability: 284.647   2.432 273.922 -25.052  -3.717 206.643

                      1                      2                      3
                      A                      A                      A
 Frequencies --     21.6409                25.7264                31.7580
 Red. masses --      5.0384                 7.6135                 8.5312
 Frc consts  --      0.0014                 0.0030                 0.0051
 IR Inten    --      0.1370                 0.2156                 1.5195

                      4                      5                      6
                      A                      A                      A
 Frequencies --     44.1631                52.0115                67.4891
 Red. masses --      5.5405                 4.3064                 6.3469
 Frc consts  --      0.0064                 0.0069                 0.0170
 IR Inten    --      1.8744                 0.2207                 1.1346

                      7                      8                      9
                      A                      A                      A
 Frequencies --    102.7720               113.1631               130.7320
 Red. masses --      3.9941                 4.6695                 3.5964
 Frc consts  --      0.0249                 0.0352                 0.0362
 IR Inten    --      3.5971                 0.0773                 1.6458

                     10                     11                     12
                      A                      A                      A
 Frequencies --    170.8417               181.6465               199.9764
 Red. masses --      2.0730                 3.6303                 2.3716
 Frc consts  --      0.0356                 0.0706                 0.0559
 IR Inten    --      2.5591                 1.5186                 1.9550

                     13                     14                     15
                      A                      A                      A
 Frequencies --    210.2343               226.6136               230.4856
 Red. masses --      3.8463                 1.8280                 1.6925
 Frc consts  --      0.1002                 0.0553                 0.0530
 IR Inten    --      0.4951                 0.9016                 2.6728

                     16                     17                     18
                      A                      A                      A
 Frequencies --    238.2928               272.0146               291.1549
 Red. masses --      3.2943                 3.0577                 2.5624
 Frc consts  --      0.1102                 0.1333                 0.1280
 IR Inten    --      3.2024                 2.5728                 0.2233

                     19                     20                     21
                      A                      A                      A
 Frequencies --    317.2334               351.2099               364.5863
 Red. masses --      2.6770                 3.5590                 4.2145
 Frc consts  --      0.1587                 0.2586                 0.3301
 IR Inten    --      0.4735                 4.5015                 2.0932

                     22                     23                     24
                      A                      A                      A
 Frequencies --    395.3415               411.2378               419.2945
 Red. masses --      4.1817                 2.7588                 2.9614
 Frc consts  --      0.3851                 0.2749                 0.3068
 IR Inten    --      9.8553                 8.9531                 1.0635

                     25                     26                     27
                      A                      A                      A
 Frequencies --    432.6971               480.9639               483.3346
 Red. masses --      2.8702                 5.6020                 5.3587
 Frc consts  --      0.3166                 0.7635                 0.7376
 IR Inten    --      0.2774                32.6039                14.0859

                     28                     29                     30
                      A                      A                      A
 Frequencies --    524.2871               532.1028               580.7234
 Red. masses --      4.6838                 3.9847                 2.9654
 Frc consts  --      0.7586                 0.6647                 0.5892
 IR Inten    --     10.4544                37.9491                26.9079

                     31                     32                     33
                      A                      A                      A
 Frequencies --    610.3537               619.6486               637.8544
 Red. masses --      1.7344                 2.4316                 5.8055
 Frc consts  --      0.3807                 0.5501                 1.3917
 IR Inten    --     28.5072                42.0808                 4.6819

                     34                     35                     36
                      A                      A                      A
 Frequencies --    643.8829               661.7542               711.5113
 Red. masses --      2.4219                 3.3787                 3.8354
 Frc consts  --      0.5916                 0.8717                 1.1440
 IR Inten    --     70.4074                79.2338                64.0044

                     37                     38                     39
                      A                      A                      A
 Frequencies --    721.6085               766.7647               776.7524
 Red. masses --      1.5855                 2.2085                 2.4430
 Frc consts  --      0.4864                 0.7650                 0.8684
 IR Inten    --     20.1686                23.9719                48.8830

                     40                     41                     42
                      A                      A                      A
 Frequencies --    793.1223               831.2565               837.7990
 Red. masses --      3.3681                 2.3332                 2.8186
 Frc consts  --      1.2483                 0.9499                 1.1656
 IR Inten    --     29.9156                64.9044                41.0077

                     43                     44                     45
                      A                      A                      A
 Frequencies --    851.7142               866.4170               906.8814
 Red. masses --      2.1135                 1.2475                 2.3433
 Frc consts  --      0.9033                 0.5518                 1.1355
 IR Inten    --     57.6858                 0.2816               120.0721

                     46                     47                     48
                      A                      A                      A
 Frequencies --    922.4747               942.8396               974.0092
 Red. masses --      2.2729                 1.6275                 1.8785
 Frc consts  --      1.1396                 0.8524                 1.0500
 IR Inten    --    129.3556                14.8122                 4.6095

                     49                     50                     51
                      A                      A                      A
 Frequencies --    976.2634               983.2260              1002.3999
 Red. masses --      1.3403                 1.9883                 1.2656
 Frc consts  --      0.7527                 1.1325                 0.7492
 IR Inten    --      0.4746                66.0793                 0.9670

                     52                     53                     54
                      A                      A                      A
 Frequencies --   1023.4676              1026.2257              1051.1370
 Red. masses --      5.8125                 2.1746                 2.0742
 Frc consts  --      3.5872                 1.3493                 1.3503
 IR Inten    --      1.3343                73.3749                32.6506

                     55                     56                     57
                      A                      A                      A
 Frequencies --   1062.0619              1084.5852              1110.0963
 Red. masses --      2.2385                 2.4805                 2.4560
 Frc consts  --      1.4877                 1.7191                 1.7832
 IR Inten    --      1.3903                45.1703                 6.7499

                     58                     59                     60
                      A                      A                      A
 Frequencies --   1114.2167              1139.5067              1147.9537
 Red. masses --      3.5122                 1.8701                 2.7780
 Frc consts  --      2.5690                 1.4307                 2.1569
 IR Inten    --     80.5664                19.5697                48.4697

                     61                     62                     63
                      A                      A                      A
 Frequencies --   1157.7278              1174.7731              1194.8079
 Red. masses --      1.9032                 1.5272                 1.0987
 Frc consts  --      1.5030                 1.2418                 0.9241
 IR Inten    --     23.2207                 8.6247                 0.0382

                     64                     65                     66
                      A                      A                      A
 Frequencies --   1198.6196              1218.7549              1223.4035
 Red. masses --      2.1996                 1.2336                 1.9683
 Frc consts  --      1.8619                 1.0796                 1.7357
 IR Inten    --    152.6716                 2.3929                 3.4926

                     67                     68                     69
                      A                      A                      A
 Frequencies --   1239.4031              1269.3072              1295.8823
 Red. masses --      2.9897                 1.3124                 1.3636
 Frc consts  --      2.7059                 1.2458                 1.3491
 IR Inten    --     20.6131                48.2875                 5.1773

                     70                     71                     72
                      A                      A                      A
 Frequencies --   1303.0207              1323.6555              1329.5580
 Red. masses --      4.2174                 1.8073                 1.2933
 Frc consts  --      4.2189                 1.8656                 1.3470
 IR Inten    --    140.6540                 4.0959                15.7433

                     73                     74                     75
                      A                      A                      A
 Frequencies --   1360.0934              1370.0463              1372.6436
 Red. masses --      1.8201                 2.9187                 1.2619
 Frc consts  --      1.9838                 3.2279                 1.4008
 IR Inten    --     17.6221                 1.6184                 1.8270

                     76                     77                     78
                      A                      A                      A
 Frequencies --   1382.3817              1393.3936              1400.4856
 Red. masses --      1.3057                 1.2781                 1.5013
 Frc consts  --      1.4701                 1.4620                 1.7349
 IR Inten    --      1.7797                20.9848                 8.6434

                     79                     80                     81
                      A                      A                      A
 Frequencies --   1418.6302              1451.6730              1471.4376
 Red. masses --      1.3343                 1.2293                 1.1665
 Frc consts  --      1.5821                 1.5263                 1.4881
 IR Inten    --      7.2645                 4.9717                22.2816

                     82                     83                     84
                      A                      A                      A
 Frequencies --   1479.1363              1506.1933              1509.3581
 Red. masses --      1.2698                 2.1596                 1.1014
 Frc consts  --      1.6368                 2.8866                 1.4783
 IR Inten    --     82.9157                 7.7838                 5.7055

                     85                     86                     87
                      A                      A                      A
 Frequencies --   1520.6142              1522.4144              1529.2019
 Red. masses --      1.0510                 1.0561                 1.0492
 Frc consts  --      1.4318                 1.4421                 1.4455
 IR Inten    --     11.6233                 8.3642                 3.4322

                     88                     89                     90
                      A                      A                      A
 Frequencies --   1534.6169              1537.9160              1548.2072
 Red. masses --      1.0628                 1.0708                 1.0565
 Frc consts  --      1.4747                 1.4921                 1.4920
 IR Inten    --     12.8682                16.1736                 0.6849

                     91                     92                     93
                      A                      A                      A
 Frequencies --   1549.5994              1648.4855              1669.0597
 Red. masses --      2.1519                 5.5007                 5.5121
 Frc consts  --      3.0444                 8.8073                 9.0472
 IR Inten    --      6.8448                 0.7921                 0.6701

                     94                     95                     96
                      A                      A                      A
 Frequencies --   1855.7630              3050.9026              3055.0241
 Red. masses --      9.5595                 1.0414                 1.0684
 Frc consts  --     19.3969                 5.7111                 5.8753
 IR Inten    --    332.6216                28.3857                33.2252

                     97                     98                     99
                      A                      A                      A
 Frequencies --   3058.0522              3061.4535              3075.2009
 Red. masses --      1.0352                 1.0730                 1.0692
 Frc consts  --      5.7037                 5.9253                 5.9576
 IR Inten    --     25.2153                28.7150                29.5349

                    100                    101                    102
                      A                      A                      A
 Frequencies --   3078.9115              3112.2767              3125.3277
 Red. masses --      1.0842                 1.0963                 1.1047
 Frc consts  --      6.0557                 6.2565                 6.3575
 IR Inten    --     19.1775                11.0485                17.3867

                    103                    104                    105
                      A                      A                      A
 Frequencies --   3128.8170              3144.6436              3156.2243
 Red. masses --      1.0962                 1.1010                 1.0930
 Frc consts  --      6.3226                 6.4148                 6.4151
 IR Inten    --     16.8795                14.5597                 0.5754

                    106                    107                    108
                      A                      A                      A
 Frequencies --   3161.0037              3168.1756              3172.0512
 Red. masses --      1.0957                 1.1011                 1.0876
 Frc consts  --      6.4504                 6.5119                 6.4479
 IR Inten    --      1.4531                11.5846                 9.5210

                    109                    110                    111
                      A                      A                      A
 Frequencies --   3186.3925              3197.1046              3207.7748
 Red. masses --      1.0869                 1.0912                 1.0949
 Frc consts  --      6.5018                 6.5714                 6.6377
 IR Inten    --      2.5143                25.4980                26.6255

                    112                    113                    114
                      A                      A                      A
 Frequencies --   3216.8940              3540.2982              3681.1621
 Red. masses --      1.0958                 1.0746                 1.0641
 Frc consts  --      6.6809                 7.9357                 8.4960
 IR Inten    --      7.6852               101.0544                56.7221

 - Thermochemistry -
 -------------------
 Temperature   298.150 Kelvin.  Pressure   1.00000 Atm.
 Atom     1 has atomic number  6 and mass  12.00000

 Molecular mass:   300.11438 amu.
 Principal axes and moments of inertia in atomic units:
                           1         2         3
     Eigenvalues --  2199.21953********************
           X            0.99995  -0.01011  -0.00061
           Y            0.01012   0.99990   0.00993
           Z            0.00051  -0.00994   0.99995
 This molecule is an asymmetric top.
 Rotational symmetry number  1.
 Warning -- assumption of classical behavior for rotation
           may cause significant error
 Rotational temperatures (Kelvin)      0.03938     0.00726     0.00671
 Rotational constants (GHZ):           0.82063     0.15122     0.13983
 Zero-point vibrational energy     874706.3 (Joules/Mol)
                                  209.05982 (Kcal/Mol)
 Warning -- explicit consideration of  32 degrees of freedom as
           vibrations may cause significant error
 Vibrational temperatures:     31.14    37.01    45.69    63.54    74.83
          (Kelvin)             97.10   147.87   162.82   188.09   245.80
                              261.35   287.72   302.48   326.05   331.62
                              342.85   391.37   418.91   456.43   505.31
                              524.56   568.81   591.68   603.27   622.55
                              692.00   695.41   754.33   765.58   835.53
                              878.16   891.54   917.73   926.40   952.12
                             1023.71  1038.23  1103.20  1117.57  1141.13
                             1195.99  1205.41  1225.43  1246.58  1304.80
                             1327.24  1356.54  1401.38  1404.63  1414.64
                             1442.23  1472.54  1476.51  1512.35  1528.07
                             1560.48  1597.18  1603.11  1639.50  1651.65
                             1665.71  1690.24  1719.06  1724.55  1753.52
                             1760.20  1783.22  1826.25  1864.49  1874.76
                             1904.44  1912.94  1956.87  1971.19  1974.93
                             1988.94  2004.78  2014.99  2041.09  2088.63
                             2117.07  2128.15  2167.08  2171.63  2187.82
                             2190.41  2200.18  2207.97  2212.72  2227.52
                             2229.53  2371.80  2401.40  2670.03  4389.57
                             4395.50  4399.86  4404.75  4424.53  4429.87
                             4477.87  4496.65  4501.67  4524.44  4541.10
                             4547.98  4558.30  4563.87  4584.51  4599.92
                             4615.27  4628.39  5093.70  5296.37

 Zero-point correction=                           0.333158 (Hartree/Particle)
 Thermal correction to Energy=                    0.353589
 Thermal correction to Enthalpy=                  0.354533
 Thermal correction to Gibbs Free Energy=         0.281857
 Sum of electronic and zero-point Energies=          -1315.710802
 Sum of electronic and thermal Energies=             -1315.690371
 Sum of electronic and thermal Enthalpies=           -1315.689427
 Sum of electronic and thermal Free Energies=        -1315.762103

                     E (Thermal)             CV                S
                      KCal/Mol        Cal/Mol-Kelvin    Cal/Mol-Kelvin
 Total                  221.880             76.713            152.961
 Electronic               0.000              0.000              0.000
 Translational            0.889              2.981             42.994
 Rotational               0.889              2.981             34.182
 Vibrational            220.103             70.751             75.785
 Vibration     1          0.593              1.985              6.478
 Vibration     2          0.593              1.985              6.134
 Vibration     3          0.594              1.983              5.716
 Vibration     4          0.595              1.980              5.063
 Vibration     5          0.596              1.977              4.739
 Vibration     6          0.598              1.970              4.225
 Vibration     7          0.605              1.947              3.401
 Vibration     8          0.607              1.939              3.214
 Vibration     9          0.612              1.923              2.935
 Vibration    10          0.626              1.878              2.426
 Vibration    11          0.630              1.865              2.311
 Vibration    12          0.638              1.840              2.133
 Vibration    13          0.642              1.825              2.042
 Vibration    14          0.650              1.800              1.906
 Vibration    15          0.652              1.794              1.875
 Vibration    16          0.656              1.782              1.816
 Vibration    17          0.675              1.725              1.583
 Vibration    18          0.687              1.690              1.467
 Vibration    19          0.704              1.641              1.324
 Vibration    20          0.728              1.573              1.161
 Vibration    21          0.738              1.545              1.102
 Vibration    22          0.762              1.480              0.980
 Vibration    23          0.775              1.446              0.922
 Vibration    24          0.782              1.428              0.894
 Vibration    25          0.794              1.399              0.850
 Vibration    26          0.837              1.292              0.707
 Vibration    27          0.840              1.287              0.701
 Vibration    28          0.879              1.196              0.600
 Vibration    29          0.887              1.179              0.583
 Vibration    30          0.937              1.073              0.484
 Vibration    31          0.969              1.010              0.432
 Vibration    32          0.980              0.990              0.417

 Optimization completed.
    -- Stationary point found.
 Normal termination of Gaussian 16 at Sun Dec 13 17:17:12 2020.

 ----------------------------------------------------------------------
 # B3LYP/6-311++G(d,p) empiricaldispersion=gd3bj scf=xqc pop=npa geom=c
 heck
 ----------------------------------------------------------------------

 ---------------------------------------
 CID_65223031_JID_10227_Energie_neutraal
 ---------------------------------------
 Structure from the checkpoint file:  "JID_10227.chk"
 Charge =  0 Multiplicity = 1

 SCF Done:  E(RB3LYP) =  -1316.34156669     A.U. after   15 cycles
 Normal termination of Gaussian 16 at Sun Dec 13 17:28:05 2020.

 ----------------------------------------------------------------------
 # B3LYP/6-311++G(d,p) empiricaldispersion=gd3bj scf=xqc pop=npa geom=c
 heck
 ----------------------------------------------------------------------

 -------------------------------------
 CID_65223031_JID_10227_Energie_kation
 -------------------------------------
 Structure from the checkpoint file:  "JID_10227.chk"
 Charge =  1 Multiplicity = 2

 SCF Done:  E(UB3LYP) =  -1316.02893193     A.U. after   30 cycles
 Normal termination of Gaussian 16 at Sun Dec 13 17:59:02 2020.
 Gaussian 16:  ES64L-G16RevA.03 25-Dec-2016

 ----------------------------------------------------------------------
 # B3LYP/6-311++G(d,p) empiricaldispersion=gd3bj scf=xqc pop=npa geom=c
 heck
 ----------------------------------------------------------------------

 ------------------------------------
 CID_65223031_JID_10227_Energie_anion
 ------------------------------------
 Structure from the checkpoint file:  "JID_10227.chk"
 Charge = -1 Multiplicity = 2

                         Standard orientation:
 ---------------------------------------------------------------------
 Center     Atomic      Atomic             Coordinates (Angstroms)
 Number     Number       Type             X           Y           Z
 ---------------------------------------------------------------------
      1          6           0       -2.501043    2.777421   -0.225471
      2          6           0       -3.179155    1.587856    0.458978
      3          6           0       -3.624169    0.490954   -0.534741
      4          6           0       -2.465228   -0.208055   -1.282401
      5          7           0       -1.457095   -0.872301   -0.450276
      6         16           0       -0.060289   -0.059549   -0.018886
      7          8           0        0.277266    0.797091   -1.161707
      8          8           0       -0.138116    0.533667    1.322769
      9          7           0        0.950340   -1.396159    0.130910
     10          6           0        1.313618   -2.014510   -1.148921
     11          6           0        2.063304   -1.250199    1.099581
     12          6           0        3.230132   -0.414135    0.618328
     13          6           0        4.361591   -1.023818    0.066698
     14          6           0        5.424724   -0.256155   -0.410354
     15          6           0        5.364148    1.135435   -0.338138
     16          6           0        4.240214    1.752781    0.214866
     17          6           0        3.180326    0.984058    0.691541
     18          6           0       -4.527631   -0.502050    0.167696
     19          8           0       -5.725541   -0.594857    0.037432
     20          8           0       -3.838843   -1.312565    1.028956
     21          1           0       -1.559225    2.493983   -0.702994
     22          1           0       -2.271463    3.553192    0.512086
     23          1           0       -3.154859    3.220522   -0.986846
     24          1           0       -2.507020    1.155178    1.205506
     25          1           0       -4.070504    1.936716    0.995229
     26          1           0       -4.258552    0.950176   -1.301197
     27          1           0       -2.882120   -0.967308   -1.954500
     28          1           0       -1.941803    0.516748   -1.907521
     29          1           0       -1.842163   -1.380516    0.343116
     30          1           0        2.021632   -1.407217   -1.723785
     31          1           0        1.766040   -2.986321   -0.929985
     32          1           0        0.406583   -2.174161   -1.733539
     33          1           0        1.635434   -0.839936    2.014397
     34          1           0        2.394566   -2.272577    1.311333
     35          1           0        4.411880   -2.109303    0.014543
     36          1           0        6.297683   -0.743952   -0.835163
     37          1           0        6.189883    1.736793   -0.708027
     38          1           0        4.189677    2.836116    0.276966
     39          1           0        2.306712    1.465171    1.120202
     40          1           0       -4.503574   -1.895491    1.442334
 ---------------------------------------------------------------------

 SCF Done:  E(UB3LYP) =  -1316.33388751     A.U. after   33 cycles
 SCF Done:  E(UB3LYP) =  -1316.33388751     a.u. after    1 cycles

 The electronic state is 2-A.
 Alpha  occ. eigenvalues --  -88.99187 -19.08644 -19.03590 -19.03244 -19.03193
 Alpha  occ. eigenvalues --  -14.26313 -14.25439 -10.22484 -10.13503 -10.12554
 Alpha  occ. eigenvalues --  -10.11403 -10.11166 -10.09784 -10.09422 -10.09366
 Alpha  occ. eigenvalues --  -10.09321 -10.09195 -10.09146 -10.08968 -10.07884
 Alpha  occ. eigenvalues --   -8.05124  -6.01389  -6.01359  -6.01313  -1.04271
 Alpha  occ. eigenvalues --   -1.02687  -0.93948  -0.92477  -0.85966  -0.84063
 Alpha  occ. eigenvalues --   -0.77583  -0.73496  -0.69044  -0.66562  -0.65878
 Alpha  occ. eigenvalues --   -0.62840  -0.62216  -0.58450  -0.54121  -0.52932
 Alpha  occ. eigenvalues --   -0.52585  -0.50358  -0.49871  -0.45971  -0.43355
 Alpha  occ. eigenvalues --   -0.42999  -0.42371  -0.40548  -0.40246  -0.39173
 Alpha  occ. eigenvalues --   -0.38665  -0.38156  -0.37771  -0.37067  -0.35944
 Alpha  occ. eigenvalues --   -0.34875  -0.34783  -0.34126  -0.32826  -0.32615
 Alpha  occ. eigenvalues --   -0.32200  -0.31510  -0.30656  -0.30319  -0.28349
 Alpha  occ. eigenvalues --   -0.27863  -0.27452  -0.26884  -0.26574  -0.26509
 Alpha  occ. eigenvalues --   -0.25857  -0.25358  -0.24433  -0.23917  -0.22374
 Alpha  occ. eigenvalues --   -0.20011  -0.18991  -0.17427  -0.17390  -0.16443
 Alpha  occ. eigenvalues --    0.03687
 Alpha virt. eigenvalues --    0.05172   0.06116   0.06256   0.06606   0.06630
 Alpha virt. eigenvalues --    0.07450   0.07492   0.07638   0.08859   0.09036
 Alpha virt. eigenvalues --    0.09317   0.09533   0.10298   0.10994   0.11556

  Beta  occ. eigenvalues --  -88.99185 -19.08575 -19.03572 -19.03238 -19.03189
  Beta  occ. eigenvalues --  -14.26312 -14.25426 -10.22479 -10.13488 -10.12541
  Beta  occ. eigenvalues --  -10.11391 -10.11137 -10.09771 -10.09408 -10.09358
  Beta  occ. eigenvalues --  -10.09311 -10.09189 -10.09125 -10.08963 -10.07878
  Beta  occ. eigenvalues --   -8.05123  -6.01388  -6.01357  -6.01311  -1.04261
  Beta  occ. eigenvalues --   -1.02604  -0.93872  -0.92468  -0.85953  -0.84041
  Beta  occ. eigenvalues --   -0.77554  -0.73467  -0.69008  -0.66531  -0.65855
  Beta  occ. eigenvalues --   -0.62799  -0.62182  -0.58399  -0.54043  -0.52905
  Beta  occ. eigenvalues --   -0.52548  -0.50307  -0.49823  -0.45946  -0.43321
  Beta  occ. eigenvalues --   -0.42977  -0.42331  -0.40517  -0.40209  -0.39143
  Beta  occ. eigenvalues --   -0.38639  -0.38118  -0.37746  -0.37038  -0.35904
  Beta  occ. eigenvalues --   -0.34839  -0.34755  -0.34099  -0.32804  -0.32583
  Beta  occ. eigenvalues --   -0.32177  -0.31482  -0.30624  -0.30293  -0.28309
  Beta  occ. eigenvalues --   -0.27841  -0.27424  -0.26861  -0.26552  -0.26494
  Beta  occ. eigenvalues --   -0.25836  -0.25339  -0.24382  -0.23905  -0.22365
  Beta  occ. eigenvalues --   -0.19955  -0.18972  -0.17366  -0.17353  -0.16407
  Beta virt. eigenvalues --    0.05704   0.06099   0.06244   0.06599   0.06842
  Beta virt. eigenvalues --    0.07512   0.07588   0.07774   0.07906   0.09030
  Beta virt. eigenvalues --    0.09334   0.09604   0.09705   0.10344   0.11177

 Mulliken charges and spin densities:
               1          2
     1  C   -0.311803  -0.210449
     2  C   -0.254011  -0.044422
     3  C    0.930604  -0.596142
     4  C   -0.146869  -0.330807
     5  N   -0.388302   0.024825
     6  S   -0.174234  -0.372757
     7  O   -0.093524   0.018924
     8  O   -0.058501   0.004997
     9  N   -0.140561   0.105734
    10  C    0.269193  -0.652835
    11  C    1.047094  -1.686122
    12  C   -0.722697   1.474559
    13  C    0.448664  -0.832254
    14  C    0.415061  -0.699784
    15  C    0.427715  -0.754891
    16  C   -0.252499  -0.031211
    17  C   -1.049251   1.159079
    18  C   -0.299019   0.055996
    19  O   -0.261428   0.010869
    20  O   -0.230558  -0.000141
    21  H    0.192550   0.001197
    22  H    0.104098   0.021483
    23  H    0.057236   0.069910
    24  H    0.212645   0.063159
    25  H    0.124412   0.074920
    26  H    0.102493   0.149473
    27  H   -0.106876   0.319173
    28  H    0.180708   0.048598
    29  H    0.283236   0.100103
    30  H    0.237458  -0.042207
    31  H   -0.304515   0.487211
    32  H   -0.087621   0.253959
    33  H    0.204114   0.042044
    34  H   -0.400708   0.623145
    35  H   -0.327209   0.481154
    36  H   -0.474258   0.655439
    37  H    0.010782   0.128635
    38  H    0.077344   0.085342
    39  H    0.171966   0.044812
    40  H   -0.412929   0.749282
 Sum of Mulliken charges =  -1.00000   1.00000

 Dipole moment (field-independent basis, Debye):
    X=              0.9103    Y=              6.0990    Z=             -1.4118  Tot=              6.3261
 Quadrupole moment (field-independent basis, Debye-Ang):
   XX=           -246.1638   YY=           -173.1838   ZZ=           -158.6072
   XY=             -2.6174   XZ=              9.8701   YZ=              4.5324

 Summary of Natural Population Analysis:

                                       Natural Population
                Natural  -----------------------------------------------
    Atom  No    Charge         Core      Valence    Rydberg      Total
 -----------------------------------------------------------------------
      C    1   -0.29021      0.99966     2.28578    0.00477     3.29021
      C    2   -0.19673      0.99962     2.18847    0.00865     3.19673
      C    3   -0.15985      0.99953     2.14856    0.01176     3.15985
      C    4   -0.09281      0.99959     2.07934    0.01388     3.09281
      N    5   -0.44010      0.99974     2.92817    0.01219     3.94010
      S    6    1.16581      4.99924     1.72925    0.10570     6.83419
      O    7   -0.46329      0.99990     3.45851    0.00488     4.46329
      O    8   -0.46408      0.99990     3.45924    0.00493     4.46408
      N    9   -0.35980      0.99974     2.84498    0.01507     3.85980
      C   10   -0.18414      0.99962     2.17532    0.00920     3.18414
      C   11   -0.09632      0.99956     2.08308    0.01368     3.09632
      C   12   -0.03107      0.99949     2.02132    0.01026     3.03107
      C   13   -0.09647      0.99951     2.08667    0.01029     3.09647
      C   14   -0.10132      0.99956     2.09156    0.01020     3.10132
      C   15   -0.10165      0.99956     2.09185    0.01024     3.10165
      C   16   -0.09937      0.99957     2.09078    0.00903     3.09937
      C   17   -0.09459      0.99951     2.08632    0.00876     3.09459
      C   18    0.41432      0.99967     1.55995    0.02607     2.58568
      O   19   -0.30036      0.99987     3.29436    0.00614     4.30036
      O   20   -0.35729      0.99987     3.34964    0.00778     4.35729
      H   21    0.10825      0.00000     0.39064    0.00111     0.39175
      H   22    0.10111      0.00000     0.39818    0.00071     0.39889
      H   23    0.09239      0.00000     0.40677    0.00084     0.40761
      H   24    0.11370      0.00000     0.38486    0.00144     0.38630
      H   25    0.09874      0.00000     0.40032    0.00094     0.40126
      H   26    0.11141      0.00000     0.38757    0.00102     0.38859
      H   27    0.10167      0.00000     0.39717    0.00116     0.39833
      H   28    0.11513      0.00000     0.38374    0.00113     0.38487
      H   29    0.21169      0.00000     0.28464    0.00367     0.28831
      H   30    0.09744      0.00000     0.40132    0.00123     0.40256
      H   31    0.10211      0.00000     0.39640    0.00149     0.39789
      H   32    0.10865      0.00000     0.39022    0.00113     0.39135
      H   33    0.11708      0.00000     0.38169    0.00123     0.38292
      H   34    0.10497      0.00000     0.39359    0.00144     0.39503
      H   35    0.10342      0.00000     0.39487    0.00170     0.39658
      H   36    0.10225      0.00000     0.39662    0.00113     0.39775
      H   37    0.09952      0.00000     0.39974    0.00074     0.40048
      H   38    0.09961      0.00000     0.39964    0.00074     0.40039
      H   39    0.11001      0.00000     0.38844    0.00155     0.38999
      H   40    0.25016      0.00000     0.22836    0.02147     0.24984
 =======================================================================
   * Total *   -0.00000     23.99272    55.65791    0.34937    80.00000

 Normal termination of Gaussian 16 at Sun Dec 13 18:32:18 2020.
