 Gaussian 16, Revision A.03,

 -----------------------------------------------------------
 # opt freq B3LYP/6-31G(d) empiricaldispersion=gd3bj scf=xqc
 -----------------------------------------------------------

 -------------------------------
 CID_142998374_JID_1330_neutraal
 -------------------------------
 Symbolic Z-matrix:
 Charge =  0 Multiplicity = 1

 SCF Done:  E(RB3LYP) =  -483.143425036     A.U. after   13 cycles
 SCF Done:  E(RB3LYP) =  -483.148303490     A.U. after   12 cycles
 SCF Done:  E(RB3LYP) =  -483.149009203     A.U. after   11 cycles
 SCF Done:  E(RB3LYP) =  -483.148930724     A.U. after   12 cycles
 SCF Done:  E(RB3LYP) =  -483.149494304     A.U. after   11 cycles
 SCF Done:  E(RB3LYP) =  -483.149571066     A.U. after   10 cycles
 SCF Done:  E(RB3LYP) =  -483.149582871     A.U. after    9 cycles
 SCF Done:  E(RB3LYP) =  -483.149585418     A.U. after    8 cycles
 SCF Done:  E(RB3LYP) =  -483.149586131     A.U. after    8 cycles
 Optimization completed.
    -- Stationary point found.
 Normal termination of Gaussian 16 at Tue Dec  8 19:42:23 2020.

 --------------------------------------------------------------------
 #N Geom=AllCheck Guess=TCheck SCRF=Check GenChk RB3LYP/6-31G(d) Freq
 --------------------------------------------------------------------

 Structure from the checkpoint file:  "JID_1330.chk"
 -------------------------------
 CID_142998374_JID_1330_neutraal
 -------------------------------
 Charge =  0 Multiplicity = 1

 SCF Done:  E(RB3LYP) =  -483.149586131     A.U. after    1 cycles

  Exact polarizability: 126.223  -0.542 113.689  -5.110  -6.945  86.491
 Approx polarizability: 163.551  -3.631 161.858 -12.058 -16.811 129.036

                      1                      2                      3
                      A                      A                      A
 Frequencies --     43.8664                62.4997                77.4114
 Red. masses --      3.8038                 3.0000                 3.1327
 Frc consts  --      0.0043                 0.0069                 0.0111
 IR Inten    --      0.9776                 0.9328                 0.2557

                      4                      5                      6
                      A                      A                      A
 Frequencies --     94.7733               106.4084               137.4378
 Red. masses --      1.7532                 2.7572                 2.6441
 Frc consts  --      0.0093                 0.0184                 0.0294
 IR Inten    --      2.4851                 1.0769                 1.2189

                      7                      8                      9
                      A                      A                      A
 Frequencies --    156.8111               170.4234               220.2968
 Red. masses --      3.2649                 2.1083                 2.4799
 Frc consts  --      0.0473                 0.0361                 0.0709
 IR Inten    --      0.6317                 0.2014                 2.4132

                     10                     11                     12
                      A                      A                      A
 Frequencies --    237.3941               258.9196               301.4616
 Red. masses --      1.7200                 1.1868                 2.3571
 Frc consts  --      0.0571                 0.0469                 0.1262
 IR Inten    --      0.5999                 1.2023                 1.5959

                     13                     14                     15
                      A                      A                      A
 Frequencies --    314.0731               385.8580               419.7386
 Red. masses --      1.9244                 1.8272                 2.7067
 Frc consts  --      0.1118                 0.1603                 0.2810
 IR Inten    --     13.1557                60.2348                26.0336

                     16                     17                     18
                      A                      A                      A
 Frequencies --    421.0983               475.4524               530.4857
 Red. masses --      1.9451                 2.5355                 3.2348
 Frc consts  --      0.2032                 0.3377                 0.5363
 IR Inten    --     50.7356                 1.9059                 8.0389

                     19                     20                     21
                      A                      A                      A
 Frequencies --    575.5794               722.2921               771.6584
 Red. masses --      2.8497                 2.9216                 1.4841
 Frc consts  --      0.5562                 0.8981                 0.5207
 IR Inten    --      2.7038                23.0286                24.5574

                     22                     23                     24
                      A                      A                      A
 Frequencies --    789.6764               825.2421               861.9829
 Red. masses --      1.4808                 1.2782                 2.3402
 Frc consts  --      0.5441                 0.5129                 1.0245
 IR Inten    --      6.1725                90.2532                 5.7233

                     25                     26                     27
                      A                      A                      A
 Frequencies --    896.1577               930.0750               973.4272
 Red. masses --      1.3385                 1.7671                 1.9687
 Frc consts  --      0.6334                 0.9006                 1.0991
 IR Inten    --     14.8479                 3.8698                24.9425

                     28                     29                     30
                      A                      A                      A
 Frequencies --    996.2491               998.0583              1024.5003
 Red. masses --      2.0462                 1.5477                 1.2729
 Frc consts  --      1.1966                 0.9084                 0.7872
 IR Inten    --     18.5119                 9.5891                 4.2369

                     31                     32                     33
                      A                      A                      A
 Frequencies --   1041.1769              1064.7599              1091.4295
 Red. masses --      3.9291                 2.2800                 2.1015
 Frc consts  --      2.5095                 1.5230                 1.4749
 IR Inten    --     74.1720                 5.3586                 1.7215

                     34                     35                     36
                      A                      A                      A
 Frequencies --   1109.6604              1120.9810              1151.5862
 Red. masses --      1.6030                 2.6880                 2.6884
 Frc consts  --      1.1630                 1.9901                 2.1005
 IR Inten    --      6.1813                11.7319                28.0905

                     37                     38                     39
                      A                      A                      A
 Frequencies --   1171.6768              1191.7221              1204.0410
 Red. masses --      1.5049                 1.6955                 1.3977
 Frc consts  --      1.2172                 1.4187                 1.1938
 IR Inten    --      9.7714                14.6932                26.8038

                     40                     41                     42
                      A                      A                      A
 Frequencies --   1229.8540              1259.2271              1304.6363
 Red. masses --      1.6496                 1.1658                 1.2334
 Frc consts  --      1.4700                 1.0892                 1.2369
 IR Inten    --      5.7360                 0.1567                 3.3886

                     43                     44                     45
                      A                      A                      A
 Frequencies --   1309.5085              1344.7909              1369.8539
 Red. masses --      1.2343                 1.3300                 1.2820
 Frc consts  --      1.2470                 1.4172                 1.4173
 IR Inten    --      1.9340                 8.0375                 2.1976

                     46                     47                     48
                      A                      A                      A
 Frequencies --   1376.3026              1414.0792              1434.8881
 Red. masses --      1.3284                 1.3603                 1.2420
 Frc consts  --      1.4826                 1.6027                 1.5066
 IR Inten    --     12.3801                 2.0226                71.0766

                     49                     50                     51
                      A                      A                      A
 Frequencies --   1437.3888              1465.2861              1482.6173
 Red. masses --      1.2286                 1.6104                 1.2042
 Frc consts  --      1.4956                 2.0372                 1.5595
 IR Inten    --      7.3639                 6.1742                 0.9603

                     52                     53                     54
                      A                      A                      A
 Frequencies --   1503.3477              1512.1134              1518.2140
 Red. masses --      1.2052                 1.0847                 1.0577
 Frc consts  --      1.6048                 1.4613                 1.4364
 IR Inten    --     16.1634                 6.6775                 7.6808

                     55                     56                     57
                      A                      A                      A
 Frequencies --   1528.6905              1532.9930              1535.0040
 Red. masses --      1.0420                 1.0703                 1.0880
 Frc consts  --      1.4347                 1.4820                 1.5105
 IR Inten    --      4.9653                 6.8786                 1.4416

                     58                     59                     60
                      A                      A                      A
 Frequencies --   1535.6232              1546.8882              1716.1247
 Red. masses --      1.0656                 1.0507                 8.0258
 Frc consts  --      1.4805                 1.4813                13.9262
 IR Inten    --      2.8447                 7.7024                 1.4093

                     61                     62                     63
                      A                      A                      A
 Frequencies --   1726.8810              2949.1450              2967.8679
 Red. masses --      6.5151                 1.0611                 1.0676
 Frc consts  --     11.4471                 5.4376                 5.5406
 IR Inten    --      0.8534                82.1136                53.8783

                     64                     65                     66
                      A                      A                      A
 Frequencies --   3008.8697              3016.7028              3018.8723
 Red. masses --      1.0695                 1.0897                 1.0718
 Frc consts  --      5.7049                 5.8427                 5.7550
 IR Inten    --     62.3172                29.5631                19.5790

                     67                     68                     69
                      A                      A                      A
 Frequencies --   3046.8216              3071.1269              3094.7660
 Red. masses --      1.0354                 1.0731                 1.0917
 Frc consts  --      5.6630                 5.9634                 6.1606
 IR Inten    --     36.5408                45.5400                 1.1936

                     70                     71                     72
                      A                      A                      A
 Frequencies --   3097.3978              3114.3877              3120.4678
 Red. masses --      1.0948                 1.0960                 1.1018
 Frc consts  --      6.1885                 6.2633                 6.3211
 IR Inten    --     31.9475                 9.2278                35.9363

                     73                     74                     75
                      A                      A                      A
 Frequencies --   3120.8598              3124.1337              3152.3359
 Red. masses --      1.1031                 1.0913                 1.0832
 Frc consts  --      6.3301                 6.2756                 6.3421
 IR Inten    --     33.5954                60.3626                 1.9692

                     76                     77                     78
                      A                      A                      A
 Frequencies --   3172.8197              3486.1675              3728.2359
 Red. masses --      1.0933                 1.0741                 1.0660
 Frc consts  --      6.4846                 7.6910                 8.7301
 IR Inten    --     24.1712                 0.7741                 8.3653

 - Thermochemistry -
 -------------------
 Temperature   298.150 Kelvin.  Pressure   1.00000 Atm.
 Atom     1 has atomic number  6 and mass  12.00000

 Molecular mass:   155.13101 amu.
 Principal axes and moments of inertia in atomic units:
                           1         2         3
     Eigenvalues --  1537.506223039.251354084.85022
           X            0.99968   0.02434   0.00700
           Y           -0.02438   0.99969   0.00520
           Z           -0.00687  -0.00537   0.99996
 This molecule is an asymmetric top.
 Rotational symmetry number  1.
 Warning -- assumption of classical behavior for rotation
           may cause significant error
 Rotational temperatures (Kelvin)      0.05633     0.02850     0.02120
 Rotational constants (GHZ):           1.17381     0.59381     0.44181
 Zero-point vibrational energy     659750.3 (Joules/Mol)
                                  157.68410 (Kcal/Mol)
 Warning -- explicit consideration of  19 degrees of freedom as
           vibrations may cause significant error
 Vibrational temperatures:     63.11    89.92   111.38   136.36   153.10
          (Kelvin)            197.74   225.62   245.20   316.96   341.56
                              372.53   433.74   451.88   555.16   603.91
                              605.87   684.07   763.25   828.13  1039.22
                             1110.24  1136.17  1187.34  1240.20  1289.37
                             1338.17  1400.54  1433.38  1435.98  1474.03
                             1498.02  1531.95  1570.32  1596.55  1612.84
                             1656.88  1685.78  1714.62  1732.35  1769.49
                             1811.75  1877.08  1884.09  1934.85  1970.91
                             1980.19  2034.54  2064.48  2068.08  2108.22
                             2133.16  2162.98  2175.59  2184.37  2199.44
                             2205.63  2208.53  2209.42  2225.63  2469.12
                             2484.60  4243.16  4270.10  4329.09  4340.36
                             4343.48  4383.70  4418.67  4452.68  4456.46
                             4480.91  4489.66  4490.22  4494.93  4535.51
                             4564.98  5015.82  5364.10

 Zero-point correction=                           0.251286 (Hartree/Particle)
 Thermal correction to Energy=                    0.264788
 Thermal correction to Enthalpy=                  0.265732
 Thermal correction to Gibbs Free Energy=         0.210667
 Sum of electronic and zero-point Energies=           -482.898301
 Sum of electronic and thermal Energies=              -482.884798
 Sum of electronic and thermal Enthalpies=            -482.883854
 Sum of electronic and thermal Free Energies=         -482.938919

                     E (Thermal)             CV                S
                      KCal/Mol        Cal/Mol-Kelvin    Cal/Mol-Kelvin
 Total                  166.157             48.265            115.894
 Electronic               0.000              0.000              0.000
 Translational            0.889              2.981             41.027
 Rotational               0.889              2.981             31.324
 Vibrational            164.379             42.303             43.544
 Vibration     1          0.595              1.980              5.076
 Vibration     2          0.597              1.972              4.377
 Vibration     3          0.599              1.964              3.955
 Vibration     4          0.603              1.953              3.559
 Vibration     5          0.605              1.944              3.333
 Vibration     6          0.614              1.916              2.839
 Vibration     7          0.620              1.895              2.588
 Vibration     8          0.626              1.879              2.431
 Vibration     9          0.647              1.810              1.957
 Vibration    10          0.656              1.783              1.822
 Vibration    11          0.668              1.748              1.669
 Vibration    12          0.693              1.671              1.409
 Vibration    13          0.702              1.647              1.341
 Vibration    14          0.755              1.500              1.016
 Vibration    15          0.782              1.427              0.893
 Vibration    16          0.784              1.424              0.888
 Vibration    17          0.832              1.305              0.722
 Vibration    18          0.885              1.183              0.586
 Vibration    19          0.932              1.084              0.494

                           ! Non-Optimized Parameters !
 Normal termination of Gaussian 16 at Tue Dec  8 19:48:24 2020.

 ----------------------------------------------------------------------
 # B3LYP/6-311++G(d,p) empiricaldispersion=gd3bj scf=xqc pop=npa geom=c
 heck
 ----------------------------------------------------------------------

 ---------------------------------------
 CID_142998374_JID_1330_Energie_neutraal
 ---------------------------------------
 Structure from the checkpoint file:  "JID_1330.chk"
 Charge =  0 Multiplicity = 1

 SCF Done:  E(RB3LYP) =  -483.302644773     A.U. after   15 cycles
 Normal termination of Gaussian 16 at Tue Dec  8 19:51:22 2020.

 ----------------------------------------------------------------------
 # B3LYP/6-311++G(d,p) empiricaldispersion=gd3bj scf=xqc pop=npa geom=c
 heck
 ----------------------------------------------------------------------

 -------------------------------------
 CID_142998374_JID_1330_Energie_kation
 -------------------------------------
 Structure from the checkpoint file:  "JID_1330.chk"
 Charge =  1 Multiplicity = 2

 SCF Done:  E(UB3LYP) =  -482.999584697     A.U. after   24 cycles
 Normal termination of Gaussian 16 at Tue Dec  8 19:57:58 2020.
 Gaussian 16:  ES64L-G16RevA.03 25-Dec-2016

 ----------------------------------------------------------------------
 # B3LYP/6-311++G(d,p) empiricaldispersion=gd3bj scf=xqc pop=npa geom=c
 heck
 ----------------------------------------------------------------------

 ------------------------------------
 CID_142998374_JID_1330_Energie_anion
 ------------------------------------
 Structure from the checkpoint file:  "JID_1330.chk"
 Charge = -1 Multiplicity = 2

                         Standard orientation:
 ---------------------------------------------------------------------
 Center     Atomic      Atomic             Coordinates (Angstroms)
 Number     Number       Type             X           Y           Z
 ---------------------------------------------------------------------
      1          6           0        1.720405    3.122912    0.230262
      2          6           0        0.686556    2.006895    0.018490
      3          6           0        1.302817    0.788802   -0.607072
      4          6           0        1.190932   -0.490718   -0.203916
      5          6           0        2.046341   -1.559616   -0.855068
      6          8           0        3.012786   -2.088311    0.055531
      7          6           0        0.366626   -0.964399    0.922727
      8          6           0       -0.936431   -0.725684    1.136015
      9          6           0       -1.873172    0.043019    0.249862
     10          7           0       -3.143862   -0.672219    0.127138
     11          6           0       -4.094618    0.022547   -0.731056
     12          1           0        2.517779    2.793999    0.906039
     13          1           0        1.253584    4.013524    0.664640
     14          1           0        2.186756    3.416854   -0.717745
     15          1           0        0.223439    1.738943    0.973273
     16          1           0       -0.121757    2.388303   -0.623471
     17          1           0        1.959805    0.989566   -1.456671
     18          1           0        1.440336   -2.421397   -1.153085
     19          1           0        2.528176   -1.156130   -1.758929
     20          1           0        3.527802   -1.331857    0.379308
     21          1           0        0.884564   -1.633239    1.609290
     22          1           0       -1.413292   -1.171940    2.007831
     23          1           0       -2.097493    1.024278    0.696280
     24          1           0       -1.394478    0.249849   -0.723788
     25          1           0       -2.956262   -1.596683   -0.257538
     26          1           0       -3.709726    0.258684   -1.741383
     27          1           0       -4.999853   -0.583146   -0.840969
     28          1           0       -4.381363    0.969869   -0.258761
 ---------------------------------------------------------------------

 SCF Done:  E(UB3LYP) =  -483.288405167     A.U. after   33 cycles
 SCF Done:  E(UB3LYP) =  -483.288405167     a.u. after    1 cycles

 The electronic state is 2-A.
 Alpha  occ. eigenvalues --  -19.02973 -14.20224 -10.12249 -10.09455 -10.08763
 Alpha  occ. eigenvalues --  -10.07919 -10.07610 -10.07577 -10.07484 -10.06907
 Alpha  occ. eigenvalues --  -10.05762  -0.92921  -0.80903  -0.72850  -0.67869
 Alpha  occ. eigenvalues --   -0.65101  -0.59556  -0.57775  -0.53989  -0.51193
 Alpha  occ. eigenvalues --   -0.48813  -0.42194  -0.41060  -0.39308  -0.38082
 Alpha  occ. eigenvalues --   -0.35259  -0.34860  -0.34445  -0.33336  -0.32889
 Alpha  occ. eigenvalues --   -0.31249  -0.29117  -0.27928  -0.27851  -0.27053
 Alpha  occ. eigenvalues --   -0.26142  -0.25244  -0.23569  -0.22987  -0.19873
 Alpha  occ. eigenvalues --   -0.17475  -0.14045  -0.13335   0.04442
 Alpha virt. eigenvalues --    0.06249   0.06999   0.07625   0.07931   0.08450
 Alpha virt. eigenvalues --    0.08907   0.09681   0.09970   0.10795   0.11139
 Alpha virt. eigenvalues --    0.11433   0.12172   0.12526   0.12963   0.13664

  Beta  occ. eigenvalues --  -19.02952 -14.20213 -10.12237 -10.09441 -10.08725
  Beta  occ. eigenvalues --  -10.07898 -10.07597 -10.07565 -10.07477 -10.06894
  Beta  occ. eigenvalues --  -10.05716  -0.92881  -0.80881  -0.72811  -0.67835
  Beta  occ. eigenvalues --   -0.65055  -0.59511  -0.57714  -0.53917  -0.51115
  Beta  occ. eigenvalues --   -0.48755  -0.42143  -0.41022  -0.39270  -0.38044
  Beta  occ. eigenvalues --   -0.35219  -0.34805  -0.34401  -0.33302  -0.32850
  Beta  occ. eigenvalues --   -0.31206  -0.29079  -0.27889  -0.27803  -0.27015
  Beta  occ. eigenvalues --   -0.26087  -0.25203  -0.23537  -0.22949  -0.19828
  Beta  occ. eigenvalues --   -0.17435  -0.13984  -0.13304
  Beta virt. eigenvalues --    0.06649   0.07176   0.07379   0.08048   0.08304
  Beta virt. eigenvalues --    0.08830   0.09425   0.10106   0.10411   0.11077
  Beta virt. eigenvalues --    0.11549   0.11905   0.12351   0.12757   0.13361

 Mulliken charges and spin densities:
               1          2
     1  C    1.428805  -2.145741
     2  C   -0.352220   0.071463
     3  C   -0.644542   0.561839
     4  C    0.907811  -0.156875
     5  C    1.217883  -1.814289
     6  O   -0.242723   0.036757
     7  C   -1.904916   1.756495
     8  C    0.573065  -0.771647
     9  C   -0.681689  -0.285206
    10  N   -0.242169   0.197498
    11  C    0.807964  -1.110461
    12  H   -0.198044   0.336080
    13  H   -0.395014   0.533549
    14  H   -0.348152   0.500031
    15  H    0.103189   0.051673
    16  H   -0.059779   0.221177
    17  H   -0.552421   0.718161
    18  H    0.042901   0.134152
    19  H   -0.140657   0.298928
    20  H    0.060064   0.178127
    21  H    0.042113   0.172320
    22  H    0.066655   0.088883
    23  H    0.049035   0.148385
    24  H    0.354464  -0.208223
    25  H    0.072132   0.142024
    26  H   -0.427952   0.547375
    27  H   -0.284965   0.417918
    28  H   -0.250836   0.379610
 Sum of Mulliken charges =  -1.00000   1.00000

 Dipole moment (field-independent basis, Debye):
    X=              0.2219    Y=             -3.7728    Z=              1.7090  Tot=              4.1477
 Quadrupole moment (field-independent basis, Debye-Ang):
   XX=           -145.2984   YY=           -122.6584   ZZ=           -101.5493
   XY=             -2.5411   XZ=             -3.1322   YZ=              2.2212

 Summary of Natural Population Analysis:

                                       Natural Population
                Natural  -----------------------------------------------
    Atom  No    Charge         Core      Valence    Rydberg      Total
 -----------------------------------------------------------------------
      C    1   -0.27761      0.99966     2.27381    0.00414     3.27761
      C    2   -0.21483      0.99962     2.20540    0.00981     3.21483
      C    3   -0.06860      0.99947     2.05796    0.01117     3.06860
      C    4   -0.05138      0.99946     2.03994    0.01198     3.05138
      C    5   -0.01496      0.99955     2.00180    0.01361     3.01496
      O    6   -0.36867      0.99990     3.36236    0.00641     4.36867
      C    7   -0.10848      0.99949     2.09835    0.01064     3.10848
      C    8   -0.08181      0.99953     2.07227    0.01001     3.08181
      C    9   -0.11118      0.99960     2.10067    0.01090     3.11118
      N   10   -0.33500      0.99975     2.82341    0.01184     3.83500
      C   11   -0.17893      0.99967     2.17039    0.00888     3.17893
      H   12    0.09724      0.00000     0.40119    0.00157     0.40276
      H   13    0.09966      0.00000     0.39879    0.00155     0.40034
      H   14    0.09677      0.00000     0.40136    0.00187     0.40323
      H   15    0.10158      0.00000     0.39587    0.00254     0.39842
      H   16    0.10393      0.00000     0.39441    0.00166     0.39607
      H   17    0.09385      0.00000     0.40455    0.00160     0.40615
      H   18    0.08654      0.00000     0.41200    0.00146     0.41346
      H   19    0.08042      0.00000     0.41808    0.00150     0.41958
      H   20    0.22827      0.00000     0.26824    0.00348     0.27173
      H   21    0.10468      0.00000     0.39405    0.00127     0.39532
      H   22    0.09704      0.00000     0.40160    0.00135     0.40296
      H   23    0.09720      0.00000     0.40103    0.00176     0.40280
      H   24    0.08982      0.00000     0.40800    0.00218     0.41018
      H   25    0.16841      0.00000     0.32835    0.00325     0.33159
      H   26    0.08103      0.00000     0.41694    0.00202     0.41897
      H   27    0.09385      0.00000     0.40505    0.00111     0.40615
      H   28    0.09117      0.00000     0.40730    0.00153     0.40883
 =======================================================================
   * Total *    0.00000     10.99571    31.86318    0.14111    43.00000

 Normal termination of Gaussian 16 at Tue Dec  8 20:07:31 2020.
