 Gaussian 16, Revision A.03,

 -----------------------------------------------------------
 # opt freq B3LYP/6-31G(d) empiricaldispersion=gd3bj scf=xqc
 -----------------------------------------------------------

 -------------------------------
 CID_131085585_JID_3085_neutraal
 -------------------------------
 Symbolic Z-matrix:
 Charge =  0 Multiplicity = 1

 SCF Done:  E(RB3LYP) =  -648.440364467     A.U. after   15 cycles
 SCF Done:  E(RB3LYP) =  -648.443016908     A.U. after   12 cycles
 SCF Done:  E(RB3LYP) =  -648.443080014     A.U. after   13 cycles
 SCF Done:  E(RB3LYP) =  -648.444297270     A.U. after   12 cycles
 SCF Done:  E(RB3LYP) =  -648.444674921     A.U. after   12 cycles
 SCF Done:  E(RB3LYP) =  -648.444875200     A.U. after   11 cycles
 SCF Done:  E(RB3LYP) =  -648.444910681     A.U. after   12 cycles
 SCF Done:  E(RB3LYP) =  -648.444988404     A.U. after   11 cycles
 SCF Done:  E(RB3LYP) =  -648.445002741     A.U. after   11 cycles
 SCF Done:  E(RB3LYP) =  -648.445017151     A.U. after   10 cycles
 SCF Done:  E(RB3LYP) =  -648.445023579     A.U. after   10 cycles
 SCF Done:  E(RB3LYP) =  -648.445025428     A.U. after    8 cycles
 SCF Done:  E(RB3LYP) =  -648.445025663     A.U. after    8 cycles
 SCF Done:  E(RB3LYP) =  -648.445025725     A.U. after    8 cycles
 Optimization completed.
    -- Stationary point found.
 Normal termination of Gaussian 16 at Wed Dec  9 22:25:12 2020.

 --------------------------------------------------------------------
 #N Geom=AllCheck Guess=TCheck SCRF=Check GenChk RB3LYP/6-31G(d) Freq
 --------------------------------------------------------------------

 Structure from the checkpoint file:  "JID_3085.chk"
 -------------------------------
 CID_131085585_JID_3085_neutraal
 -------------------------------
 Charge =  0 Multiplicity = 1

 SCF Done:  E(RB3LYP) =  -648.445025725     A.U. after    1 cycles

  Exact polarizability: 111.086 -11.831 115.423  -1.142  -4.761  91.734
 Approx polarizability: 142.131 -20.794 192.128   0.264 -15.396 134.450

                      1                      2                      3
                      A                      A                      A
 Frequencies --     33.6685                40.8043                68.3412
 Red. masses --      4.4512                 6.7420                 6.0166
 Frc consts  --      0.0030                 0.0066                 0.0166
 IR Inten    --      0.6183                 2.3569                 1.7138

                      4                      5                      6
                      A                      A                      A
 Frequencies --     74.0565               101.3259               163.0442
 Red. masses --      2.9469                 3.4946                 3.7344
 Frc consts  --      0.0095                 0.0211                 0.0585
 IR Inten    --      0.2327                 1.1348                 0.5104

                      7                      8                      9
                      A                      A                      A
 Frequencies --    169.1615               189.3294               198.8660
 Red. masses --      1.5371                 3.8590                 1.9060
 Frc consts  --      0.0259                 0.0815                 0.0444
 IR Inten    --      0.2917                 4.4275                 0.9354

                     10                     11                     12
                      A                      A                      A
 Frequencies --    218.0550               227.1202               240.9511
 Red. masses --      1.8260                 1.6309                 1.1346
 Frc consts  --      0.0512                 0.0496                 0.0388
 IR Inten    --      0.1970                 1.0508                 0.6490

                     13                     14                     15
                      A                      A                      A
 Frequencies --    286.1594               314.9122               352.5423
 Red. masses --      3.4973                 5.2102                 2.4807
 Frc consts  --      0.1687                 0.3044                 0.1817
 IR Inten    --      3.2942                25.9811                 1.3029

                     16                     17                     18
                      A                      A                      A
 Frequencies --    367.0626               395.8496               430.5695
 Red. masses --      2.7462                 1.4361                 3.1930
 Frc consts  --      0.2180                 0.1326                 0.3488
 IR Inten    --      1.1476                77.9195                21.1468

                     19                     20                     21
                      A                      A                      A
 Frequencies --    449.3807               497.3921               545.6809
 Red. masses --      2.4088                 3.6311                 3.1158
 Frc consts  --      0.2866                 0.5293                 0.5466
 IR Inten    --      4.6002                24.3643                35.8386

                     22                     23                     24
                      A                      A                      A
 Frequencies --    580.5954               618.8104               681.7730
 Red. masses --      4.2756                 2.8968                 2.1486
 Frc consts  --      0.8492                 0.6536                 0.5884
 IR Inten    --     14.3101                43.0884                13.2540

                     25                     26                     27
                      A                      A                      A
 Frequencies --    718.9281               744.3718               761.4755
 Red. masses --      1.8747                 2.7564                 3.5041
 Frc consts  --      0.5709                 0.8999                 1.1971
 IR Inten    --    246.0972                13.8189                18.6205

                     28                     29                     30
                      A                      A                      A
 Frequencies --    814.9034               856.5972               865.8312
 Red. masses --      2.6128                 3.6378                 1.6147
 Frc consts  --      1.0223                 1.5727                 0.7132
 IR Inten    --      0.5424                 6.7369                21.0922

                     31                     32                     33
                      A                      A                      A
 Frequencies --    907.9785               973.6369               984.3700
 Red. masses --      2.1082                 1.6618                 1.9414
 Frc consts  --      1.0240                 0.9282                 1.1083
 IR Inten    --     32.5286                 0.5720                 1.1609

                     34                     35                     36
                      A                      A                      A
 Frequencies --   1021.7487              1079.6271              1100.3431
 Red. masses --      1.2449                 2.6407                 2.2821
 Frc consts  --      0.7657                 1.8135                 1.6279
 IR Inten    --      5.7379                17.0047                27.9982

                     37                     38                     39
                      A                      A                      A
 Frequencies --   1107.0816              1115.8559              1121.5280
 Red. masses --      1.9564                 1.8266                 1.7005
 Frc consts  --      1.4128                 1.3400                 1.2602
 IR Inten    --     17.2885                 8.8487                 1.2521

                     40                     41                     42
                      A                      A                      A
 Frequencies --   1201.8831              1224.2629              1272.2526
 Red. masses --      2.9671                 2.3475                 1.9306
 Frc consts  --      2.5253                 2.0730                 1.8411
 IR Inten    --     55.0426                 3.2924                36.2498

                     43                     44                     45
                      A                      A                      A
 Frequencies --   1339.3142              1359.7932              1380.1161
 Red. masses --      1.2847                 1.9669                 2.2937
 Frc consts  --      1.3577                 2.1427                 2.5741
 IR Inten    --      5.8788               131.1908               142.7461

                     46                     47                     48
                      A                      A                      A
 Frequencies --   1389.0488              1431.1798              1433.5371
 Red. masses --      1.8290                 1.2018                 1.2706
 Frc consts  --      2.0792                 1.4504                 1.5385
 IR Inten    --     27.7492                26.1795                13.1728

                     49                     50                     51
                      A                      A                      A
 Frequencies --   1438.4836              1440.0581              1449.6435
 Red. masses --      1.3493                 1.3969                 1.2303
 Frc consts  --      1.6450                 1.7067                 1.5233
 IR Inten    --     18.2471                70.9593                 4.3840

                     52                     53                     54
                      A                      A                      A
 Frequencies --   1494.6542              1504.0370              1511.9125
 Red. masses --      1.4108                 1.0603                 1.0482
 Frc consts  --      1.8569                 1.4131                 1.4118
 IR Inten    --     22.7053                 2.2759                 6.1984

                     55                     56                     57
                      A                      A                      A
 Frequencies --   1520.1847              1523.5869              1525.8634
 Red. masses --      1.0743                 1.0684                 1.0535
 Frc consts  --      1.4628                 1.4612                 1.4451
 IR Inten    --     17.7609                 2.4792                12.8277

                     58                     59                     60
                      A                      A                      A
 Frequencies --   1536.3920              1727.0353              1776.7149
 Red. masses --      1.0867                 6.6665                 8.1368
 Frc consts  --      1.5113                11.7152                15.1334
 IR Inten    --      9.7817                42.2330               335.8197

                     61                     62                     63
                      A                      A                      A
 Frequencies --   1803.9270              3030.1363              3036.0884
 Red. masses --      9.6954                 1.0404                 1.0422
 Frc consts  --     18.5890                 5.6285                 5.6603
 IR Inten    --    207.1694                12.9935                40.6806

                     64                     65                     66
                      A                      A                      A
 Frequencies --   3065.0772              3077.7083              3082.0313
 Red. masses --      1.0349                 1.0989                 1.0971
 Frc consts  --      5.7282                 6.1328                 6.1403
 IR Inten    --     15.3127                 3.2392                41.3978

                     67                     68                     69
                      A                      A                      A
 Frequencies --   3131.9728              3135.1919              3152.1524
 Red. masses --      1.1000                 1.1014                 1.1030
 Frc consts  --      6.3573                 6.3785                 6.4574
 IR Inten    --     19.3036                 8.6184                18.4707

                     70                     71                     72
                      A                      A                      A
 Frequencies --   3164.9498              3170.4064              3180.3669
 Red. masses --      1.0964                 1.0859                 1.0884
 Frc consts  --      6.4707                 6.4308                 6.4865
 IR Inten    --      8.7890                 5.6855                 7.3837

                     73                     74                     75
                      A                      A                      A
 Frequencies --   3537.4255              3542.8234              3701.5850
 Red. masses --      1.0771                 1.0742                 1.0686
 Frc consts  --      7.9414                 7.9437                 8.6267
 IR Inten    --     17.8118                33.2095                32.2406

 - Thermochemistry -
 -------------------
 Temperature   298.150 Kelvin.  Pressure   1.00000 Atm.
 Atom     1 has atomic number  6 and mass  12.00000

 Molecular mass:   186.10044 amu.
 Principal axes and moments of inertia in atomic units:
                           1         2         3
     Eigenvalues --  1824.229033385.327864041.97907
           X            0.99933  -0.03576  -0.00806
           Y            0.03588   0.99925   0.01466
           Z            0.00753  -0.01494   0.99986
 This molecule is an asymmetric top.
 Rotational symmetry number  1.
 Warning -- assumption of classical behavior for rotation
           may cause significant error
 Rotational temperatures (Kelvin)      0.04748     0.02559     0.02143
 Rotational constants (GHZ):           0.98932     0.53311     0.44650
 Zero-point vibrational energy     590426.0 (Joules/Mol)
                                  141.11521 (Kcal/Mol)
 Warning -- explicit consideration of  23 degrees of freedom as
           vibrations may cause significant error
 Vibrational temperatures:     48.44    58.71    98.33   106.55   145.79
          (Kelvin)            234.58   243.39   272.40   286.12   313.73
                              326.78   346.67   411.72   453.09   507.23
                              528.12   569.54   619.49   646.56   715.64
                              785.11   835.35   890.33   980.92  1034.38
                             1070.99  1095.59  1172.46  1232.45  1245.74
                             1306.38  1400.85  1416.29  1470.07  1553.34
                             1583.15  1592.84  1605.47  1613.63  1729.24
                             1761.44  1830.49  1926.97  1956.44  1985.68
                             1998.53  2059.15  2062.54  2069.66  2071.92
                             2085.71  2150.47  2163.97  2175.30  2187.21
                             2192.10  2195.38  2210.53  2484.82  2556.30
                             2595.45  4359.69  4368.25  4409.96  4428.14
                             4434.36  4506.21  4510.84  4535.24  4553.66
                             4561.51  4575.84  5089.57  5097.33  5325.76

 Zero-point correction=                           0.224881 (Hartree/Particle)
 Thermal correction to Energy=                    0.239861
 Thermal correction to Enthalpy=                  0.240806
 Thermal correction to Gibbs Free Energy=         0.182263
 Sum of electronic and zero-point Energies=           -648.220144
 Sum of electronic and thermal Energies=              -648.205164
 Sum of electronic and thermal Enthalpies=            -648.204220
 Sum of electronic and thermal Free Energies=         -648.262763

                     E (Thermal)             CV                S
                      KCal/Mol        Cal/Mol-Kelvin    Cal/Mol-Kelvin
 Total                  150.515             53.792            123.214
 Electronic               0.000              0.000              0.000
 Translational            0.889              2.981             41.569
 Rotational               0.889              2.981             31.590
 Vibrational            148.738             47.831             50.054
 Vibration     1          0.594              1.983              5.601
 Vibration     2          0.594              1.981              5.220
 Vibration     3          0.598              1.969              4.201
 Vibration     4          0.599              1.966              4.043
 Vibration     5          0.604              1.948              3.429
 Vibration     6          0.623              1.888              2.514
 Vibration     7          0.625              1.880              2.445
 Vibration     8          0.633              1.855              2.234
 Vibration     9          0.637              1.841              2.144
 Vibration    10          0.646              1.814              1.975
 Vibration    11          0.651              1.800              1.902
 Vibration    12          0.658              1.778              1.796
 Vibration    13          0.684              1.699              1.497
 Vibration    14          0.702              1.645              1.336
 Vibration    15          0.729              1.570              1.155
 Vibration    16          0.740              1.540              1.092
 Vibration    17          0.763              1.479              0.978
 Vibration    18          0.792              1.404              0.857
 Vibration    19          0.808              1.362              0.798
 Vibration    20          0.853              1.256              0.665
 Vibration    21          0.901              1.149              0.553
 Vibration    22          0.937              1.073              0.484
 Vibration    23          0.979              0.992              0.418

                           ! Non-Optimized Parameters !
 Normal termination of Gaussian 16 at Wed Dec  9 22:31:38 2020.

 ----------------------------------------------------------------------
 # B3LYP/6-311++G(d,p) empiricaldispersion=gd3bj scf=xqc pop=npa geom=c
 heck
 ----------------------------------------------------------------------

 ---------------------------------------
 CID_131085585_JID_3085_Energie_neutraal
 ---------------------------------------
 Structure from the checkpoint file:  "JID_3085.chk"
 Charge =  0 Multiplicity = 1

 SCF Done:  E(RB3LYP) =  -648.652336428     A.U. after   15 cycles
 Normal termination of Gaussian 16 at Wed Dec  9 22:34:24 2020.

 ----------------------------------------------------------------------
 # B3LYP/6-311++G(d,p) empiricaldispersion=gd3bj scf=xqc pop=npa geom=c
 heck
 ----------------------------------------------------------------------

 -------------------------------------
 CID_131085585_JID_3085_Energie_kation
 -------------------------------------
 Structure from the checkpoint file:  "JID_3085.chk"
 Charge =  1 Multiplicity = 2

 SCF Done:  E(UB3LYP) =  -648.328696204     A.U. after   33 cycles
 SCF Done:  E(UB3LYP) =  -648.330400085     a.u. after   12 cycles
 Normal termination of Gaussian 16 at Wed Dec  9 23:49:39 2020.
 Gaussian 16:  ES64L-G16RevA.03 25-Dec-2016

 ----------------------------------------------------------------------
 # B3LYP/6-311++G(d,p) empiricaldispersion=gd3bj scf=xqc pop=npa geom=c
 heck
 ----------------------------------------------------------------------

 ------------------------------------
 CID_131085585_JID_3085_Energie_anion
 ------------------------------------
 Structure from the checkpoint file:  "JID_3085.chk"
 Charge = -1 Multiplicity = 2

                         Standard orientation:
 ---------------------------------------------------------------------
 Center     Atomic      Atomic             Coordinates (Angstroms)
 Number     Number       Type             X           Y           Z
 ---------------------------------------------------------------------
      1          6           0       -1.310299   -0.359578    2.000503
      2          6           0       -0.866175    0.019345    0.580574
      3          6           0       -2.117355    0.202510   -0.285462
      4          8           0       -2.715873    1.262115   -0.362993
      5          7           0       -2.534759   -0.890604   -1.026073
      6          8           0       -2.152362   -2.169963   -0.565919
      7          7           0       -0.100333    1.257808    0.574662
      8          6           0        0.941318    1.533020   -0.295431
      9          8           0        1.204291    2.684377   -0.618504
     10          6           0        1.766709    0.401826   -0.820388
     11          6           0        2.396851   -0.556847   -0.121527
     12          6           0        3.305078   -1.539821   -0.815263
     13          6           0        2.307235   -0.718100    1.373837
     14          1           0       -1.953433    0.422882    2.416886
     15          1           0       -0.436585   -0.472992    2.647051
     16          1           0       -1.868472   -1.300609    1.988088
     17          1           0       -0.243201   -0.770948    0.166788
     18          1           0       -3.518696   -0.874090   -1.283784
     19          1           0       -1.594694   -2.517619   -1.282890
     20          1           0       -0.669888    2.085773    0.731952
     21          1           0        1.964694    0.492648   -1.886109
     22          1           0        4.335689   -1.442502   -0.448608
     23          1           0        2.996751   -2.572873   -0.603435
     24          1           0        3.312979   -1.397009   -1.899601
     25          1           0        1.754475    0.093601    1.848530
     26          1           0        1.822678   -1.669194    1.635597
     27          1           0        3.314725   -0.753856    1.807682
 ---------------------------------------------------------------------

 SCF Done:  E(UB3LYP) =  -648.652005302     A.U. after   33 cycles
 SCF Done:  E(UB3LYP) =  -648.652005302     a.u. after    1 cycles

 The electronic state is 2-A.
 Alpha  occ. eigenvalues --  -19.06288 -19.00433 -18.98458 -14.28272 -14.23025
 Alpha  occ. eigenvalues --  -10.17798 -10.16905 -10.12121 -10.09046 -10.07184
 Alpha  occ. eigenvalues --  -10.06905 -10.06759 -10.06656  -0.99213  -0.94563
 Alpha  occ. eigenvalues --   -0.93403  -0.82290  -0.75008  -0.71868  -0.67036
 Alpha  occ. eigenvalues --   -0.60908  -0.59981  -0.56344  -0.50578  -0.48755
 Alpha  occ. eigenvalues --   -0.45151  -0.44062  -0.40794  -0.38257  -0.37476
 Alpha  occ. eigenvalues --   -0.36550  -0.36014  -0.33979  -0.33371  -0.33104
 Alpha  occ. eigenvalues --   -0.31944  -0.29545  -0.29104  -0.29015  -0.28302
 Alpha  occ. eigenvalues --   -0.27612  -0.27538  -0.26686  -0.24870  -0.22481
 Alpha  occ. eigenvalues --   -0.18360  -0.17015  -0.16676  -0.15335  -0.14384
 Alpha  occ. eigenvalues --    0.04088
 Alpha virt. eigenvalues --    0.06959   0.07567   0.07983   0.08562   0.09484
 Alpha virt. eigenvalues --    0.09750   0.10283   0.10852   0.11444   0.11947
 Alpha virt. eigenvalues --    0.13124   0.13395   0.14008   0.14250   0.14727

  Beta  occ. eigenvalues --  -19.06157 -19.00394 -18.98427 -14.28246 -14.23029
  Beta  occ. eigenvalues --  -10.17762 -10.16876 -10.12107 -10.08969 -10.07159
  Beta  occ. eigenvalues --  -10.06888 -10.06732 -10.06655  -0.98998  -0.94451
  Beta  occ. eigenvalues --   -0.93343  -0.82271  -0.74829  -0.71755  -0.66991
  Beta  occ. eigenvalues --   -0.60854  -0.59926  -0.56273  -0.50506  -0.48690
  Beta  occ. eigenvalues --   -0.44971  -0.43990  -0.40727  -0.38205  -0.37345
  Beta  occ. eigenvalues --   -0.36490  -0.35950  -0.33867  -0.33310  -0.33020
  Beta  occ. eigenvalues --   -0.31879  -0.29499  -0.29042  -0.28904  -0.28241
  Beta  occ. eigenvalues --   -0.27560  -0.27460  -0.26612  -0.24811  -0.22349
  Beta  occ. eigenvalues --   -0.18277  -0.16928  -0.16569  -0.15264  -0.14248
  Beta virt. eigenvalues --    0.06905   0.07303   0.08291   0.08441   0.08941
  Beta virt. eigenvalues --    0.09571   0.10401   0.10432   0.11408   0.11748
  Beta virt. eigenvalues --    0.12293   0.13131   0.13537   0.14307   0.14540

 Mulliken charges and spin densities:
               1          2
     1  C   -0.132022  -0.558368
     2  C    0.192440  -0.273546
     3  C   -0.539895   0.773072
     4  O   -0.334231   0.009609
     5  N   -0.129832  -0.142501
     6  O   -0.056305  -0.056909
     7  N   -0.076440   0.017280
     8  C   -0.255073  -0.089975
     9  O   -0.324213   0.009628
    10  C   -0.429444   0.182522
    11  C    0.029706   0.961887
    12  C    1.087061  -1.686605
    13  C   -0.541297  -0.289420
    14  H    0.113467   0.035396
    15  H   -0.055936   0.179469
    16  H   -0.066463   0.234448
    17  H    1.109792  -0.999303
    18  H    0.113420   0.194676
    19  H   -0.558310   0.850074
    20  H    0.315688  -0.002362
    21  H    0.046571   0.160271
    22  H    0.073396   0.052476
    23  H   -0.459740   0.631713
    24  H   -0.131283   0.279743
    25  H    0.213332  -0.034622
    26  H   -0.264898   0.467210
    27  H    0.060506   0.094138
 Sum of Mulliken charges =  -1.00000   1.00000

 Dipole moment (field-independent basis, Debye):
    X=              0.3098    Y=              3.8828    Z=              3.6573  Tot=              5.3431
 Quadrupole moment (field-independent basis, Debye-Ang):
   XX=           -114.1342   YY=           -141.6776   ZZ=           -103.3557
   XY=             -2.4685   XZ=             -0.9741   YZ=             -2.4978

 Summary of Natural Population Analysis:

                                       Natural Population
                Natural  -----------------------------------------------
    Atom  No    Charge         Core      Valence    Rydberg      Total
 -----------------------------------------------------------------------
      C    1   -0.28434      0.99964     2.27859    0.00611     3.28434
      C    2   -0.06084      0.99955     2.04790    0.01339     3.06084
      C    3    0.34221      0.99965     1.63441    0.02372     2.65779
      O    4   -0.31643      0.99987     3.31072    0.00583     4.31643
      N    5   -0.16804      0.99963     2.65300    0.01541     3.66804
      O    6   -0.27971      0.99990     3.27203    0.00778     4.27971
      N    7   -0.32413      0.99967     2.81470    0.00976     3.82413
      C    8    0.33782      0.99965     1.63939    0.02314     2.66218
      O    9   -0.31408      0.99988     3.30871    0.00549     4.31408
      C   10   -0.15805      0.99940     2.14834    0.01032     3.15805
      C   11    0.02893      0.99952     1.96272    0.00883     2.97107
      C   12   -0.29668      0.99962     2.29092    0.00614     3.29668
      C   13   -0.30884      0.99961     2.30309    0.00614     3.30884
      H   14    0.09729      0.00000     0.40178    0.00093     0.40271
      H   15    0.10337      0.00000     0.39567    0.00095     0.39663
      H   16    0.11067      0.00000     0.38832    0.00101     0.38933
      H   17    0.12188      0.00000     0.37420    0.00393     0.37812
      H   18    0.18324      0.00000     0.31439    0.00237     0.31676
      H   19    0.24877      0.00000     0.20098    0.05025     0.25123
      H   20    0.19793      0.00000     0.30007    0.00201     0.30207
      H   21    0.10664      0.00000     0.39238    0.00098     0.39336
      H   22    0.09846      0.00000     0.40063    0.00091     0.40154
      H   23    0.11117      0.00000     0.38616    0.00267     0.38883
      H   24    0.10276      0.00000     0.39632    0.00092     0.39724
      H   25    0.10741      0.00000     0.39139    0.00120     0.39259
      H   26    0.11080      0.00000     0.38767    0.00153     0.38920
      H   27    0.10177      0.00000     0.39743    0.00079     0.39823
 =======================================================================
   * Total *    0.00000     12.99560    36.79188    0.21252    50.00000

 Normal termination of Gaussian 16 at Wed Dec  9 23:58:15 2020.
