 Gaussian 16, Revision A.03,

 -----------------------------------------------------------
 # opt freq B3LYP/6-31G(d) empiricaldispersion=gd3bj scf=xqc
 -----------------------------------------------------------

 -------------------------------
 CID_131313406_JID_6610_neutraal
 -------------------------------
 Symbolic Z-matrix:
 Charge =  0 Multiplicity = 1

 SCF Done:  E(RB3LYP) =  -1102.04100784     A.U. after   15 cycles
 SCF Done:  E(RB3LYP) =  -1102.04560899     A.U. after   13 cycles
 SCF Done:  E(RB3LYP) =  -1102.04545391     A.U. after   13 cycles
 SCF Done:  E(RB3LYP) =  -1102.04631051     A.U. after   13 cycles
 SCF Done:  E(RB3LYP) =  -1102.04644006     A.U. after   11 cycles
 SCF Done:  E(RB3LYP) =  -1102.04651167     A.U. after   12 cycles
 SCF Done:  E(RB3LYP) =  -1102.04654789     A.U. after   12 cycles
 SCF Done:  E(RB3LYP) =  -1102.04656003     A.U. after   11 cycles
 SCF Done:  E(RB3LYP) =  -1102.04659333     A.U. after   11 cycles
 SCF Done:  E(RB3LYP) =  -1102.04660096     A.U. after   11 cycles
 SCF Done:  E(RB3LYP) =  -1102.04660134     A.U. after    8 cycles
 SCF Done:  E(RB3LYP) =  -1102.04660148     A.U. after    8 cycles
 Optimization completed.
    -- Stationary point found.
 Normal termination of Gaussian 16 at Thu Dec 10 23:52:12 2020.

 --------------------------------------------------------------------
 #N Geom=AllCheck Guess=TCheck SCRF=Check GenChk RB3LYP/6-31G(d) Freq
 --------------------------------------------------------------------

 Structure from the checkpoint file:  "JID_6610.chk"
 -------------------------------
 CID_131313406_JID_6610_neutraal
 -------------------------------
 Charge =  0 Multiplicity = 1

 SCF Done:  E(RB3LYP) =  -1102.04660148     A.U. after    1 cycles

  Exact polarizability: 180.384  -2.241 173.586  14.651  -1.099  70.349
 Approx polarizability: 287.990 -19.744 325.938  34.000  -8.156 110.822

                      1                      2                      3
                      A                      A                      A
 Frequencies --     28.3057                48.0269                66.2536
 Red. masses --      9.5063                 8.7838                 9.3330
 Frc consts  --      0.0045                 0.0119                 0.0241
 IR Inten    --      1.3839                 1.6333                 2.1606

                      4                      5                      6
                      A                      A                      A
 Frequencies --    103.7350               112.8265               141.3030
 Red. masses --      9.7418                11.2441                 7.9856
 Frc consts  --      0.0618                 0.0843                 0.0939
 IR Inten    --      1.3627                 4.2949                 0.1329

                      7                      8                      9
                      A                      A                      A
 Frequencies --    182.3451               201.7224               269.6947
 Red. masses --      4.6798                 5.2002                 5.9124
 Frc consts  --      0.0917                 0.1247                 0.2534
 IR Inten    --      4.3517                 2.8171                 0.7031

                     10                     11                     12
                      A                      A                      A
 Frequencies --    329.8492               335.5617               338.2350
 Red. masses --      7.2630                 1.1244                 6.6379
 Frc consts  --      0.4656                 0.0746                 0.4474
 IR Inten    --      4.8744               116.9825                 4.7849

                     13                     14                     15
                      A                      A                      A
 Frequencies --    373.7433               405.9688               424.9749
 Red. masses --     11.9039                 6.1814                 2.4734
 Frc consts  --      0.9797                 0.6002                 0.2632
 IR Inten    --      0.0207                 1.7722                 2.1555

                     16                     17                     18
                      A                      A                      A
 Frequencies --    439.9908               478.5528               504.7400
 Red. masses --      6.5350                 4.9711                 5.5028
 Frc consts  --      0.7454                 0.6708                 0.8260
 IR Inten    --      1.6688                 4.5172                 3.3650

                     19                     20                     21
                      A                      A                      A
 Frequencies --    515.2867               553.7169               596.4263
 Red. masses --      5.9256                 5.4285                 4.2716
 Frc consts  --      0.9270                 0.9806                 0.8953
 IR Inten    --      3.0081                 2.3664                51.0019

                     22                     23                     24
                      A                      A                      A
 Frequencies --    624.0328               632.2523               653.7452
 Red. masses --      5.7923                 2.3817                 3.5654
 Frc consts  --      1.3290                 0.5609                 0.8978
 IR Inten    --      0.3346                28.1038                19.2802

                     25                     26                     27
                      A                      A                      A
 Frequencies --    670.2133               682.0643               735.6545
 Red. masses --      2.7476                 4.0979                 4.6401
 Frc consts  --      0.7272                 1.1232                 1.4795
 IR Inten    --     57.4039                47.3227                14.6731

                     28                     29                     30
                      A                      A                      A
 Frequencies --    782.1550               799.8411               842.8587
 Red. masses --      2.6372                 1.8050                 1.5060
 Frc consts  --      0.9506                 0.6804                 0.6304
 IR Inten    --     17.9169                 7.9318                21.2310

                     31                     32                     33
                      A                      A                      A
 Frequencies --    850.9583               902.2750               906.6535
 Red. masses --      4.3286                 2.4964                 1.9302
 Frc consts  --      1.8468                 1.1974                 0.9348
 IR Inten    --     22.7555                 6.4021                18.1334

                     34                     35                     36
                      A                      A                      A
 Frequencies --    939.0595               967.0489              1005.9823
 Red. masses --      5.8289                 2.0084                 4.7552
 Frc consts  --      3.0285                 1.1066                 2.8353
 IR Inten    --      9.6753                17.1396                24.3716

                     37                     38                     39
                      A                      A                      A
 Frequencies --   1100.4768              1136.9144              1158.1644
 Red. masses --      8.2049                 2.4185                 1.5807
 Frc consts  --      5.8545                 1.8418                 1.2492
 IR Inten    --      4.4666                33.2057               119.0042

                     40                     41                     42
                      A                      A                      A
 Frequencies --   1207.6081              1221.0932              1246.6261
 Red. masses --      1.4945                 1.3305                 1.5433
 Frc consts  --      1.2841                 1.1689                 1.4131
 IR Inten    --     99.5234                79.9439                81.8907

                     43                     44                     45
                      A                      A                      A
 Frequencies --   1268.7263              1315.8656              1332.5138
 Red. masses --      1.5285                 2.3367                 1.4192
 Frc consts  --      1.4496                 2.3838                 1.4847
 IR Inten    --     98.8858                12.1705                 0.8907

                     46                     47                     48
                      A                      A                      A
 Frequencies --   1386.3400              1390.6389              1414.8535
 Red. masses --      6.0562                 3.3281                 3.3663
 Frc consts  --      6.8579                 3.7921                 3.9703
 IR Inten    --     24.1444               105.3475                26.8785

                     49                     50                     51
                      A                      A                      A
 Frequencies --   1447.5917              1499.8021              1523.3541
 Red. masses --      4.0024                 1.0956                 3.7365
 Frc consts  --      4.9415                 1.4520                 5.1088
 IR Inten    --    126.8572                10.9773                 1.1198

                     52                     53                     54
                      A                      A                      A
 Frequencies --   1590.1433              1630.6423              1659.6051
 Red. masses --      6.9101                 7.3577                 5.7228
 Frc consts  --     10.2945                11.5268                 9.2868
 IR Inten    --      6.2845                21.9242                86.4822

                     55                     56                     57
                      A                      A                      A
 Frequencies --   1844.0600              2349.9903              3083.3897
 Red. masses --      9.6047                12.6785                 1.0588
 Frc consts  --     19.2435                41.2525                 5.9307
 IR Inten    --    232.1319                30.3797                10.5226

                     58                     59                     60
                      A                      A                      A
 Frequencies --   3136.3837              3199.3460              3233.2734
 Red. masses --      1.1061                 1.0913                 1.0916
 Frc consts  --      6.4108                 6.5812                 6.7239
 IR Inten    --      4.4465                 5.1761                 3.9073

                     61                     62                     63
                      A                      A                      A
 Frequencies --   3260.4451              3683.7941              3756.3968
 Red. masses --      1.0942                 1.0640                 1.0661
 Frc consts  --      6.8535                 8.5070                 8.8633
 IR Inten    --      1.0531                56.0179                60.4336

 - Thermochemistry -
 -------------------
 Temperature   298.150 Kelvin.  Pressure   1.00000 Atm.
 Atom     1 has atomic number  6 and mass  12.00000

 Molecular mass:   233.01466 amu.
 Principal axes and moments of inertia in atomic units:
                           1         2         3
     Eigenvalues --  2569.617674905.658557016.24916
           X            0.99955   0.03002   0.00226
           Y           -0.03002   0.99954   0.00361
           Z           -0.00215  -0.00368   0.99999
 This molecule is an asymmetric top.
 Rotational symmetry number  1.
 Warning -- assumption of classical behavior for rotation
           may cause significant error
 Rotational temperatures (Kelvin)      0.03371     0.01766     0.01234
 Rotational constants (GHZ):           0.70234     0.36789     0.25722
 Zero-point vibrational energy     421827.7 (Joules/Mol)
                                  100.81925 (Kcal/Mol)
 Warning -- explicit consideration of  21 degrees of freedom as
           vibrations may cause significant error
 Vibrational temperatures:     40.73    69.10    95.32   149.25   162.33
          (Kelvin)            203.30   262.35   290.23   388.03   474.58
                              482.80   486.64   537.73   584.10   611.44
                              633.05   688.53   726.21   741.38   796.68
                              858.12   897.84   909.67   940.59   964.29
                              981.34  1058.44  1125.35  1150.79  1212.69
                             1224.34  1298.17  1304.47  1351.10  1391.37
                             1447.38  1583.34  1635.77  1666.34  1737.48
                             1756.88  1793.62  1825.41  1893.24  1917.19
                             1994.63  2000.82  2035.66  2082.76  2157.88
                             2191.77  2287.86  2346.13  2387.80  2653.19
                             3381.11  4436.31  4512.56  4603.15  4651.96
                             4691.05  5300.16  5404.62

 Zero-point correction=                           0.160666 (Hartree/Particle)
 Thermal correction to Energy=                    0.174565
 Thermal correction to Enthalpy=                  0.175509
 Thermal correction to Gibbs Free Energy=         0.118519
 Sum of electronic and zero-point Energies=          -1101.885936
 Sum of electronic and thermal Energies=             -1101.872037
 Sum of electronic and thermal Enthalpies=           -1101.871093
 Sum of electronic and thermal Free Energies=        -1101.928083

                     E (Thermal)             CV                S
                      KCal/Mol        Cal/Mol-Kelvin    Cal/Mol-Kelvin
 Total                  109.541             52.226            119.945
 Electronic               0.000              0.000              0.000
 Translational            0.889              2.981             42.240
 Rotational               0.889              2.981             32.847
 Vibrational            107.763             46.264             44.858
 Vibration     1          0.593              1.984              5.945
 Vibration     2          0.595              1.978              4.897
 Vibration     3          0.598              1.970              4.262
 Vibration     4          0.605              1.946              3.383
 Vibration     5          0.607              1.939              3.220
 Vibration     6          0.615              1.912              2.786
 Vibration     7          0.630              1.864              2.304
 Vibration     8          0.639              1.837              2.117
 Vibration     9          0.674              1.729              1.598
 Vibration    10          0.713              1.616              1.261
 Vibration    11          0.717              1.604              1.233
 Vibration    12          0.719              1.599              1.220
 Vibration    13          0.745              1.526              1.064
 Vibration    14          0.771              1.457              0.941
 Vibration    15          0.787              1.416              0.875
 Vibration    16          0.800              1.383              0.827
 Vibration    17          0.835              1.298              0.714
 Vibration    18          0.860              1.239              0.646
 Vibration    19          0.870              1.216              0.621
 Vibration    20          0.909              1.132              0.537
 Vibration    21          0.954              1.039              0.456

                           ! Non-Optimized Parameters !
 Normal termination of Gaussian 16 at Thu Dec 10 23:59:40 2020.

 ----------------------------------------------------------------------
 # B3LYP/6-311++G(d,p) empiricaldispersion=gd3bj scf=xqc pop=npa geom=c
 heck
 ----------------------------------------------------------------------

 ---------------------------------------
 CID_131313406_JID_6610_Energie_neutraal
 ---------------------------------------
 Structure from the checkpoint file:  "JID_6610.chk"
 Charge =  0 Multiplicity = 1

 SCF Done:  E(RB3LYP) =  -1102.27938834     A.U. after   16 cycles
 Normal termination of Gaussian 16 at Fri Dec 11 00:03:07 2020.

 ----------------------------------------------------------------------
 # B3LYP/6-311++G(d,p) empiricaldispersion=gd3bj scf=xqc pop=npa geom=c
 heck
 ----------------------------------------------------------------------

 -------------------------------------
 CID_131313406_JID_6610_Energie_kation
 -------------------------------------
 Structure from the checkpoint file:  "JID_6610.chk"
 Charge =  1 Multiplicity = 2

 SCF Done:  E(UB3LYP) =  -1101.97869564     A.U. after   26 cycles
 Normal termination of Gaussian 16 at Fri Dec 11 00:11:15 2020.
 Gaussian 16:  ES64L-G16RevA.03 25-Dec-2016

 ----------------------------------------------------------------------
 # B3LYP/6-311++G(d,p) empiricaldispersion=gd3bj scf=xqc pop=npa geom=c
 heck
 ----------------------------------------------------------------------

 ------------------------------------
 CID_131313406_JID_6610_Energie_anion
 ------------------------------------
 Structure from the checkpoint file:  "JID_6610.chk"
 Charge = -1 Multiplicity = 2

                         Standard orientation:
 ---------------------------------------------------------------------
 Center     Atomic      Atomic             Coordinates (Angstroms)
 Number     Number       Type             X           Y           Z
 ---------------------------------------------------------------------
      1          6           0        2.188325    1.568654    0.101816
      2          6           0        0.966762    2.207299   -0.160257
      3          6           0       -0.192269    1.467932   -0.388680
      4          6           0       -0.130734    0.067933   -0.360727
      5          6           0       -1.197328   -0.887721   -0.580791
      6          6           0       -0.764203   -2.170969   -0.462464
      7         16           0        0.939014   -2.323125   -0.095501
      8          6           0        1.099843   -0.578803   -0.091274
      9          6           0        2.262971    0.171816    0.140805
     10          6           0        3.507085   -0.477663    0.412644
     11          7           0        4.511551   -1.021708    0.632453
     12          6           0       -2.615674   -0.493376   -0.907454
     13          6           0       -3.283270    0.199361    0.268474
     14          8           0       -3.404910    1.396883    0.400288
     15          8           0       -3.710887   -0.691018    1.191820
     16          8           0        0.858218    3.567051   -0.200352
     17          1           0        3.087343    2.151382    0.280578
     18          1           0       -1.129161    1.986740   -0.557563
     19          1           0       -1.358871   -3.068214   -0.574879
     20          1           0       -2.636890    0.206119   -1.748489
     21          1           0       -3.193827   -1.382071   -1.174296
     22          1           0       -4.085072   -0.166968    1.925206
     23          1           0        1.722981    3.964862   -0.016306
 ---------------------------------------------------------------------

 SCF Done:  E(UB3LYP) =  -1102.29984632     A.U. after   26 cycles

 The electronic state is 2-A.
 Alpha  occ. eigenvalues --  -88.74338 -19.07793 -19.03501 -19.01527 -14.16320
 Alpha  occ. eigenvalues --  -10.20370 -10.10116 -10.08588 -10.07508 -10.06484
 Alpha  occ. eigenvalues --  -10.06133 -10.05905 -10.05839 -10.04758 -10.03356
 Alpha  occ. eigenvalues --  -10.01949  -7.82940  -5.79252  -5.78901  -5.78481
 Alpha  occ. eigenvalues --   -1.01555  -0.94419  -0.92407  -0.77080  -0.75755
 Alpha  occ. eigenvalues --   -0.70200  -0.67509  -0.63674  -0.59396  -0.57747
 Alpha  occ. eigenvalues --   -0.52077  -0.51052  -0.47777  -0.45935  -0.40676
 Alpha  occ. eigenvalues --   -0.39477  -0.38398  -0.37466  -0.36788  -0.34667
 Alpha  occ. eigenvalues --   -0.34120  -0.32170  -0.30658  -0.29698  -0.29203
 Alpha  occ. eigenvalues --   -0.26854  -0.26349  -0.26013  -0.25316  -0.23820
 Alpha  occ. eigenvalues --   -0.23101  -0.22912  -0.22372  -0.21243  -0.19418
 Alpha  occ. eigenvalues --   -0.18550  -0.17642  -0.14651  -0.10514  -0.08831
 Alpha  occ. eigenvalues --    0.03613
 Alpha virt. eigenvalues --    0.07017   0.08224   0.08351   0.09390   0.10246
 Alpha virt. eigenvalues --    0.11349   0.11557   0.11834   0.13785   0.14038
 Alpha virt. eigenvalues --    0.14330   0.14962   0.15242   0.15457   0.16055

  Beta  occ. eigenvalues --  -88.74337 -19.07779 -19.03519 -19.01505 -14.16096
  Beta  occ. eigenvalues --  -10.20299 -10.10229 -10.08595 -10.07569 -10.06484
  Beta  occ. eigenvalues --  -10.05865 -10.05794 -10.05650 -10.04711 -10.03020
  Beta  occ. eigenvalues --  -10.01566  -7.82939  -5.79256  -5.78905  -5.78466
  Beta  occ. eigenvalues --   -1.01498  -0.94456  -0.92364  -0.76768  -0.75484
  Beta  occ. eigenvalues --   -0.69820  -0.67347  -0.63160  -0.59014  -0.57534
  Beta  occ. eigenvalues --   -0.51780  -0.50555  -0.47623  -0.45634  -0.40527
  Beta  occ. eigenvalues --   -0.39403  -0.38317  -0.37280  -0.36601  -0.34372
  Beta  occ. eigenvalues --   -0.33931  -0.32076  -0.30536  -0.29567  -0.28824
  Beta  occ. eigenvalues --   -0.26715  -0.26203  -0.25653  -0.25148  -0.23602
  Beta  occ. eigenvalues --   -0.22840  -0.22282  -0.21864  -0.21079  -0.19285
  Beta  occ. eigenvalues --   -0.18460  -0.16677  -0.13676  -0.09064  -0.07662
  Beta virt. eigenvalues --    0.06988   0.08177   0.08194   0.09350   0.10190
  Beta virt. eigenvalues --    0.10237   0.11560   0.11734   0.11921   0.13800
  Beta virt. eigenvalues --    0.13988   0.14264   0.15110   0.15257   0.15670

 Mulliken charges and spin densities:
               1          2
     1  C   -0.192311   0.294799
     2  C   -0.802439  -0.092802
     3  C   -0.820233   0.341258
     4  C    0.662939   0.035008
     5  C    0.617656   0.012199
     6  C    0.080925   0.198648
     7  S   -0.776803  -0.010105
     8  C    0.349040  -0.048609
     9  C    1.536523   0.176386
    10  C   -1.262092  -0.043319
    11  N   -0.304882   0.119523
    12  C   -0.590084  -0.057715
    13  C   -0.086085   0.033582
    14  O   -0.271503   0.010627
    15  O   -0.169588   0.001231
    16  O   -0.246257   0.000804
    17  H    0.106832  -0.021848
    18  H    0.186504  -0.020790
    19  H    0.192956  -0.009135
    20  H    0.132876   0.037421
    21  H    0.134354   0.039524
    22  H    0.270250   0.004052
    23  H    0.251423  -0.000741
 Sum of Mulliken charges =  -1.00000   1.00000

 Dipole moment (field-independent basis, Debye):
    X=             -6.5454    Y=              0.6301    Z=             -0.1388  Tot=              6.5772
 Quadrupole moment (field-independent basis, Debye-Ang):
   XX=           -149.4360   YY=           -119.2707   ZZ=           -105.8802
   XY=             20.6977   XZ=             -6.5702   YZ=              2.8810

 Summary of Natural Population Analysis:

                                       Natural Population
                Natural  -----------------------------------------------
    Atom  No    Charge         Core      Valence    Rydberg      Total
 -----------------------------------------------------------------------
      C    1   -0.05389      0.99951     2.04658    0.00780     3.05389
      C    2    0.13353      0.99940     1.85493    0.01215     2.86647
      C    3   -0.04511      0.99949     2.03781    0.00781     3.04511
      C    4   -0.03545      0.99944     2.02572    0.01028     3.03545
      C    5   -0.04905      0.99942     2.03686    0.01278     3.04905
      C    6   -0.11802      0.99943     2.10894    0.00965     3.11802
      S    7    0.18357      4.99947     2.79593    0.02103     7.81643
      C    8   -0.08858      0.99938     2.07671    0.01249     3.08858
      C    9   -0.06325      0.99937     2.05168    0.01221     3.06325
      C   10    0.15209      0.99964     1.82952    0.01874     2.84791
      N   11   -0.17348      0.99979     2.66228    0.01141     3.67348
      C   12   -0.24020      0.99955     2.22975    0.01091     3.24020
      C   13    0.41841      0.99974     1.55684    0.02501     2.58159
      O   14   -0.30761      0.99987     3.30027    0.00747     4.30761
      O   15   -0.34524      0.99987     3.33918    0.00618     4.34524
      O   16   -0.34816      0.99987     3.34181    0.00647     4.34816
      H   17    0.09043      0.00000     0.40855    0.00101     0.40957
      H   18    0.10599      0.00000     0.39261    0.00140     0.39401
      H   19    0.09832      0.00000     0.40091    0.00077     0.40168
      H   20    0.11202      0.00000     0.38625    0.00172     0.38798
      H   21    0.10981      0.00000     0.38878    0.00141     0.39019
      H   22    0.23613      0.00000     0.26115    0.00272     0.26387
      H   23    0.22772      0.00000     0.26992    0.00236     0.27228
 =======================================================================
   * Total *    0.00000     19.99323    39.80297    0.20380    60.00000

 Normal termination of Gaussian 16 at Fri Dec 11 00:19:16 2020.
