 Gaussian 16, Revision A.03,

 -----------------------------------------------------------
 # opt freq B3LYP/6-31G(d) empiricaldispersion=gd3bj scf=xqc
 -----------------------------------------------------------

 ------------------------------
 CID_59264485_JID_6608_neutraal
 ------------------------------
 Symbolic Z-matrix:
 Charge =  0 Multiplicity = 1

 SCF Done:  E(RB3LYP) =  -685.909584664     A.U. after   15 cycles
 SCF Done:  E(RB3LYP) =  -685.913279033     A.U. after   15 cycles
 SCF Done:  E(RB3LYP) =  -685.914065875     A.U. after   13 cycles
 SCF Done:  E(RB3LYP) =  -685.914701358     A.U. after   12 cycles
 SCF Done:  E(RB3LYP) =  -685.914805371     A.U. after   12 cycles
 SCF Done:  E(RB3LYP) =  -685.915498527     A.U. after   15 cycles
 SCF Done:  E(RB3LYP) =  -685.914886279     A.U. after   16 cycles
 SCF Done:  E(RB3LYP) =  -685.916305296     A.U. after   13 cycles
 SCF Done:  E(RB3LYP) =  -685.917094909     A.U. after   15 cycles
 SCF Done:  E(RB3LYP) =  -685.919667049     A.U. after   15 cycles
 SCF Done:  E(RB3LYP) =  -685.921832481     A.U. after   10 cycles
 SCF Done:  E(RB3LYP) =  -685.921833328     A.U. after    8 cycles
 SCF Done:  E(RB3LYP) =  -685.921833247     A.U. after    7 cycles
 SCF Done:  E(RB3LYP) =  -685.921832901     A.U. after    7 cycles
 SCF Done:  E(RB3LYP) =  -685.921832584     A.U. after    7 cycles
 Optimization completed.
    -- Stationary point found.
 Normal termination of Gaussian 16 at Fri Dec 11 00:00:32 2020.

 --------------------------------------------------------------------
 #N Geom=AllCheck Guess=TCheck SCRF=Check GenChk RB3LYP/6-31G(d) Freq
 --------------------------------------------------------------------

 Structure from the checkpoint file:  "JID_6608.chk"
 ------------------------------
 CID_59264485_JID_6608_neutraal
 ------------------------------
 Charge =  0 Multiplicity = 1

 SCF Done:  E(RB3LYP) =  -685.921832584     A.U. after    1 cycles

  Exact polarizability: 218.356 -24.743 104.592  18.484   4.049 140.103
 Approx polarizability: 297.646 -48.666 154.484  55.287   5.327 268.813

                      1                      2                      3
                      A                      A                      A
 Frequencies --     26.5471                43.3340                46.3037
 Red. masses --      5.1207                 4.2169                 3.6892
 Frc consts  --      0.0021                 0.0047                 0.0047
 IR Inten    --      0.1443                 0.0938                 0.2520

                      4                      5                      6
                      A                      A                      A
 Frequencies --     74.3513               118.6819               150.0644
 Red. masses --      6.2632                 5.6665                 4.3275
 Frc consts  --      0.0204                 0.0470                 0.0574
 IR Inten    --      0.0844                 0.3376                 0.8493

                      7                      8                      9
                      A                      A                      A
 Frequencies --    174.0937               236.9331               255.6083
 Red. masses --      5.0314                 3.8062                 1.9479
 Frc consts  --      0.0898                 0.1259                 0.0750
 IR Inten    --      0.7909                 0.3241                 0.4154

                     10                     11                     12
                      A                      A                      A
 Frequencies --    316.3914               327.8391               354.9088
 Red. masses --      2.9338                 5.6109                 2.0361
 Frc consts  --      0.1730                 0.3553                 0.1511
 IR Inten    --      0.9267                 1.2116                 2.7944

                     13                     14                     15
                      A                      A                      A
 Frequencies --    411.0175               421.5710               428.9045
 Red. masses --      3.5089                 3.1396                 2.7515
 Frc consts  --      0.3493                 0.3287                 0.2982
 IR Inten    --      3.8053                 0.3358                 1.2974

                     16                     17                     18
                      A                      A                      A
 Frequencies --    460.8589               465.1039               480.1434
 Red. masses --      3.1055                 2.7209                 4.4424
 Frc consts  --      0.3886                 0.3468                 0.6034
 IR Inten    --      3.8043                 1.4073                 1.6648

                     19                     20                     21
                      A                      A                      A
 Frequencies --    536.8295               543.3680               587.3229
 Red. masses --      6.3236                 3.0710                 1.8271
 Frc consts  --      1.0737                 0.5342                 0.3713
 IR Inten    --      2.2400                27.1046                17.8078

                     22                     23                     24
                      A                      A                      A
 Frequencies --    655.8958               662.4050               732.9587
 Red. masses --      6.8711                 6.3629                 4.0251
 Frc consts  --      1.7416                 1.6449                 1.2740
 IR Inten    --      0.1722                17.7116                 0.8401

                     25                     26                     27
                      A                      A                      A
 Frequencies --    790.6448               795.9851               817.2516
 Red. masses --      3.9816                 2.5851                 1.6614
 Frc consts  --      1.4664                 0.9650                 0.6538
 IR Inten    --      7.3793                48.2004                45.8865

                     28                     29                     30
                      A                      A                      A
 Frequencies --    831.9149               840.6051               852.4944
 Red. masses --      1.4799                 1.3456                 2.4062
 Frc consts  --      0.6034                 0.5602                 1.0303
 IR Inten    --      3.5361                 3.9229                17.4838

                     31                     32                     33
                      A                      A                      A
 Frequencies --    865.9559               902.5734               918.4141
 Red. masses --      2.7452                 2.0902                 2.0235
 Frc consts  --      1.2129                 1.0032                 1.0056
 IR Inten    --     15.2842                 3.8677                 6.5036

                     34                     35                     36
                      A                      A                      A
 Frequencies --    952.7925               956.4240               968.4758
 Red. masses --      1.4667                 1.4596                 1.3570
 Frc consts  --      0.7845                 0.7866                 0.7499
 IR Inten    --      1.2465                 0.2478                 0.0428

                     37                     38                     39
                      A                      A                      A
 Frequencies --   1003.1269              1010.1365              1039.9863
 Red. masses --      2.3355                 1.4995                 2.8441
 Frc consts  --      1.3846                 0.9015                 1.8124
 IR Inten    --      1.1740                 2.1662                 2.0974

                     40                     41                     42
                      A                      A                      A
 Frequencies --   1069.7364              1099.0514              1120.5656
 Red. masses --      1.6113                 2.0647                 2.1619
 Frc consts  --      1.0864                 1.4694                 1.5994
 IR Inten    --      1.9068                11.4320                 5.0640

                     43                     44                     45
                      A                      A                      A
 Frequencies --   1129.7327              1156.0480              1169.2581
 Red. masses --      2.1680                 1.4075                 4.2296
 Frc consts  --      1.6302                 1.1083                 3.4070
 IR Inten    --      3.5406                11.7960                23.7341

                     46                     47                     48
                      A                      A                      A
 Frequencies --   1174.1579              1185.5796              1214.7412
 Red. masses --      3.1976                 1.1643                 1.3507
 Frc consts  --      2.5973                 0.9642                 1.1743
 IR Inten    --     15.9657                 1.6410                 1.7309

                     49                     50                     51
                      A                      A                      A
 Frequencies --   1219.3356              1241.1729              1243.2782
 Red. masses --      1.2201                 1.3358                 2.2837
 Frc consts  --      1.0687                 1.2124                 2.0798
 IR Inten    --      0.8537                 1.7678                 4.5582

                     52                     53                     54
                      A                      A                      A
 Frequencies --   1305.8451              1316.9316              1331.0656
 Red. masses --      1.3154                 1.2434                 1.2648
 Frc consts  --      1.3215                 1.2705                 1.3203
 IR Inten    --      3.5054                 5.0105                 5.5098

                     55                     56                     57
                      A                      A                      A
 Frequencies --   1347.5892              1354.6578              1364.0967
 Red. masses --      1.8070                 1.4833                 1.7608
 Frc consts  --      1.9335                 1.6038                 1.9304
 IR Inten    --      7.8192                 2.6958                12.4630

                     58                     59                     60
                      A                      A                      A
 Frequencies --   1369.1374              1375.4800              1384.6993
 Red. masses --      1.3529                 6.4067                 1.5251
 Frc consts  --      1.4943                 7.1416                 1.7229
 IR Inten    --     40.5948               149.1536                 3.7800

                     61                     62                     63
                      A                      A                      A
 Frequencies --   1406.0729              1418.9186              1449.3053
 Red. masses --      1.5030                 1.5909                 1.4777
 Frc consts  --      1.7508                 1.8871                 1.8287
 IR Inten    --      0.3259                 3.4790                14.7502

                     64                     65                     66
                      A                      A                      A
 Frequencies --   1470.6601              1497.4569              1505.5511
 Red. masses --      2.8121                 1.2006                 1.1504
 Frc consts  --      3.5835                 1.5862                 1.5364
 IR Inten    --      1.1959                 3.1401                 0.2546

                     67                     68                     69
                      A                      A                      A
 Frequencies --   1514.7768              1521.6758              1527.5915
 Red. masses --      1.1012                 1.1016                 1.1216
 Frc consts  --      1.4887                 1.5029                 1.5420
 IR Inten    --      1.0311                 8.1161                 1.0995

                     70                     71                     72
                      A                      A                      A
 Frequencies --   1538.2614              1559.0220              1632.5574
 Red. masses --      1.1055                 2.4698                 6.5741
 Frc consts  --      1.5412                 3.5368                10.3234
 IR Inten    --      2.0273               106.1573                 6.7295

                     73                     74                     75
                      A                      A                      A
 Frequencies --   1671.3597              2264.2691              2910.9581
 Red. masses --      5.8207                13.9805                 1.0744
 Frc consts  --      9.5800                42.2308                 5.3640
 IR Inten    --     17.0113               840.4584                30.2300

                     76                     77                     78
                      A                      A                      A
 Frequencies --   2917.5515              2999.6795              3032.2344
 Red. masses --      1.0727                 1.0818                 1.0598
 Frc consts  --      5.3798                 5.7352                 5.7413
 IR Inten    --    126.6155                15.2474                12.8598

                     79                     80                     81
                      A                      A                      A
 Frequencies --   3037.2273              3042.8889              3072.7670
 Red. masses --      1.0604                 1.0633                 1.1036
 Frc consts  --      5.7633                 5.8009                 6.1396
 IR Inten    --     32.6128                42.2391                 3.0313

                     82                     83                     84
                      A                      A                      A
 Frequencies --   3078.9581              3080.9540              3083.0097
 Red. masses --      1.0884                 1.0906                 1.1005
 Frc consts  --      6.0793                 6.0995                 6.1631
 IR Inten    --     81.8203                16.0855                72.9279

                     85                     86                     87
                      A                      A                      A
 Frequencies --   3097.2629              3179.5244              3189.2712
 Red. masses --      1.0998                 1.0875                 1.0889
 Frc consts  --      6.2163                 6.4775                 6.5256
 IR Inten    --     39.7577                12.7388                15.9821

                     88                     89                     90
                      A                      A                      A
 Frequencies --   3199.7754              3219.1857              3500.7989
 Red. masses --      1.0937                 1.0935                 1.0746
 Frc consts  --      6.5975                 6.6765                 7.7592
 IR Inten    --      6.6048                 6.5334                 2.8981

 - Thermochemistry -
 -------------------
 Temperature   298.150 Kelvin.  Pressure   1.00000 Atm.
 Atom     1 has atomic number  6 and mass  12.00000

 Molecular mass:   216.13750 amu.
 Principal axes and moments of inertia in atomic units:
                           1         2         3
     Eigenvalues --  1240.442389082.366139168.78381
           X            0.99997   0.00498  -0.00549
           Y           -0.00420   0.99089   0.13463
           Z            0.00612  -0.13460   0.99088
 This molecule is an asymmetric top.
 Rotational symmetry number  1.
 Warning -- assumption of classical behavior for rotation
           may cause significant error
 Rotational temperatures (Kelvin)      0.06983     0.00954     0.00945
 Rotational constants (GHZ):           1.45492     0.19871     0.19684
 Zero-point vibrational energy     716861.6 (Joules/Mol)
                                  171.33404 (Kcal/Mol)
 Warning -- explicit consideration of  21 degrees of freedom as
           vibrations may cause significant error
 Vibrational temperatures:     38.20    62.35    66.62   106.98   170.76
          (Kelvin)            215.91   250.48   340.89   367.76   455.22
                              471.69   510.63   591.36   606.55   617.10
                              663.07   669.18   690.82   772.38   781.79
                              845.03   943.69   953.05  1054.56  1137.56
                             1145.24  1175.84  1196.94  1209.44  1226.55
                             1245.92  1298.60  1321.39  1370.86  1376.08
                             1393.42  1443.28  1453.36  1496.31  1539.11
                             1581.29  1612.24  1625.43  1663.30  1682.30
                             1689.35  1705.78  1747.74  1754.35  1785.77
                             1788.80  1878.82  1894.77  1915.11  1938.88
                             1949.05  1962.63  1969.88  1979.01  1992.27
                             2023.03  2041.51  2085.23  2115.95  2154.51
                             2166.15  2179.43  2189.35  2197.86  2213.22
                             2243.08  2348.89  2404.71  3257.78  4188.22
                             4197.71  4315.87  4362.71  4369.89  4378.04
                             4421.03  4429.93  4432.81  4435.76  4456.27
                             4574.63  4588.65  4603.76  4631.69  5036.87

 Zero-point correction=                           0.273038 (Hartree/Particle)
 Thermal correction to Energy=                    0.287051
 Thermal correction to Enthalpy=                  0.287995
 Thermal correction to Gibbs Free Energy=         0.230399
 Sum of electronic and zero-point Energies=           -685.648794
 Sum of electronic and thermal Energies=              -685.634782
 Sum of electronic and thermal Enthalpies=            -685.633838
 Sum of electronic and thermal Free Energies=         -685.691433

                     E (Thermal)             CV                S
                      KCal/Mol        Cal/Mol-Kelvin    Cal/Mol-Kelvin
 Total                  180.127             54.553            121.220
 Electronic               0.000              0.000              0.000
 Translational            0.889              2.981             42.015
 Rotational               0.889              2.981             33.002
 Vibrational            178.349             48.591             46.203
 Vibration     1          0.593              1.984              6.072
 Vibration     2          0.595              1.980              5.101
 Vibration     3          0.595              1.979              4.969
 Vibration     4          0.599              1.966              4.035
 Vibration     5          0.609              1.934              3.122
 Vibration     6          0.618              1.903              2.671
 Vibration     7          0.627              1.874              2.391
 Vibration     8          0.656              1.784              1.826
 Vibration     9          0.666              1.753              1.692
 Vibration    10          0.703              1.642              1.329
 Vibration    11          0.711              1.620              1.271
 Vibration    12          0.731              1.565              1.144
 Vibration    13          0.775              1.446              0.923
 Vibration    14          0.784              1.423              0.887
 Vibration    15          0.790              1.407              0.862
 Vibration    16          0.819              1.337              0.764
 Vibration    17          0.823              1.327              0.751
 Vibration    18          0.837              1.294              0.710
 Vibration    19          0.892              1.169              0.572
 Vibration    20          0.898              1.154              0.558
 Vibration    21          0.944              1.059              0.472

 Optimization completed.
    -- Stationary point found.
 Normal termination of Gaussian 16 at Fri Dec 11 00:10:22 2020.

 ----------------------------------------------------------------------
 # B3LYP/6-311++G(d,p) empiricaldispersion=gd3bj scf=xqc pop=npa geom=c
 heck
 ----------------------------------------------------------------------

 --------------------------------------
 CID_59264485_JID_6608_Energie_neutraal
 --------------------------------------
 Structure from the checkpoint file:  "JID_6608.chk"
 Charge =  0 Multiplicity = 1

 SCF Done:  E(RB3LYP) =  -686.105260109     A.U. after   18 cycles
 Normal termination of Gaussian 16 at Fri Dec 11 00:15:29 2020.

 ----------------------------------------------------------------------
 # B3LYP/6-311++G(d,p) empiricaldispersion=gd3bj scf=xqc pop=npa geom=c
 heck
 ----------------------------------------------------------------------

 ------------------------------------
 CID_59264485_JID_6608_Energie_kation
 ------------------------------------
 Structure from the checkpoint file:  "JID_6608.chk"
 Charge =  1 Multiplicity = 2

 SCF Done:  E(UB3LYP) =  -685.819513127     A.U. after   29 cycles
 Normal termination of Gaussian 16 at Fri Dec 11 00:26:55 2020.
 Gaussian 16:  ES64L-G16RevA.03 25-Dec-2016

 ----------------------------------------------------------------------
 # B3LYP/6-311++G(d,p) empiricaldispersion=gd3bj scf=xqc pop=npa geom=c
 heck
 ----------------------------------------------------------------------

 -----------------------------------
 CID_59264485_JID_6608_Energie_anion
 -----------------------------------
 Structure from the checkpoint file:  "JID_6608.chk"
 Charge = -1 Multiplicity = 2

                         Standard orientation:
 ---------------------------------------------------------------------
 Center     Atomic      Atomic             Coordinates (Angstroms)
 Number     Number       Type             X           Y           Z
 ---------------------------------------------------------------------
      1          6           0        2.192802    0.804070    0.621045
      2          6           0        3.245383    1.780586    0.092673
      3          7           0        4.545536    1.113202    0.025580
      4          6           0        4.524500   -0.015612   -0.903742
      5          6           0        3.521660   -1.062032   -0.412470
      6          6           0        2.119178   -0.454791   -0.256105
      7          6           0        1.118940   -1.495061    0.288226
      8          6           0       -0.303090   -0.991368    0.338581
      9          6           0       -0.881420   -0.548965    1.534590
     10          6           0       -2.177821   -0.044036    1.570465
     11          6           0       -2.927585    0.027143    0.393403
     12          6           0       -2.370314   -0.411395   -0.814328
     13          6           0       -1.072660   -0.912665   -0.829725
     14          7           0       -4.242366    0.552589    0.514916
     15          7           0       -4.933455    0.628668   -0.507136
     16          7           0       -5.670821    0.751816   -1.370199
     17          1           0        1.214963    1.296315    0.665172
     18          1           0        2.463978    0.514871    1.645550
     19          1           0        2.913236    2.161276   -0.894708
     20          1           0        3.330982    2.644118    0.761821
     21          1           0        5.259042    1.779643   -0.260774
     22          1           0        5.530647   -0.447238   -0.952219
     23          1           0        4.246342    0.287657   -1.933849
     24          1           0        3.861429   -1.445657    0.558664
     25          1           0        3.493033   -1.908961   -1.110256
     26          1           0        1.771939   -0.146063   -1.255051
     27          1           0        1.170343   -2.391525   -0.344067
     28          1           0        1.439773   -1.801225    1.292295
     29          1           0       -0.305485   -0.600469    2.454769
     30          1           0       -2.623292    0.296290    2.499360
     31          1           0       -2.948034   -0.364833   -1.733237
     32          1           0       -0.648594   -1.253360   -1.771289
 ---------------------------------------------------------------------

 SCF Done:  E(UB3LYP) =  -686.100487598     A.U. after   33 cycles
 SCF Done:  E(UB3LYP) =  -686.100487598     a.u. after    1 cycles

 The electronic state is 2-A.
 Alpha  occ. eigenvalues --  -14.33732 -14.24824 -14.24353 -14.20003 -10.11340
 Alpha  occ. eigenvalues --  -10.09519 -10.09348 -10.07845 -10.07794 -10.07712
 Alpha  occ. eigenvalues --  -10.07619 -10.07593 -10.07561 -10.07268 -10.06861
 Alpha  occ. eigenvalues --  -10.06641  -1.01445  -0.86381  -0.81576  -0.76308
 Alpha  occ. eigenvalues --   -0.71619  -0.66867  -0.65649  -0.65212  -0.60426
 Alpha  occ. eigenvalues --   -0.53820  -0.52736  -0.51866  -0.49569  -0.46006
 Alpha  occ. eigenvalues --   -0.45844  -0.41554  -0.40194  -0.38793  -0.37670
 Alpha  occ. eigenvalues --   -0.36369  -0.35732  -0.35090  -0.34662  -0.33733
 Alpha  occ. eigenvalues --   -0.32870  -0.32483  -0.31800  -0.30443  -0.29138
 Alpha  occ. eigenvalues --   -0.27875  -0.27425  -0.26292  -0.25285  -0.24928
 Alpha  occ. eigenvalues --   -0.23229  -0.22129  -0.21319  -0.19516  -0.19068
 Alpha  occ. eigenvalues --   -0.16107  -0.13414  -0.11058   0.04164
 Alpha virt. eigenvalues --    0.05415   0.06896   0.07371   0.07601   0.07741
 Alpha virt. eigenvalues --    0.08059   0.08974   0.09604   0.09837   0.10264
 Alpha virt. eigenvalues --    0.10583   0.11611   0.11984   0.12575   0.12788

  Beta  occ. eigenvalues --  -14.33334 -14.24411 -14.24383 -14.19978 -10.11227
  Beta  occ. eigenvalues --  -10.09507 -10.09325 -10.07838 -10.07788 -10.07681
  Beta  occ. eigenvalues --  -10.07605 -10.07588 -10.07558 -10.07266 -10.06851
  Beta  occ. eigenvalues --  -10.06638  -1.00744  -0.86071  -0.81540  -0.76230
  Beta  occ. eigenvalues --   -0.71569  -0.66733  -0.65617  -0.65171  -0.60307
  Beta  occ. eigenvalues --   -0.53674  -0.52703  -0.51819  -0.49467  -0.45933
  Beta  occ. eigenvalues --   -0.45747  -0.41481  -0.39517  -0.38333  -0.37470
  Beta  occ. eigenvalues --   -0.35834  -0.35622  -0.35003  -0.34479  -0.33537
  Beta  occ. eigenvalues --   -0.32525  -0.32097  -0.31555  -0.30375  -0.29093
  Beta  occ. eigenvalues --   -0.27816  -0.27244  -0.26251  -0.25255  -0.24870
  Beta  occ. eigenvalues --   -0.23192  -0.22073  -0.21286  -0.18955  -0.18618
  Beta  occ. eigenvalues --   -0.16035  -0.13369  -0.10843
  Beta virt. eigenvalues --    0.06368   0.07266   0.07437   0.07834   0.07867
  Beta virt. eigenvalues --    0.08330   0.08875   0.09691   0.09813   0.10124
  Beta virt. eigenvalues --    0.10521   0.10631   0.11749   0.12126   0.12641

 Mulliken charges and spin densities:
               1          2
     1  C   -0.762939   0.304511
     2  C    0.271403  -0.827099
     3  N   -0.331202   0.212361
     4  C    1.010674  -1.488233
     5  C   -0.819323   0.424389
     6  C    0.818290  -0.406124
     7  C   -0.391301  -0.487300
     8  C    1.238735   0.276186
     9  C   -0.487177   0.084654
    10  C   -0.129223   0.223277
    11  C   -0.812696  -0.752437
    12  C    0.242389  -0.081367
    13  C   -0.611074   0.477238
    14  N    0.083428   0.273376
    15  N    0.231252  -0.069436
    16  N   -0.404145   0.152354
    17  H    0.219086  -0.069544
    18  H    0.088892   0.063171
    19  H   -0.127569   0.243431
    20  H   -0.024426   0.193974
    21  H   -0.165696   0.415752
    22  H   -0.469762   0.657148
    23  H   -0.165565   0.267450
    24  H    0.160178  -0.023817
    25  H   -0.125707   0.257359
    26  H    0.282290  -0.147337
    27  H    0.035572   0.134407
    28  H    0.101770   0.054498
    29  H    0.043581   0.099492
    30  H   -0.105851   0.303477
    31  H    0.190201  -0.006114
    32  H   -0.084085   0.240300
 Sum of Mulliken charges =  -1.00000   1.00000

 Dipole moment (field-independent basis, Debye):
    X=             -0.3960    Y=             -2.0289    Z=              1.7382  Tot=              2.7008
 Quadrupole moment (field-independent basis, Debye-Ang):
   XX=           -231.5837   YY=           -121.8557   ZZ=           -120.5625
   XY=             -0.4746   XZ=              3.0539   YZ=              0.3340

 Summary of Natural Population Analysis:

                                       Natural Population
                Natural  -----------------------------------------------
    Atom  No    Charge         Core      Valence    Rydberg      Total
 -----------------------------------------------------------------------
      C    1   -0.19544      0.99961     2.18814    0.00770     3.19544
      C    2   -0.08632      0.99962     2.07454    0.01216     3.08632
      N    3   -0.34173      0.99974     2.82950    0.01249     3.84173
      C    4   -0.08634      0.99962     2.07413    0.01259     3.08634
      C    5   -0.19191      0.99961     2.18234    0.00996     3.19191
      C    6   -0.10594      0.99958     2.09697    0.00939     3.10594
      C    7   -0.19194      0.99959     2.18331    0.00904     3.19194
      C    8   -0.02341      0.99951     2.01440    0.00950     3.02341
      C    9   -0.09478      0.99952     2.08676    0.00850     3.09478
      C   10   -0.10864      0.99952     2.09936    0.00977     3.10864
      C   11    0.07795      0.99942     1.90982    0.01281     2.92205
      C   12   -0.12251      0.99952     2.11534    0.00765     3.12251
      C   13   -0.09384      0.99952     2.08576    0.00856     3.09384
      N   14   -0.20028      0.99965     2.68685    0.01378     3.70028
      N   15    0.15118      0.99971     2.33350    0.01562     3.34882
      N   16    0.00331      0.99982     2.48310    0.01377     3.49669
      H   17    0.10511      0.00000     0.39387    0.00103     0.39489
      H   18    0.09518      0.00000     0.40347    0.00135     0.40482
      H   19    0.07635      0.00000     0.42211    0.00154     0.42365
      H   20    0.09425      0.00000     0.40485    0.00091     0.40575
      H   21    0.17699      0.00000     0.31884    0.00417     0.32301
      H   22    0.09649      0.00000     0.40195    0.00156     0.40351
      H   23    0.07601      0.00000     0.42209    0.00189     0.42399
      H   24    0.09574      0.00000     0.40285    0.00141     0.40426
      H   25    0.09856      0.00000     0.40035    0.00109     0.40144
      H   26    0.09304      0.00000     0.40455    0.00241     0.40696
      H   27    0.10176      0.00000     0.39719    0.00105     0.39824
      H   28    0.09686      0.00000     0.40137    0.00177     0.40314
      H   29    0.09802      0.00000     0.40104    0.00094     0.40198
      H   30    0.10460      0.00000     0.39381    0.00159     0.39540
      H   31    0.10336      0.00000     0.39513    0.00151     0.39664
      H   32    0.09830      0.00000     0.40072    0.00097     0.40170
 =======================================================================
   * Total *    0.00000     15.99356    41.80801    0.19844    58.00000

 Normal termination of Gaussian 16 at Fri Dec 11 00:40:24 2020.
