 Gaussian 16, Revision A.03,

 -----------------------------------------------------------
 # opt freq B3LYP/6-31G(d) empiricaldispersion=gd3bj scf=xqc
 -----------------------------------------------------------

 -------------------------------
 CID_107159614_JID_8276_neutraal
 -------------------------------
 Symbolic Z-matrix:
 Charge =  0 Multiplicity = 1

 SCF Done:  E(RB3LYP) =  -788.077103814     A.U. after   13 cycles
 SCF Done:  E(RB3LYP) =  -788.082530902     A.U. after   11 cycles
 SCF Done:  E(RB3LYP) =  -788.082989690     A.U. after   11 cycles
 SCF Done:  E(RB3LYP) =  -788.083572677     A.U. after   11 cycles
 SCF Done:  E(RB3LYP) =  -788.083645694     A.U. after   11 cycles
 SCF Done:  E(RB3LYP) =  -788.083914718     A.U. after   12 cycles
 SCF Done:  E(RB3LYP) =  -788.084030594     A.U. after   11 cycles
 SCF Done:  E(RB3LYP) =  -788.084038930     A.U. after   11 cycles
 SCF Done:  E(RB3LYP) =  -788.084047143     A.U. after    9 cycles
 SCF Done:  E(RB3LYP) =  -788.084074545     A.U. after   10 cycles
 SCF Done:  E(RB3LYP) =  -788.084079455     A.U. after    8 cycles
 SCF Done:  E(RB3LYP) =  -788.084079530     A.U. after    7 cycles
 SCF Done:  E(RB3LYP) =  -788.084079582     A.U. after    8 cycles
 SCF Done:  E(RB3LYP) =  -788.084079669     A.U. after    7 cycles
 SCF Done:  E(RB3LYP) =  -788.084079714     A.U. after    7 cycles
 SCF Done:  E(RB3LYP) =  -788.084079724     A.U. after    6 cycles
 Optimization completed.
    -- Stationary point found.
 Normal termination of Gaussian 16 at Fri Dec 11 19:58:09 2020.

 --------------------------------------------------------------------
 #N Geom=AllCheck Guess=TCheck SCRF=Check GenChk RB3LYP/6-31G(d) Freq
 --------------------------------------------------------------------

 Structure from the checkpoint file:  "JID_8276.chk"
 -------------------------------
 CID_107159614_JID_8276_neutraal
 -------------------------------
 Charge =  0 Multiplicity = 1

 SCF Done:  E(RB3LYP) =  -788.084079724     A.U. after    1 cycles

  Exact polarizability: 224.523  10.992 172.263 -13.481   7.358 127.037
 Approx polarizability: 296.513  18.990 266.607 -32.746  15.395 192.073

                      1                      2                      3
                      A                      A                      A
 Frequencies --     17.7490                20.4480                28.2689
 Red. masses --      3.4566                 3.8576                 3.1233
 Frc consts  --      0.0006                 0.0010                 0.0015
 IR Inten    --      0.0937                 0.4744                 0.1833

                      4                      5                      6
                      A                      A                      A
 Frequencies --     53.1023                67.8758                94.1067
 Red. masses --      3.9275                 3.9941                 3.9203
 Frc consts  --      0.0065                 0.0108                 0.0205
 IR Inten    --      0.3022                 2.1941                 0.2404

                      7                      8                      9
                      A                      A                      A
 Frequencies --    100.2602               174.8326               185.3923
 Red. masses --      3.2872                 2.9052                 1.5591
 Frc consts  --      0.0195                 0.0523                 0.0316
 IR Inten    --      1.2211                 5.6281                 0.1724

                     10                     11                     12
                      A                      A                      A
 Frequencies --    199.5795               210.6751               222.4463
 Red. masses --      2.4390                 1.4406                 2.9351
 Frc consts  --      0.0572                 0.0377                 0.0856
 IR Inten    --      1.5854                 9.1904                 2.2497

                     13                     14                     15
                      A                      A                      A
 Frequencies --    235.0735               240.3999               250.5885
 Red. masses --      2.9837                 2.1654                 1.6843
 Frc consts  --      0.0971                 0.0737                 0.0623
 IR Inten    --      3.2781                 0.6300                 3.5220

                     16                     17                     18
                      A                      A                      A
 Frequencies --    270.8320               299.0683               319.4484
 Red. masses --      1.3050                 1.8175                 1.2351
 Frc consts  --      0.0564                 0.0958                 0.0743
 IR Inten    --      0.9489                 3.2088                37.3934

                     19                     20                     21
                      A                      A                      A
 Frequencies --    322.4193               337.2396               353.3463
 Red. masses --      1.6368                 2.3814                 1.6271
 Frc consts  --      0.1003                 0.1596                 0.1197
 IR Inten    --     12.8710                 6.8676                58.7723

                     22                     23                     24
                      A                      A                      A
 Frequencies --    384.2838               398.0529               417.3374
 Red. masses --      2.6602                 2.4704                 2.3234
 Frc consts  --      0.2315                 0.2306                 0.2384
 IR Inten    --     27.6037                 5.0777                 4.5878

                     25                     26                     27
                      A                      A                      A
 Frequencies --    423.2768               439.0161               449.3775
 Red. masses --      2.1007                 1.8943                 1.9748
 Frc consts  --      0.2217                 0.2151                 0.2350
 IR Inten    --     26.8753                48.0693                40.0916

                     28                     29                     30
                      A                      A                      A
 Frequencies --    469.3246               490.4978               515.7030
 Red. masses --      2.6903                 3.1801                 2.9012
 Frc consts  --      0.3491                 0.4508                 0.4546
 IR Inten    --     15.0655                 3.3406                72.1422

                     31                     32                     33
                      A                      A                      A
 Frequencies --    565.2649               619.8441               630.7855
 Red. masses --      2.3491                 2.1940                 3.7627
 Frc consts  --      0.4422                 0.4967                 0.8821
 IR Inten    --     84.1164                27.9978                11.6675

                     34                     35                     36
                      A                      A                      A
 Frequencies --    632.3203               646.2365               722.1038
 Red. masses --      3.0840                 4.0917                 2.1829
 Frc consts  --      0.7265                 1.0068                 0.6706
 IR Inten    --      2.4441                 8.2423                 8.0476

                     37                     38                     39
                      A                      A                      A
 Frequencies --    738.2858               761.1927               819.5757
 Red. masses --      3.4824                 2.7289                 1.4240
 Frc consts  --      1.1183                 0.9316                 0.5636
 IR Inten    --      0.8022                 3.8486                 4.6429

                     40                     41                     42
                      A                      A                      A
 Frequencies --    837.6574               843.1428               851.0421
 Red. masses --      1.6489                 2.2580                 1.5654
 Frc consts  --      0.6817                 0.9458                 0.6680
 IR Inten    --     23.5394                 8.9340                21.7053

                     43                     44                     45
                      A                      A                      A
 Frequencies --    878.5289               885.4568               910.5471
 Red. masses --      1.4707                 1.9181                 2.2063
 Frc consts  --      0.6688                 0.8860                 1.0778
 IR Inten    --      0.3582                 2.1472                 1.3562

                     46                     47                     48
                      A                      A                      A
 Frequencies --    934.3231               948.6259               959.7226
 Red. masses --      1.9057                 1.6400                 1.7180
 Frc consts  --      0.9802                 0.8695                 0.9323
 IR Inten    --      3.5963                 0.4853                 1.1697

                     49                     50                     51
                      A                      A                      A
 Frequencies --    974.1620              1000.1388              1027.5149
 Red. masses --      1.2553                 3.1037                 4.2214
 Frc consts  --      0.7019                 1.8291                 2.6259
 IR Inten    --      0.6046                 0.3068                 3.6243

                     52                     53                     54
                      A                      A                      A
 Frequencies --   1032.3546              1040.1686              1069.6660
 Red. masses --      1.6023                 1.9802                 1.4720
 Frc consts  --      1.0061                 1.2623                 0.9924
 IR Inten    --     27.8241                39.8382                22.1743

                     55                     56                     57
                      A                      A                      A
 Frequencies --   1080.4136              1103.0404              1135.2818
 Red. masses --      2.6242                 1.8428                 2.2223
 Frc consts  --      1.8048                 1.3210                 1.6876
 IR Inten    --     13.4037                14.1993                31.6297

                     58                     59                     60
                      A                      A                      A
 Frequencies --   1137.8115              1153.7284              1174.4544
 Red. masses --      1.9755                 2.6309                 1.9095
 Frc consts  --      1.5069                 2.0633                 1.5518
 IR Inten    --     24.5610                 5.5204                 1.5537

                     61                     62                     63
                      A                      A                      A
 Frequencies --   1219.2783              1224.8257              1230.2495
 Red. masses --      1.7826                 1.9730                 1.8112
 Frc consts  --      1.5614                 1.7439                 1.6152
 IR Inten    --     11.5601                18.1391                12.4689

                     64                     65                     66
                      A                      A                      A
 Frequencies --   1255.2022              1263.2651              1276.2875
 Red. masses --      1.3863                 1.8860                 2.1705
 Frc consts  --      1.2869                 1.7733                 2.0831
 IR Inten    --     54.8327               190.2068                62.1912

                     67                     68                     69
                      A                      A                      A
 Frequencies --   1287.8725              1304.4716              1331.4737
 Red. masses --      2.8071                 1.7014                 1.2671
 Frc consts  --      2.7432                 1.7057                 1.3235
 IR Inten    --     31.6014                 6.0813                 4.7192

                     70                     71                     72
                      A                      A                      A
 Frequencies --   1342.2080              1375.1857              1382.9283
 Red. masses --      1.4368                 1.3179                 2.3193
 Frc consts  --      1.5251                 1.4684                 2.6135
 IR Inten    --      0.5488                16.7033                67.0423

                     73                     74                     75
                      A                      A                      A
 Frequencies --   1387.8777              1402.2962              1409.3595
 Red. masses --      1.5585                 1.3835                 1.4137
 Frc consts  --      1.7687                 1.6029                 1.6545
 IR Inten    --      4.0021                12.3577                21.2207

                     76                     77                     78
                      A                      A                      A
 Frequencies --   1426.9749              1430.0990              1433.3884
 Red. masses --      1.3499                 1.2463                 1.2297
 Frc consts  --      1.6195                 1.5017                 1.4886
 IR Inten    --      8.0481                 4.3289                17.0244

                     79                     80                     81
                      A                      A                      A
 Frequencies --   1437.4929              1441.4184              1465.3571
 Red. masses --      1.2560                 1.2276                 1.2422
 Frc consts  --      1.5291                 1.5027                 1.5715
 IR Inten    --     16.8877                48.9004                 4.4350

                     82                     83                     84
                      A                      A                      A
 Frequencies --   1476.1620              1483.5330              1510.1449
 Red. masses --      1.7841                 2.1337                 1.1183
 Frc consts  --      2.2905                 2.7668                 1.5026
 IR Inten    --     13.3177                47.1980                 9.2868

                     85                     86                     87
                      A                      A                      A
 Frequencies --   1511.6515              1513.8571              1518.6866
 Red. masses --      1.0593                 1.0558                 1.0669
 Frc consts  --      1.4262                 1.4256                 1.4498
 IR Inten    --      0.8475                11.3683                 2.9106

                     88                     89                     90
                      A                      A                      A
 Frequencies --   1521.8617              1523.7847              1536.6632
 Red. masses --      1.0733                 1.0597                 1.0746
 Frc consts  --      1.4647                 1.4498                 1.4950
 IR Inten    --     11.8054                 5.4387                 9.6170

                     91                     92                     93
                      A                      A                      A
 Frequencies --   1538.3430              1539.7753              1542.8966
 Red. masses --      1.0750                 1.0835                 1.0643
 Frc consts  --      1.4989                 1.5136                 1.4927
 IR Inten    --     17.3540                18.3344                19.6470

                     94                     95                     96
                      A                      A                      A
 Frequencies --   1557.8843              1562.8010              1571.1352
 Red. masses --      1.3071                 1.3404                 1.9129
 Frc consts  --      1.8691                 1.9289                 2.7821
 IR Inten    --     87.9973                41.2675                65.3740

                     97                     98                     99
                      A                      A                      A
 Frequencies --   1630.2420              1659.3749              2991.3461
 Red. masses --      3.7397                 5.5237                 1.0713
 Frc consts  --      5.8559                 8.9613                 5.6480
 IR Inten    --     23.5887               284.3047                60.7791

                    100                    101                    102
                      A                      A                      A
 Frequencies --   3022.5688              3037.6300              3045.8305
 Red. masses --      1.0649                 1.0355                 1.0362
 Frc consts  --      5.7320                 5.6296                 5.6637
 IR Inten    --     28.0226                34.3185                32.3101

                    103                    104                    105
                      A                      A                      A
 Frequencies --   3051.3990              3053.7097              3060.4047
 Red. masses --      1.0361                 1.0399                 1.0616
 Frc consts  --      5.6837                 5.7137                 5.8585
 IR Inten    --     23.2741                12.2552                37.8139

                    106                    107                    108
                      A                      A                      A
 Frequencies --   3063.9095              3072.8720              3093.9423
 Red. masses --      1.0924                 1.0872                 1.0911
 Frc consts  --      6.0419                 6.0483                 6.1538
 IR Inten    --     32.7713                29.6702                39.7436

                    109                    110                    111
                      A                      A                      A
 Frequencies --   3094.1200              3103.6513              3107.5910
 Red. masses --      1.1031                 1.1022                 1.1028
 Frc consts  --      6.2220                 6.2554                 6.2746
 IR Inten    --     16.0138                20.7330                 4.5337

                    112                    113                    114
                      A                      A                      A
 Frequencies --   3109.4023              3115.3443              3115.6309
 Red. masses --      1.1019                 1.1015                 1.1011
 Frc consts  --      6.2770                 6.2984                 6.2975
 IR Inten    --     39.1279                77.6396                33.1557

                    115                    116                    117
                      A                      A                      A
 Frequencies --   3118.3453              3134.9075              3140.6847
 Red. masses --      1.1028                 1.1024                 1.0890
 Frc consts  --      6.3180                 6.3833                 6.3286
 IR Inten    --     35.4111                37.4538                44.7129

                    118                    119                    120
                      A                      A                      A
 Frequencies --   3142.4194              3191.5596              3202.3992
 Red. masses --      1.0976                 1.0891                 1.0893
 Frc consts  --      6.3858                 6.5362                 6.5819
 IR Inten    --     37.6547                14.7096                23.1535

                    121                    122                    123
                      A                      A                      A
 Frequencies --   3576.1908              3586.9022              3744.2939
 Red. masses --      1.0753                 1.0744                 1.0659
 Frc consts  --      8.1024                 8.1441                 8.8043
 IR Inten    --      9.3770                10.0407                 6.4532

 - Thermochemistry -
 -------------------
 Temperature   298.150 Kelvin.  Pressure   1.00000 Atm.
 Atom     1 has atomic number  6 and mass  12.00000

 Molecular mass:   251.19976 amu.
 Principal axes and moments of inertia in atomic units:
                           1         2         3
     Eigenvalues --  2656.21686********************
           X            0.99992   0.00376   0.01182
           Y           -0.00389   0.99993   0.01089
           Z           -0.01177  -0.01094   0.99987
 This molecule is an asymmetric top.
 Rotational symmetry number  1.
 Warning -- assumption of classical behavior for rotation
           may cause significant error
 Rotational temperatures (Kelvin)      0.03261     0.00842     0.00750
 Rotational constants (GHZ):           0.67944     0.17546     0.15629
 Zero-point vibrational energy    1008492.5 (Joules/Mol)
                                  241.03549 (Kcal/Mol)
 Warning -- explicit consideration of  32 degrees of freedom as
           vibrations may cause significant error
 Vibrational temperatures:     25.54    29.42    40.67    76.40    97.66
          (Kelvin)            135.40   144.25   251.55   266.74   287.15
                              303.11   320.05   338.22   345.88   360.54
                              389.67   430.29   459.61   463.89   485.21
                              508.39   552.90   572.71   600.46   609.00
                              631.65   646.55   675.25   705.72   741.98
                              813.29   891.82   907.56   909.77   929.79
                             1038.95  1062.23  1095.19  1179.19  1205.20
                             1213.09  1224.46  1264.01  1273.97  1310.07
                             1344.28  1364.86  1380.83  1401.60  1438.98
                             1478.36  1485.33  1496.57  1539.01  1554.47
                             1587.03  1633.42  1637.06  1659.96  1689.78
                             1754.27  1762.25  1770.05  1805.96  1817.56
                             1836.29  1852.96  1876.84  1915.69  1931.14
                             1978.59  1989.73  1996.85  2017.59  2027.75
                             2053.10  2057.59  2062.33  2068.23  2073.88
                             2108.32  2123.87  2134.47  2172.76  2174.93
                             2178.10  2185.05  2189.62  2192.39  2210.92
                             2213.33  2215.39  2219.88  2241.45  2248.52
                             2260.51  2345.55  2387.47  4303.88  4348.80
                             4370.47  4382.27  4390.28  4393.61  4403.24
                             4408.28  4421.18  4451.49  4451.75  4465.46
                             4471.13  4473.74  4482.29  4482.70  4486.60
                             4510.43  4518.74  4521.24  4591.94  4607.54
                             5145.34  5160.75  5387.20

 Zero-point correction=                           0.384115 (Hartree/Particle)
 Thermal correction to Energy=                    0.404127
 Thermal correction to Enthalpy=                  0.405071
 Thermal correction to Gibbs Free Energy=         0.334090
 Sum of electronic and zero-point Energies=           -787.699965
 Sum of electronic and thermal Energies=              -787.679953
 Sum of electronic and thermal Enthalpies=            -787.679008
 Sum of electronic and thermal Free Energies=         -787.749990

                     E (Thermal)             CV                S
                      KCal/Mol        Cal/Mol-Kelvin    Cal/Mol-Kelvin
 Total                  253.594             76.456            149.394
 Electronic               0.000              0.000              0.000
 Translational            0.889              2.981             42.464
 Rotational               0.889              2.981             34.111
 Vibrational            251.816             70.494             72.819
 Vibration     1          0.593              1.986              6.871
 Vibration     2          0.593              1.986              6.590
 Vibration     3          0.593              1.984              5.947
 Vibration     4          0.596              1.976              4.698
 Vibration     5          0.598              1.970              4.214
 Vibration     6          0.603              1.953              3.573
 Vibration     7          0.604              1.949              3.449
 Vibration     8          0.627              1.873              2.383
 Vibration     9          0.631              1.860              2.273
 Vibration    10          0.638              1.840              2.137
 Vibration    11          0.643              1.825              2.038
 Vibration    12          0.648              1.807              1.939
 Vibration    13          0.655              1.787              1.840
 Vibration    14          0.657              1.779              1.800
 Vibration    15          0.663              1.762              1.726
 Vibration    16          0.675              1.727              1.591
 Vibration    17          0.692              1.675              1.422
 Vibration    18          0.705              1.636              1.313
 Vibration    19          0.707              1.631              1.298
 Vibration    20          0.718              1.601              1.225
 Vibration    21          0.730              1.568              1.151
 Vibration    22          0.753              1.504              1.022
 Vibration    23          0.764              1.474              0.970
 Vibration    24          0.780              1.433              0.901
 Vibration    25          0.785              1.420              0.881
 Vibration    26          0.799              1.385              0.830
 Vibration    27          0.808              1.362              0.798
 Vibration    28          0.826              1.318              0.739
 Vibration    29          0.846              1.271              0.682
 Vibration    30          0.871              1.215              0.620
 Vibration    31          0.921              1.106              0.513
 Vibration    32          0.980              0.990              0.417

 Optimization completed.
    -- Stationary point found.
 Normal termination of Gaussian 16 at Fri Dec 11 20:17:12 2020.

 ----------------------------------------------------------------------
 # B3LYP/6-311++G(d,p) empiricaldispersion=gd3bj scf=xqc pop=npa geom=c
 heck
 ----------------------------------------------------------------------

 ---------------------------------------
 CID_107159614_JID_8276_Energie_neutraal
 ---------------------------------------
 Structure from the checkpoint file:  "JID_8276.chk"
 Charge =  0 Multiplicity = 1

 SCF Done:  E(RB3LYP) =  -788.315137472     A.U. after   15 cycles
 Normal termination of Gaussian 16 at Fri Dec 11 20:26:53 2020.

 ----------------------------------------------------------------------
 # B3LYP/6-311++G(d,p) empiricaldispersion=gd3bj scf=xqc pop=npa geom=c
 heck
 ----------------------------------------------------------------------

 -------------------------------------
 CID_107159614_JID_8276_Energie_kation
 -------------------------------------
 Structure from the checkpoint file:  "JID_8276.chk"
 Charge =  1 Multiplicity = 2

 SCF Done:  E(UB3LYP) =  -788.049573029     A.U. after   22 cycles
 Normal termination of Gaussian 16 at Fri Dec 11 20:47:32 2020.
 Gaussian 16:  ES64L-G16RevA.03 25-Dec-2016

 ----------------------------------------------------------------------
 # B3LYP/6-311++G(d,p) empiricaldispersion=gd3bj scf=xqc pop=npa geom=c
 heck
 ----------------------------------------------------------------------

 ------------------------------------
 CID_107159614_JID_8276_Energie_anion
 ------------------------------------
 Structure from the checkpoint file:  "JID_8276.chk"
 Charge = -1 Multiplicity = 2

                         Standard orientation:
 ---------------------------------------------------------------------
 Center     Atomic      Atomic             Coordinates (Angstroms)
 Number     Number       Type             X           Y           Z
 ---------------------------------------------------------------------
      1          6           0        4.636990    1.899032    1.518467
      2          6           0        4.409858    2.033514    0.008057
      3          7           0        4.367135    0.769620   -0.715202
      4          6           0        3.357145   -0.162223   -0.508697
      5          6           0        2.099523    0.168917    0.000408
      6          6           0        1.113126   -0.823118    0.122135
      7          6           0        1.439553   -2.129607   -0.279320
      8          7           0        2.646742   -2.454639   -0.757222
      9          6           0        3.572389   -1.511998   -0.868238
     10          7           0       -0.127183   -0.486334    0.661548
     11          6           0       -1.262075   -1.380214    0.522296
     12          6           0       -2.521731   -0.848651    1.229070
     13          6           0       -2.950540    0.602807    0.926303
     14          6           0       -3.551685    1.018669   -0.444897
     15          6           0       -5.012868    0.546553   -0.571041
     16          6           0       -3.544507    2.559794   -0.484803
     17          6           0       -2.742061    0.502865   -1.647819
     18          8           0       -3.575201   -1.796396    1.056810
     19          1           0        3.852505    1.290994    1.979631
     20          1           0        4.639299    2.883259    2.001053
     21          1           0        5.599876    1.417307    1.723447
     22          1           0        3.477785    2.575110   -0.190010
     23          1           0        5.208005    2.633471   -0.442318
     24          1           0        5.276633    0.344212   -0.846989
     25          1           0        1.871014    1.183883    0.312020
     26          1           0        0.716512   -2.936154   -0.211359
     27          1           0        4.541059   -1.814274   -1.268122
     28          1           0       -0.359654    0.488807    0.526049
     29          1           0       -1.481952   -1.605120   -0.534224
     30          1           0       -1.020361   -2.334970    0.999486
     31          1           0       -2.307648   -0.871782    2.303397
     32          1           0       -3.689123    0.866776    1.693563
     33          1           0       -2.086141    1.249673    1.136614
     34          1           0       -5.626074    0.960033    0.237762
     35          1           0       -5.442016    0.879353   -1.523623
     36          1           0       -5.104661   -0.541054   -0.519342
     37          1           0       -2.520066    2.952011   -0.475319
     38          1           0       -4.036791    2.928672   -1.392201
     39          1           0       -4.073059    2.979765    0.379120
     40          1           0       -1.673174    0.724773   -1.547956
     41          1           0       -2.848232   -0.578398   -1.784008
     42          1           0       -3.094144    0.977753   -2.570810
     43          1           0       -3.683544   -1.941497    0.104263
 ---------------------------------------------------------------------

 SCF Done:  E(UB3LYP) =  -788.308591831     A.U. after   32 cycles

 The electronic state is 2-A.
 Alpha  occ. eigenvalues --  -19.04433 -14.23946 -14.23685 -14.21675 -10.14515
 Alpha  occ. eigenvalues --  -10.12887 -10.12859 -10.11991 -10.11599 -10.10302
 Alpha  occ. eigenvalues --  -10.10018 -10.09669 -10.08456 -10.08281 -10.07484
 Alpha  occ. eigenvalues --  -10.07484 -10.07201 -10.06939  -0.94805  -0.86679
 Alpha  occ. eigenvalues --   -0.84944  -0.82932  -0.74274  -0.70450  -0.68319
 Alpha  occ. eigenvalues --   -0.65608  -0.63527  -0.61127  -0.60166  -0.59772
 Alpha  occ. eigenvalues --   -0.56000  -0.53888  -0.52975  -0.50169  -0.46529
 Alpha  occ. eigenvalues --   -0.45339  -0.43091  -0.41903  -0.40811  -0.39778
 Alpha  occ. eigenvalues --   -0.38927  -0.37604  -0.36733  -0.36309  -0.35644
 Alpha  occ. eigenvalues --   -0.34438  -0.34241  -0.33570  -0.32905  -0.32460
 Alpha  occ. eigenvalues --   -0.31232  -0.30730  -0.30125  -0.29315  -0.28881
 Alpha  occ. eigenvalues --   -0.28611  -0.28140  -0.27744  -0.26440  -0.26252
 Alpha  occ. eigenvalues --   -0.24644  -0.24079  -0.23908  -0.22619  -0.21982
 Alpha  occ. eigenvalues --   -0.19552  -0.16591  -0.13536  -0.11382   0.03530
 Alpha virt. eigenvalues --    0.05000   0.06241   0.06466   0.07162   0.07261
 Alpha virt. eigenvalues --    0.07791   0.07971   0.08613   0.08985   0.09346
 Alpha virt. eigenvalues --    0.09680   0.09755   0.10307   0.10724   0.11599

  Beta  occ. eigenvalues --  -19.04415 -14.23928 -14.23670 -14.21670 -10.14510
  Beta  occ. eigenvalues --  -10.12886 -10.12861 -10.11985 -10.11569 -10.10302
  Beta  occ. eigenvalues --  -10.10013 -10.09667 -10.08439 -10.08263 -10.07458
  Beta  occ. eigenvalues --  -10.07455 -10.07173 -10.06904  -0.94765  -0.86660
  Beta  occ. eigenvalues --   -0.84916  -0.82914  -0.74254  -0.70431  -0.68292
  Beta  occ. eigenvalues --   -0.65574  -0.63499  -0.61088  -0.60115  -0.59713
  Beta  occ. eigenvalues --   -0.55950  -0.53860  -0.52926  -0.50124  -0.46493
  Beta  occ. eigenvalues --   -0.45284  -0.43066  -0.41867  -0.40784  -0.39753
  Beta  occ. eigenvalues --   -0.38885  -0.37575  -0.36698  -0.36275  -0.35614
  Beta  occ. eigenvalues --   -0.34401  -0.34213  -0.33529  -0.32879  -0.32430
  Beta  occ. eigenvalues --   -0.31206  -0.30702  -0.30101  -0.29294  -0.28853
  Beta  occ. eigenvalues --   -0.28567  -0.28108  -0.27720  -0.26406  -0.26220
  Beta  occ. eigenvalues --   -0.24612  -0.24044  -0.23881  -0.22593  -0.21961
  Beta  occ. eigenvalues --   -0.19525  -0.16582  -0.13510  -0.11362
  Beta virt. eigenvalues --    0.05535   0.05915   0.06487   0.06987   0.07380
  Beta virt. eigenvalues --    0.07740   0.08049   0.08299   0.08923   0.09119
  Beta virt. eigenvalues --    0.09470   0.09788   0.09863   0.10533   0.10984

 Mulliken charges and spin densities:
               1          2
     1  C    0.525122  -0.972615
     2  C    0.048196  -0.351096
     3  N   -0.039549  -0.017133
     4  C   -1.307640   1.037331
     5  C    0.353913  -0.541204
     6  C    1.363873  -0.908638
     7  C   -0.296443  -0.301181
     8  N   -0.044292   0.010029
     9  C   -0.802546   0.515477
    10  N    0.086526   0.022893
    11  C   -0.554750   0.108929
    12  C    0.184143  -0.611847
    13  C    0.270556  -0.639685
    14  C   -1.105968   1.600037
    15  C    0.252401  -0.776746
    16  C    0.615322  -1.165644
    17  C    0.223369  -0.752426
    18  O   -0.123573   0.008858
    19  H   -0.088654   0.235560
    20  H   -0.104294   0.227378
    21  H   -0.064718   0.204207
    22  H   -0.303228   0.457224
    23  H   -0.604286   0.793709
    24  H    0.056079   0.179201
    25  H    0.174553  -0.031214
    26  H    0.128494   0.034253
    27  H    0.005649   0.149828
    28  H    0.611209  -0.431606
    29  H    0.198477  -0.045782
    30  H    0.170873   0.022672
    31  H    0.146988   0.069111
    32  H    0.121696   0.068720
    33  H   -0.388590   0.579274
    34  H   -0.082594   0.232713
    35  H   -0.071514   0.215360
    36  H   -0.040294   0.121246
    37  H   -0.345448   0.495136
    38  H   -0.065886   0.206208
    39  H   -0.095618   0.234643
    40  H   -0.017288   0.185942
    41  H   -0.115846   0.243817
    42  H   -0.027281   0.186845
    43  H    0.152863   0.100217
 Sum of Mulliken charges =  -1.00000   1.00000

 Dipole moment (field-independent basis, Debye):
    X=             -1.9407    Y=             -3.7627    Z=              0.7415  Tot=              4.2981
 Quadrupole moment (field-independent basis, Debye-Ang):
   XX=           -220.7985   YY=           -173.1544   ZZ=           -146.9901
   XY=             -4.9843   XZ=              0.9886   YZ=             -0.0459

 Summary of Natural Population Analysis:

                                       Natural Population
                Natural  -----------------------------------------------
    Atom  No    Charge         Core      Valence    Rydberg      Total
 -----------------------------------------------------------------------
      C    1   -0.29480      0.99966     2.28965    0.00548     3.29480
      C    2   -0.08903      0.99964     2.07870    0.01070     3.08903
      N    3   -0.30914      0.99968     2.79792    0.01153     3.80914
      C    4    0.07958      0.99949     1.90952    0.01141     2.92042
      C    5   -0.13812      0.99949     2.12958    0.00904     3.13812
      C    6    0.08278      0.99950     1.90671    0.01100     2.91722
      C    7   -0.02882      0.99955     2.01632    0.01295     3.02882
      N    8   -0.21807      0.99971     2.70745    0.01090     3.71807
      C    9   -0.00909      0.99956     1.99605    0.01348     3.00909
      N   10   -0.31442      0.99967     2.80527    0.00948     3.81442
      C   11   -0.09703      0.99959     2.08766    0.00978     3.09703
      C   12    0.06586      0.99956     1.92138    0.01320     2.93414
      C   13   -0.20168      0.99956     2.19107    0.01105     3.20168
      C   14   -0.05335      0.99959     2.04151    0.01225     3.05335
      C   15   -0.28099      0.99962     2.27500    0.00637     3.28099
      C   16   -0.28246      0.99963     2.27503    0.00780     3.28246
      C   17   -0.28722      0.99962     2.27959    0.00800     3.28722
      O   18   -0.36818      0.99990     3.36192    0.00636     4.36818
      H   19    0.10116      0.00000     0.39769    0.00115     0.39884
      H   20    0.10136      0.00000     0.39758    0.00106     0.39864
      H   21    0.09650      0.00000     0.40238    0.00113     0.40350
      H   22    0.09547      0.00000     0.40285    0.00168     0.40453
      H   23    0.09814      0.00000     0.40014    0.00172     0.40186
      H   24    0.18338      0.00000     0.31406    0.00255     0.31662
      H   25    0.10512      0.00000     0.39300    0.00188     0.39488
      H   26    0.09025      0.00000     0.40820    0.00155     0.40975
      H   27    0.08442      0.00000     0.41376    0.00182     0.41558
      H   28    0.18719      0.00000     0.30921    0.00360     0.31281
      H   29    0.08529      0.00000     0.41299    0.00172     0.41471
      H   30    0.09903      0.00000     0.39944    0.00153     0.40097
      H   31    0.08841      0.00000     0.40990    0.00170     0.41159
      H   32    0.10536      0.00000     0.39346    0.00118     0.39464
      H   33    0.10022      0.00000     0.39799    0.00180     0.39978
      H   34    0.10035      0.00000     0.39871    0.00095     0.39965
      H   35    0.09844      0.00000     0.40061    0.00094     0.40156
      H   36    0.09773      0.00000     0.40120    0.00106     0.40227
      H   37    0.10277      0.00000     0.39574    0.00149     0.39723
      H   38    0.09934      0.00000     0.39968    0.00097     0.40066
      H   39    0.09964      0.00000     0.39934    0.00102     0.40036
      H   40    0.10170      0.00000     0.39691    0.00139     0.39830
      H   41    0.09397      0.00000     0.40465    0.00138     0.40603
      H   42    0.10285      0.00000     0.39630    0.00085     0.39715
      H   43    0.22605      0.00000     0.27104    0.00291     0.27395
 =======================================================================
   * Total *    0.00000     17.99304    50.78716    0.21980    69.00000

 Normal termination of Gaussian 16 at Fri Dec 11 21:17:45 2020.
