 Gaussian 16, Revision A.03,

 -----------------------------------------------------------
 # opt freq B3LYP/6-31G(d) empiricaldispersion=gd3bj scf=xqc
 -----------------------------------------------------------

 --------------------------------
 CID_105785054_JID_10272_neutraal
 --------------------------------
 Symbolic Z-matrix:
 Charge =  0 Multiplicity = 1

 SCF Done:  E(RB3LYP) =  -1693.56422759     A.U. after   15 cycles
 SCF Done:  E(RB3LYP) =  -1693.57234340     A.U. after   14 cycles
 SCF Done:  E(RB3LYP) =  -1693.57439458     A.U. after   13 cycles
 SCF Done:  E(RB3LYP) =  -1693.57653209     A.U. after   13 cycles
 SCF Done:  E(RB3LYP) =  -1693.57760397     A.U. after   14 cycles
 SCF Done:  E(RB3LYP) =  -1693.57966439     A.U. after   13 cycles
 SCF Done:  E(RB3LYP) =  -1693.58063973     A.U. after   13 cycles
 SCF Done:  E(RB3LYP) =  -1693.58112824     A.U. after   12 cycles
 SCF Done:  E(RB3LYP) =  -1693.58180823     A.U. after   12 cycles
 SCF Done:  E(RB3LYP) =  -1693.58205483     A.U. after   12 cycles
 SCF Done:  E(RB3LYP) =  -1693.58220111     A.U. after   10 cycles
 SCF Done:  E(RB3LYP) =  -1693.58220477     A.U. after    9 cycles
 SCF Done:  E(RB3LYP) =  -1693.58220643     A.U. after    9 cycles
 SCF Done:  E(RB3LYP) =  -1693.58220697     A.U. after    8 cycles
 SCF Done:  E(RB3LYP) =  -1693.58220710     A.U. after    8 cycles
 Optimization completed.
    -- Stationary point found.
 Normal termination of Gaussian 16 at Sun Dec 13 16:49:44 2020.

 --------------------------------------------------------------------
 #N Geom=AllCheck Guess=TCheck SCRF=Check GenChk RB3LYP/6-31G(d) Freq
 --------------------------------------------------------------------

 Structure from the checkpoint file:  "JID_10272.chk"
 --------------------------------
 CID_105785054_JID_10272_neutraal
 --------------------------------
 Charge =  0 Multiplicity = 1

 SCF Done:  E(RB3LYP) =  -1693.58220710     A.U. after    1 cycles

  Exact polarizability: 233.137  34.778 196.474  29.051  -9.907 129.973
 Approx polarizability: 358.704  70.924 308.802  70.300 -13.507 237.698

                      1                      2                      3
                      A                      A                      A
 Frequencies --     24.6394                28.5883                38.1976
 Red. masses --      7.3912                 6.3219                 6.0832
 Frc consts  --      0.0026                 0.0030                 0.0052
 IR Inten    --      0.6262                 0.5542                 3.7103

                      4                      5                      6
                      A                      A                      A
 Frequencies --     48.9438                61.3974                68.5789
 Red. masses --      6.2487                 4.8562                 5.4367
 Frc consts  --      0.0088                 0.0108                 0.0151
 IR Inten    --      0.5444                 4.3228                 2.7043

                      7                      8                      9
                      A                      A                      A
 Frequencies --     84.6235               104.0912               117.3988
 Red. masses --      8.4356                 8.2875                 4.1536
 Frc consts  --      0.0356                 0.0529                 0.0337
 IR Inten    --      0.5613                 2.0625                 4.0827

                     10                     11                     12
                      A                      A                      A
 Frequencies --    137.7959               150.4972               180.9541
 Red. masses --      3.1637                 2.8862                 4.4282
 Frc consts  --      0.0354                 0.0385                 0.0854
 IR Inten    --      3.4157                 3.1663                 1.9646

                     13                     14                     15
                      A                      A                      A
 Frequencies --    193.7885               212.4676               225.3693
 Red. masses --      6.7945                 2.5171                 1.6946
 Frc consts  --      0.1503                 0.0669                 0.0507
 IR Inten    --      4.1227                 0.7977                 3.8149

                     16                     17                     18
                      A                      A                      A
 Frequencies --    230.9175               269.0050               295.7092
 Red. masses --      7.1028                 4.0552                 2.4750
 Frc consts  --      0.2231                 0.1729                 0.1275
 IR Inten    --      0.1219                 0.2724                 7.4971

                     19                     20                     21
                      A                      A                      A
 Frequencies --    302.2044               317.9815               353.4005
 Red. masses --      4.9944                 4.5162                 3.6748
 Frc consts  --      0.2687                 0.2690                 0.2704
 IR Inten    --      3.2298                 2.2749                 3.2818

                     22                     23                     24
                      A                      A                      A
 Frequencies --    387.6813               403.5882               424.2333
 Red. masses --      5.3508                 5.4377                 3.5939
 Frc consts  --      0.4738                 0.5218                 0.3811
 IR Inten    --      6.4102                 5.1731                19.0892

                     25                     26                     27
                      A                      A                      A
 Frequencies --    458.1894               481.1866               510.4373
 Red. masses --      4.0991                 5.2670                 4.1369
 Frc consts  --      0.5070                 0.7185                 0.6350
 IR Inten    --      2.3119                15.4502                 6.1361

                     28                     29                     30
                      A                      A                      A
 Frequencies --    537.4291               542.3595               582.2452
 Red. masses --      4.5165                 5.1248                 1.3374
 Frc consts  --      0.7686                 0.8882                 0.2671
 IR Inten    --      4.6394                 3.7655                50.4115

                     31                     32                     33
                      A                      A                      A
 Frequencies --    586.4511               614.9434               628.6704
 Red. masses --      4.6485                 4.9401                 2.9129
 Frc consts  --      0.9419                 1.1007                 0.6783
 IR Inten    --     53.5860                62.8770                21.8930

                     34                     35                     36
                      A                      A                      A
 Frequencies --    637.6007               704.8963               705.8515
 Red. masses --      3.1559                 6.7907                 2.7829
 Frc consts  --      0.7559                 1.9880                 0.8169
 IR Inten    --     30.3632                 1.8060                29.8416

                     37                     38                     39
                      A                      A                      A
 Frequencies --    728.3571               736.8518               748.3371
 Red. masses --      1.6072                 4.8871                 3.3929
 Frc consts  --      0.5024                 1.5634                 1.1195
 IR Inten    --      9.4487                22.7187                30.1042

                     40                     41                     42
                      A                      A                      A
 Frequencies --    785.3654               804.7455               810.8064
 Red. masses --      2.3571                 1.7567                 1.4388
 Frc consts  --      0.8566                 0.6703                 0.5573
 IR Inten    --     20.7764               163.5397                26.4882

                     43                     44                     45
                      A                      A                      A
 Frequencies --    846.8978               858.8393               898.6953
 Red. masses --      4.7610                 2.2685                 1.3114
 Frc consts  --      2.0119                 0.9859                 0.6241
 IR Inten    --     21.7793                24.7830                 2.4195

                     46                     47                     48
                      A                      A                      A
 Frequencies --    902.9000               928.1270               962.5642
 Red. masses --      2.0819                 4.1454                 1.9441
 Frc consts  --      1.0000                 2.1040                 1.0613
 IR Inten    --     12.1648                16.2130                 6.9465

                     49                     50                     51
                      A                      A                      A
 Frequencies --    988.5003              1001.6496              1008.9085
 Red. masses --      2.4400                 2.0268                 2.4666
 Frc consts  --      1.4047                 1.1981                 1.4793
 IR Inten    --     12.3190                 6.5481                26.5254

                     52                     53                     54
                      A                      A                      A
 Frequencies --   1051.5293              1071.8237              1075.8393
 Red. masses --      1.1376                 2.7142                 1.8722
 Frc consts  --      0.7411                 1.8371                 1.2767
 IR Inten    --     27.3223                18.1098                20.7622

                     55                     56                     57
                      A                      A                      A
 Frequencies --   1088.3616              1114.7744              1136.6756
 Red. masses --      2.1316                 3.0570                 1.4314
 Frc consts  --      1.4876                 2.2383                 1.0896
 IR Inten    --      1.4755               117.1902                 5.4361

                     58                     59                     60
                      A                      A                      A
 Frequencies --   1161.3067              1196.4958              1204.2597
 Red. masses --      2.6886                 1.7892                 1.3996
 Frc consts  --      2.1363                 1.5092                 1.1959
 IR Inten    --     26.0348               203.5142               121.8288

                     61                     62                     63
                      A                      A                      A
 Frequencies --   1260.3919              1283.4577              1285.4647
 Red. masses --      1.8819                 1.6988                 1.4799
 Frc consts  --      1.7614                 1.6487                 1.4408
 IR Inten    --     55.6744                56.5360                18.8786

                     64                     65                     66
                      A                      A                      A
 Frequencies --   1295.3586              1305.7071              1347.5170
 Red. masses --      1.4157                 2.1922                 1.5632
 Frc consts  --      1.3996                 2.2020                 1.6724
 IR Inten    --     11.0848                80.3955                93.1187

                     67                     68                     69
                      A                      A                      A
 Frequencies --   1348.7544              1353.6019              1367.5308
 Red. masses --      1.4444                 1.3825                 2.0245
 Frc consts  --      1.5481                 1.4925                 2.2307
 IR Inten    --     10.9856                 2.6232                95.7266

                     70                     71                     72
                      A                      A                      A
 Frequencies --   1396.9496              1427.7334              1441.1762
 Red. masses --      2.6882                 1.6019                 2.2618
 Frc consts  --      3.0908                 1.9239                 2.7678
 IR Inten    --    168.1382                22.6473                25.9359

                     73                     74                     75
                      A                      A                      A
 Frequencies --   1442.6644              1478.6998              1482.8800
 Red. masses --      1.4805                 1.7608                 1.3475
 Frc consts  --      1.8154                 2.2684                 1.7458
 IR Inten    --      7.3865                82.7239                28.8656

                     76                     77                     78
                      A                      A                      A
 Frequencies --   1492.0710              1497.6208              1519.0213
 Red. masses --      1.9809                 1.0921                 1.1523
 Frc consts  --      2.5984                 1.4431                 1.5665
 IR Inten    --      4.9057                12.8929                23.1279

                     79                     80                     81
                      A                      A                      A
 Frequencies --   1527.8097              1531.2428              1574.6263
 Red. masses --      1.0389                 1.0507                 6.4133
 Frc consts  --      1.4288                 1.4515                 9.3689
 IR Inten    --     10.5398                 4.4179                 5.9186

                     82                     83                     84
                      A                      A                      A
 Frequencies --   1696.4330              1739.7173              1820.9578
 Red. masses --      5.7964                 8.0911                 9.1147
 Frc consts  --      9.8284                14.4283                17.8071
 IR Inten    --     48.0924               290.1751               487.0961

                     85                     86                     87
                      A                      A                      A
 Frequencies --   3066.7149              3086.5641              3094.2624
 Red. masses --      1.0362                 1.0612                 1.0589
 Frc consts  --      5.7419                 5.9568                 5.9732
 IR Inten    --      9.5271                 8.2626                 2.0292

                     88                     89                     90
                      A                      A                      A
 Frequencies --   3119.4283              3129.9168              3144.2940
 Red. masses --      1.0610                 1.1007                 1.1051
 Frc consts  --      6.0828                 6.3532                 6.4374
 IR Inten    --      7.2687                26.1778                 9.9520

                     91                     92                     93
                      A                      A                      A
 Frequencies --   3150.3521              3159.3945              3168.1099
 Red. masses --      1.1055                 1.1043                 1.1064
 Frc consts  --      6.4645                 6.4943                 6.5430
 IR Inten    --      1.0925                 0.4823                 4.3280

                     94                     95                     96
                      A                      A                      A
 Frequencies --   3213.3125              3224.1988              3236.3153
 Red. masses --      1.0929                 1.0878                 1.0900
 Frc consts  --      6.6485                 6.6624                 6.7264
 IR Inten    --      1.3148                 2.2208                 3.1377

                     97                     98                     99
                      A                      A                      A
 Frequencies --   3272.3531              3550.6894              3704.6720
 Red. masses --      1.0976                 1.0752                 1.0643
 Frc consts  --      6.9250                 7.9866                 8.6063
 IR Inten    --      0.2143                53.2244                86.4006

 - Thermochemistry -
 -------------------
 Temperature   298.150 Kelvin.  Pressure   1.00000 Atm.
 Atom     1 has atomic number  6 and mass  12.00000

 Molecular mass:   317.03917 amu.
 Principal axes and moments of inertia in atomic units:
                           1         2         3
     Eigenvalues --  4584.81146********************
           X            0.99995   0.01006   0.00133
           Y           -0.01004   0.99981  -0.01673
           Z           -0.00150   0.01671   0.99986
 This molecule is an asymmetric top.
 Rotational symmetry number  1.
 Warning -- assumption of classical behavior for rotation
           may cause significant error
 Rotational temperatures (Kelvin)      0.01889     0.00856     0.00671
 Rotational constants (GHZ):           0.39363     0.17831     0.13977
 Zero-point vibrational energy     705814.0 (Joules/Mol)
                                  168.69360 (Kcal/Mol)
 Warning -- explicit consideration of  32 degrees of freedom as
           vibrations may cause significant error
 Vibrational temperatures:     35.45    41.13    54.96    70.42    88.34
          (Kelvin)             98.67   121.75   149.76   168.91   198.26
                              216.53   260.35   278.82   305.69   324.26
                              332.24   387.04   425.46   434.80   457.50
                              508.46   557.79   580.67   610.38   659.23
                              692.32   734.41   773.24   780.33   837.72
                              843.77   884.77   904.52   917.37  1014.19
                             1015.56  1047.94  1060.17  1076.69  1129.97
                             1157.85  1166.57  1218.50  1235.68  1293.02
                             1299.07  1335.37  1384.92  1422.23  1441.15
                             1451.59  1512.92  1542.12  1547.89  1565.91
                             1603.91  1635.42  1670.86  1721.49  1732.66
                             1813.42  1846.61  1849.50  1863.73  1878.62
                             1938.78  1940.56  1947.53  1967.57  2009.90
                             2054.19  2073.53  2075.67  2127.52  2133.53
                             2146.76  2154.74  2185.53  2198.18  2203.12
                             2265.54  2440.79  2503.07  2619.95  4412.32
                             4440.88  4451.95  4488.16  4503.25  4523.94
                             4532.65  4545.66  4558.20  4623.24  4638.90
                             4656.34  4708.19  5108.65  5330.20

 Zero-point correction=                           0.268830 (Hartree/Particle)
 Thermal correction to Energy=                    0.289393
 Thermal correction to Enthalpy=                  0.290337
 Thermal correction to Gibbs Free Energy=         0.217061
 Sum of electronic and zero-point Energies=          -1693.313377
 Sum of electronic and thermal Energies=             -1693.292814
 Sum of electronic and thermal Enthalpies=           -1693.291870
 Sum of electronic and thermal Free Energies=        -1693.365146

                     E (Thermal)             CV                S
                      KCal/Mol        Cal/Mol-Kelvin    Cal/Mol-Kelvin
 Total                  181.597             75.247            154.222
 Electronic               0.000              0.000              0.000
 Translational            0.889              2.981             43.157
 Rotational               0.889              2.981             34.748
 Vibrational            179.819             69.285             76.316
 Vibration     1          0.593              1.985              6.220
 Vibration     2          0.593              1.984              5.925
 Vibration     3          0.594              1.982              5.350
 Vibration     4          0.595              1.978              4.860
 Vibration     5          0.597              1.973              4.412
 Vibration     6          0.598              1.969              4.194
 Vibration     7          0.601              1.960              3.781
 Vibration     8          0.605              1.946              3.376
 Vibration     9          0.608              1.935              3.143
 Vibration    10          0.614              1.916              2.834
 Vibration    11          0.618              1.902              2.666
 Vibration    12          0.630              1.866              2.319
 Vibration    13          0.635              1.849              2.191
 Vibration    14          0.644              1.822              2.022
 Vibration    15          0.650              1.802              1.916
 Vibration    16          0.653              1.794              1.872
 Vibration    17          0.673              1.730              1.603
 Vibration    18          0.690              1.682              1.441
 Vibration    19          0.694              1.670              1.405
 Vibration    20          0.704              1.639              1.320
 Vibration    21          0.730              1.568              1.151
 Vibration    22          0.756              1.496              1.009
 Vibration    23          0.769              1.462              0.950
 Vibration    24          0.786              1.418              0.878
 Vibration    25          0.816              1.343              0.771
 Vibration    26          0.837              1.292              0.707
 Vibration    27          0.866              1.227              0.633
 Vibration    28          0.892              1.167              0.571
 Vibration    29          0.897              1.156              0.560
 Vibration    30          0.939              1.070              0.481
 Vibration    31          0.944              1.061              0.474
 Vibration    32          0.974              1.000              0.425

                           ! Non-Optimized Parameters !
 Normal termination of Gaussian 16 at Sun Dec 13 17:10:48 2020.

 ----------------------------------------------------------------------
 # B3LYP/6-311++G(d,p) empiricaldispersion=gd3bj scf=xqc pop=npa geom=c
 heck
 ----------------------------------------------------------------------

 ----------------------------------------
 CID_105785054_JID_10272_Energie_neutraal
 ----------------------------------------
 Structure from the checkpoint file:  "JID_10272.chk"
 Charge =  0 Multiplicity = 1

 SCF Done:  E(RB3LYP) =  -1693.90520710     A.U. after   17 cycles
 Normal termination of Gaussian 16 at Sun Dec 13 17:21:02 2020.

 ----------------------------------------------------------------------
 # B3LYP/6-311++G(d,p) empiricaldispersion=gd3bj scf=xqc pop=npa geom=c
 heck
 ----------------------------------------------------------------------

 --------------------------------------
 CID_105785054_JID_10272_Energie_kation
 --------------------------------------
 Structure from the checkpoint file:  "JID_10272.chk"
 Charge =  1 Multiplicity = 2

 SCF Done:  E(UB3LYP) =  -1693.57943408     A.U. after   33 cycles
 SCF Done:  E(UB3LYP) =  -1693.57943408     a.u. after    1 cycles
 Normal termination of Gaussian 16 at Sun Dec 13 17:49:55 2020.
 Gaussian 16:  ES64L-G16RevA.03 25-Dec-2016

 ----------------------------------------------------------------------
 # B3LYP/6-311++G(d,p) empiricaldispersion=gd3bj scf=xqc pop=npa geom=c
 heck
 ----------------------------------------------------------------------

 -------------------------------------
 CID_105785054_JID_10272_Energie_anion
 -------------------------------------
 Structure from the checkpoint file:  "JID_10272.chk"
 Charge = -1 Multiplicity = 2

                         Standard orientation:
 ---------------------------------------------------------------------
 Center     Atomic      Atomic             Coordinates (Angstroms)
 Number     Number       Type             X           Y           Z
 ---------------------------------------------------------------------
      1          6           0        3.859433    1.293036   -0.397315
      2          6           0        3.626765    0.088302    0.506419
      3         16           0        3.068773   -1.394002   -0.384301
      4          8           0        3.993151   -1.618706   -1.508090
      5          8           0        2.838787   -2.448880    0.625184
      6          6           0        1.438099   -0.980183   -1.113387
      7          6           0        0.271893   -1.401497   -0.219168
      8          7           0        0.304724   -0.790624    1.110917
      9          6           0        0.281105    0.566078    1.344440
     10          8           0        0.943701    1.078181    2.245218
     11          6           0       -0.563533    1.403781    0.457021
     12          6           0       -1.831986    1.195506   -0.071559
     13          6           0       -2.269831    2.322093   -0.846659
     14          6           0       -1.356797    3.335331   -0.882037
     15         16           0        0.059628    2.974085    0.045885
     16          6           0       -2.624786    0.002718    0.188911
     17          6           0       -3.762043   -0.326842   -0.451852
     18          6           0       -4.540235   -1.541576   -0.158451
     19          8           0       -5.576546   -1.837289   -0.720006
     20          8           0       -3.986567   -2.322263    0.808165
     21          1           0        4.515792    1.034467   -1.232298
     22          1           0        4.330420    2.091721    0.184042
     23          1           0        2.920618    1.691931   -0.795227
     24          1           0        4.558408   -0.259419    0.965632
     25          1           0        2.906662    0.291487    1.303105
     26          1           0        1.425269    0.090870   -1.334030
     27          1           0        1.427162   -1.526278   -2.061245
     28          1           0       -0.664215   -1.163646   -0.726392
     29          1           0        0.298673   -2.481351   -0.067071
     30          1           0        0.935385   -1.265967    1.751152
     31          1           0       -3.237150    2.376016   -1.331481
     32          1           0       -1.442433    4.286203   -1.390575
     33          1           0       -2.254105   -0.664925    0.960746
     34          1           0       -4.186745    0.283645   -1.241554
     35          1           0       -4.589945   -3.080544    0.911497
 ---------------------------------------------------------------------

 SCF Done:  E(UB3LYP) =  -1693.95598099     A.U. after   26 cycles

 The electronic state is 2-A.
 Alpha  occ. eigenvalues --  -88.95578 -88.75363 -19.04249 -19.02809 -19.02737
 Alpha  occ. eigenvalues --  -18.97287 -18.97137 -14.22444 -10.16020 -10.15528
 Alpha  occ. eigenvalues --  -10.12414 -10.12342 -10.12152 -10.09763 -10.08715
 Alpha  occ. eigenvalues --  -10.06875 -10.06572 -10.06092 -10.04600 -10.03377
 Alpha  occ. eigenvalues --   -8.02121  -7.84023  -5.98387  -5.98268  -5.98208
 Alpha  occ. eigenvalues --   -5.80317  -5.79948  -5.79645  -1.01855  -0.97807
 Alpha  occ. eigenvalues --   -0.92651  -0.91644  -0.88519  -0.81998  -0.76702
 Alpha  occ. eigenvalues --   -0.72503  -0.69214  -0.67566  -0.62809  -0.61333
 Alpha  occ. eigenvalues --   -0.60498  -0.57104  -0.53032  -0.51003  -0.49423
 Alpha  occ. eigenvalues --   -0.47073  -0.43794  -0.43173  -0.42319  -0.40990
 Alpha  occ. eigenvalues --   -0.39364  -0.39033  -0.38349  -0.37704  -0.36073
 Alpha  occ. eigenvalues --   -0.35394  -0.34785  -0.33507  -0.33405  -0.32785
 Alpha  occ. eigenvalues --   -0.32191  -0.31229  -0.30539  -0.29940  -0.29177
 Alpha  occ. eigenvalues --   -0.29086  -0.28618  -0.27509  -0.26829  -0.25523
 Alpha  occ. eigenvalues --   -0.24501  -0.24253  -0.23489  -0.22865  -0.22008
 Alpha  occ. eigenvalues --   -0.20400  -0.20286  -0.18551  -0.16461  -0.15137
 Alpha  occ. eigenvalues --   -0.14970  -0.13342  -0.11577   0.00544
 Alpha virt. eigenvalues --    0.06876   0.07852   0.08113   0.08209   0.08970
 Alpha virt. eigenvalues --    0.09247   0.10333   0.10651   0.10993   0.11588
 Alpha virt. eigenvalues --    0.11914   0.12776   0.12913   0.13287   0.13407

  Beta  occ. eigenvalues --  -88.95577 -88.75304 -19.04216 -19.02808 -19.02736
  Beta  occ. eigenvalues --  -18.97097 -18.96887 -14.22402 -10.15915 -10.15416
  Beta  occ. eigenvalues --  -10.12412 -10.12342 -10.12143 -10.09762 -10.08670
  Beta  occ. eigenvalues --  -10.06603 -10.06538 -10.05998 -10.04404 -10.03145
  Beta  occ. eigenvalues --   -8.02120  -7.83970  -5.98386  -5.98267  -5.98205
  Beta  occ. eigenvalues --   -5.80283  -5.79919  -5.79461  -1.01853  -0.97625
  Beta  occ. eigenvalues --   -0.92317  -0.91636  -0.88168  -0.81841  -0.76444
  Beta  occ. eigenvalues --   -0.72494  -0.69182  -0.67017  -0.62371  -0.60959
  Beta  occ. eigenvalues --   -0.60440  -0.57047  -0.52508  -0.50787  -0.49347
  Beta  occ. eigenvalues --   -0.46810  -0.43570  -0.43002  -0.42278  -0.40885
  Beta  occ. eigenvalues --   -0.39290  -0.38864  -0.38315  -0.37667  -0.35931
  Beta  occ. eigenvalues --   -0.35223  -0.34617  -0.33420  -0.33217  -0.32675
  Beta  occ. eigenvalues --   -0.31401  -0.31003  -0.30356  -0.29801  -0.28951
  Beta  occ. eigenvalues --   -0.28770  -0.28534  -0.27160  -0.26489  -0.25129
  Beta  occ. eigenvalues --   -0.24368  -0.24138  -0.23458  -0.22581  -0.22003
  Beta  occ. eigenvalues --   -0.20283  -0.19485  -0.17190  -0.16054  -0.14867
  Beta  occ. eigenvalues --   -0.14522  -0.12570  -0.09821
  Beta virt. eigenvalues --    0.06078   0.06889   0.07863   0.08209   0.08940
  Beta virt. eigenvalues --    0.09224   0.09409   0.10375   0.10655   0.11007
  Beta virt. eigenvalues --    0.11717   0.12135   0.12793   0.13075   0.13416

 Mulliken charges and spin densities:
               1          2
     1  C   -0.464487   0.001257
     2  C   -0.536593  -0.007829
     3  S    0.310465  -0.002670
     4  O   -0.189378   0.000790
     5  O   -0.215492   0.000103
     6  C   -0.687071  -0.004241
     7  C   -0.087126   0.011211
     8  N   -0.212620   0.016490
     9  C   -0.791809   0.051145
    10  O   -0.318819   0.061036
    11  C    0.905096   0.232787
    12  C    0.556067   0.087297
    13  C   -0.454153  -0.034169
    14  C   -0.129187   0.018223
    15  S   -0.434698   0.131409
    16  C   -0.573518   0.096406
    17  C   -0.184267   0.152788
    18  C   -0.177989   0.106730
    19  O   -0.384062   0.082079
    20  O   -0.221291   0.007348
    21  H    0.166625   0.000426
    22  H    0.140386   0.000527
    23  H    0.156119  -0.000247
    24  H    0.244379  -0.000717
    25  H    0.287548   0.009161
    26  H    0.225581   0.001116
    27  H    0.261271  -0.001456
    28  H    0.175317   0.006364
    29  H    0.219353   0.000932
    30  H    0.352422  -0.000219
    31  H    0.088632   0.001908
    32  H    0.218309  -0.001556
    33  H    0.294560  -0.010890
    34  H    0.194998  -0.013354
    35  H    0.265434  -0.000185
 Sum of Mulliken charges =  -1.00000   1.00000

 Dipole moment (field-independent basis, Debye):
    X=              5.9450    Y=              1.7494    Z=             -1.6722  Tot=              6.4187
 Quadrupole moment (field-independent basis, Debye-Ang):
   XX=           -211.7041   YY=           -157.4428   ZZ=           -152.2024
   XY=              3.1433   XZ=             -3.7154   YZ=            -11.3862

 Summary of Natural Population Analysis:

                                       Natural Population
                Natural  -----------------------------------------------
    Atom  No    Charge         Core      Valence    Rydberg      Total
 -----------------------------------------------------------------------
      C    1   -0.29906      0.99966     2.29386    0.00554     3.29906
      C    2   -0.29557      0.99958     2.28563    0.01036     3.29557
      S    3    1.01121      4.99930     1.89488    0.09461     6.98879
      O    4   -0.47437      0.99991     3.46857    0.00589     4.47437
      O    5   -0.47616      0.99991     3.47016    0.00609     4.47616
      C    6   -0.29346      0.99957     2.28482    0.00906     3.29346
      C    7   -0.10107      0.99961     2.09096    0.01051     3.10107
      N    8   -0.32420      0.99968     2.81149    0.01303     3.82420
      C    9    0.33678      0.99958     1.63987    0.02377     2.66322
      O   10   -0.31008      0.99988     3.30462    0.00558     4.31008
      C   11   -0.07949      0.99941     2.06519    0.01489     3.07949
      C   12   -0.03978      0.99945     2.02907    0.01125     3.03978
      C   13   -0.12360      0.99950     2.11521    0.00888     3.12360
      C   14   -0.19284      0.99955     2.18249    0.01080     3.19284
      S   15    0.22995      4.99942     2.74847    0.02215     7.77005
      C   16   -0.04577      0.99952     2.03745    0.00880     3.04577
      C   17   -0.11144      0.99948     2.10311    0.00885     3.11144
      C   18    0.39443      0.99969     1.58159    0.02429     2.60557
      O   19   -0.30314      0.99987     3.29625    0.00701     4.30314
      O   20   -0.35657      0.99988     3.34869    0.00801     4.35657
      H   21    0.10521      0.00000     0.39365    0.00114     0.39479
      H   22    0.10547      0.00000     0.39366    0.00087     0.39453
      H   23    0.10701      0.00000     0.39169    0.00130     0.39299
      H   24    0.11123      0.00000     0.38744    0.00133     0.38877
      H   25    0.13252      0.00000     0.36571    0.00177     0.36748
      H   26    0.11882      0.00000     0.37993    0.00126     0.38118
      H   27    0.11717      0.00000     0.38166    0.00117     0.38283
      H   28    0.11831      0.00000     0.38049    0.00120     0.38169
      H   29    0.10570      0.00000     0.39326    0.00104     0.39430
      H   30    0.19451      0.00000     0.30381    0.00168     0.30549
      H   31    0.10367      0.00000     0.39528    0.00105     0.39633
      H   32    0.10186      0.00000     0.39724    0.00090     0.39814
      H   33    0.10693      0.00000     0.39142    0.00166     0.39307
      H   34    0.09305      0.00000     0.40562    0.00133     0.40695
      H   35    0.23279      0.00000     0.26432    0.00289     0.26721
 =======================================================================
   * Total *   -0.00000     27.99246    54.67757    0.32997    83.00000

 Normal termination of Gaussian 16 at Sun Dec 13 18:13:01 2020.
