 Gaussian 16, Revision A.03,

 -----------------------------------------------------------
 # opt freq B3LYP/6-31G(d) empiricaldispersion=gd3bj scf=xqc
 -----------------------------------------------------------

 --------------------------------
 CID_152076683_JID_10541_neutraal
 --------------------------------
 Symbolic Z-matrix:
 Charge =  0 Multiplicity = 1

 SCF Done:  E(RB3LYP) =  -893.911551334     A.U. after   19 cycles
 SCF Done:  E(RB3LYP) =  -893.916870450     A.U. after   15 cycles
 SCF Done:  E(RB3LYP) =  -893.918266647     A.U. after   14 cycles
 SCF Done:  E(RB3LYP) =  -893.919725368     A.U. after   14 cycles
 SCF Done:  E(RB3LYP) =  -893.920059714     A.U. after   15 cycles
 SCF Done:  E(RB3LYP) =  -893.919887309     A.U. after   14 cycles
 SCF Done:  E(RB3LYP) =  -893.921359696     A.U. after   13 cycles
 SCF Done:  E(RB3LYP) =  -893.922161204     A.U. after   14 cycles
 SCF Done:  E(RB3LYP) =  -893.922029072     A.U. after   14 cycles
 SCF Done:  E(RB3LYP) =  -893.922803532     A.U. after   14 cycles
 SCF Done:  E(RB3LYP) =  -893.927638780     A.U. after   12 cycles
 SCF Done:  E(RB3LYP) =  -893.927651928     A.U. after   10 cycles
 SCF Done:  E(RB3LYP) =  -893.927655697     A.U. after   10 cycles
 SCF Done:  E(RB3LYP) =  -893.927656488     A.U. after    8 cycles
 SCF Done:  E(RB3LYP) =  -893.927657219     A.U. after    9 cycles
 SCF Done:  E(RB3LYP) =  -893.927657294     A.U. after    8 cycles
 Optimization completed.
    -- Stationary point found.
 Normal termination of Gaussian 16 at Sat Dec 12 16:17:36 2020.

 --------------------------------------------------------------------
 #N Geom=AllCheck Guess=TCheck SCRF=Check GenChk RB3LYP/6-31G(d) Freq
 --------------------------------------------------------------------

 Structure from the checkpoint file:  "JID_10541.chk"
 --------------------------------
 CID_152076683_JID_10541_neutraal
 --------------------------------
 Charge =  0 Multiplicity = 1

 SCF Done:  E(RB3LYP) =  -893.927657294     A.U. after    1 cycles

  Exact polarizability: 227.727 -22.796 214.922  19.350   2.234 124.261
 Approx polarizability: 345.154 -74.529 357.947  59.072  -7.945 208.391

                      1                      2                      3
                      A                      A                      A
 Frequencies --     35.6710                42.6280                69.3697
 Red. masses --      4.3841                 5.2155                 4.1717
 Frc consts  --      0.0033                 0.0056                 0.0118
 IR Inten    --      0.0616                 1.2759                 0.2729

                      4                      5                      6
                      A                      A                      A
 Frequencies --     85.7547                93.3114               125.8655
 Red. masses --      4.7751                 6.9223                 4.3678
 Frc consts  --      0.0207                 0.0355                 0.0408
 IR Inten    --      0.8609                 2.7870                 2.1483

                      7                      8                      9
                      A                      A                      A
 Frequencies --    127.8728               143.0076               159.1796
 Red. masses --      1.0794                 4.4526                 4.4924
 Frc consts  --      0.0104                 0.0537                 0.0671
 IR Inten    --      0.5182                 1.0650                 0.4578

                     10                     11                     12
                      A                      A                      A
 Frequencies --    191.9247               203.7139               215.4794
 Red. masses --      3.9069                 2.5840                 1.7129
 Frc consts  --      0.0848                 0.0632                 0.0469
 IR Inten    --      2.8477                 5.0914                 0.6453

                     13                     14                     15
                      A                      A                      A
 Frequencies --    228.8582               240.6175               261.9095
 Red. masses --      3.1216                 1.8169                 1.3671
 Frc consts  --      0.0963                 0.0620                 0.0553
 IR Inten    --      0.3158                 0.3240                 0.0051

                     16                     17                     18
                      A                      A                      A
 Frequencies --    293.2867               295.8727               328.9227
 Red. masses --      4.3558                 1.6681                 2.8624
 Frc consts  --      0.2207                 0.0860                 0.1825
 IR Inten    --      4.0284                 0.2976                 1.1050

                     19                     20                     21
                      A                      A                      A
 Frequencies --    355.2274               372.3607               391.2068
 Red. masses --      2.9662                 4.0632                 4.5060
 Frc consts  --      0.2205                 0.3319                 0.4063
 IR Inten    --      3.4235                 2.2282                 0.3156

                     22                     23                     24
                      A                      A                      A
 Frequencies --    404.8693               414.1152               418.7059
 Red. masses --      3.2608                 2.1179                 2.1703
 Frc consts  --      0.3149                 0.2140                 0.2242
 IR Inten    --      2.2785                 0.1240                 0.0294

                     25                     26                     27
                      A                      A                      A
 Frequencies --    460.4225               479.2506               499.9902
 Red. masses --      3.0015                 3.3067                 3.4821
 Frc consts  --      0.3749                 0.4475                 0.5129
 IR Inten    --      3.9420                 1.9449                 2.5781

                     28                     29                     30
                      A                      A                      A
 Frequencies --    538.7298               551.1557               558.5205
 Red. masses --     12.6719                 6.1634                 4.0689
 Frc consts  --      2.1669                 1.1031                 0.7478
 IR Inten    --      9.9174                 4.9117                 2.1163

                     31                     32                     33
                      A                      A                      A
 Frequencies --    579.3696               604.6760               627.9627
 Red. masses --      3.5958                 4.6299                 2.7066
 Frc consts  --      0.7112                 0.9974                 0.6288
 IR Inten    --      3.7120                 7.9106                 5.9754

                     34                     35                     36
                      A                      A                      A
 Frequencies --    648.0779               713.4238               754.9637
 Red. masses --      6.2910                 3.2214                 6.0726
 Frc consts  --      1.5568                 0.9660                 2.0393
 IR Inten    --      3.9533                 1.7103                19.4242

                     37                     38                     39
                      A                      A                      A
 Frequencies --    772.8242               791.2678               813.8280
 Red. masses --      5.2984                 5.6169                 1.6264
 Frc consts  --      1.8645                 2.0720                 0.6347
 IR Inten    --      6.0470                32.1552                 1.0479

                     40                     41                     42
                      A                      A                      A
 Frequencies --    842.0589               872.7253               895.2275
 Red. masses --      4.0953                 1.3844                 2.0035
 Frc consts  --      1.7109                 0.6213                 0.9460
 IR Inten    --      3.6726                15.4177                 0.9565

                     43                     44                     45
                      A                      A                      A
 Frequencies --    927.2014               958.9941               981.5802
 Red. masses --      2.3868                 1.5784                 2.2305
 Frc consts  --      1.2090                 0.8553                 1.2662
 IR Inten    --      1.0844                 6.8638                48.2297

                     46                     47                     48
                      A                      A                      A
 Frequencies --    996.5568              1010.6629              1017.2192
 Red. masses --      1.4494                 1.9996                 1.8918
 Frc consts  --      0.8481                 1.2034                 1.1533
 IR Inten    --      2.2107                25.3661                12.5562

                     49                     50                     51
                      A                      A                      A
 Frequencies --   1019.1336              1026.1737              1041.1009
 Red. masses --      1.8269                 2.8110                 2.3225
 Frc consts  --      1.1179                 1.7440                 1.4832
 IR Inten    --      0.2520                10.7071                12.0651

                     52                     53                     54
                      A                      A                      A
 Frequencies --   1050.7470              1069.5898              1071.1232
 Red. masses --      1.7873                 1.6119                 1.5588
 Frc consts  --      1.1626                 1.0865                 1.0537
 IR Inten    --     10.1427                 4.3089                 2.7677

                     55                     56                     57
                      A                      A                      A
 Frequencies --   1109.8760              1134.5298              1174.8480
 Red. masses --      2.2604                 6.0447                 3.2485
 Frc consts  --      1.6406                 4.5841                 2.6418
 IR Inten    --     45.7808                45.4669                18.5382

                     58                     59                     60
                      A                      A                      A
 Frequencies --   1207.3379              1210.4207              1219.6803
 Red. masses --      1.5680                 1.6934                 1.5771
 Frc consts  --      1.3467                 1.4618                 1.3823
 IR Inten    --      9.6535                22.2265                10.2190

                     61                     62                     63
                      A                      A                      A
 Frequencies --   1239.5916              1270.7791              1306.6820
 Red. masses --      2.6918                 1.6710                 1.8036
 Frc consts  --      2.4370                 1.5899                 1.8143
 IR Inten    --      4.2754                16.1336                 1.8157

                     64                     65                     66
                      A                      A                      A
 Frequencies --   1319.5342              1326.1830              1340.5999
 Red. masses --      2.1218                 4.2421                 1.6792
 Frc consts  --      2.1767                 4.3958                 1.7781
 IR Inten    --     23.1740                53.9355                 3.1257

                     67                     68                     69
                      A                      A                      A
 Frequencies --   1377.2684              1382.4109              1397.8895
 Red. masses --      5.0997                 1.3941                 1.2587
 Frc consts  --      5.6994                 1.5697                 1.4492
 IR Inten    --     68.4852                 1.2556                10.5444

                     70                     71                     72
                      A                      A                      A
 Frequencies --   1407.5392              1419.7480              1428.5648
 Red. masses --      1.5918                 2.1538                 1.3643
 Frc consts  --      1.8581                 2.5578                 1.6404
 IR Inten    --     13.1834               105.3054                10.5889

                     73                     74                     75
                      A                      A                      A
 Frequencies --   1431.1608              1436.7649              1450.5038
 Red. masses --      1.2641                 1.5071                 1.9998
 Frc consts  --      1.5255                 1.8330                 2.4790
 IR Inten    --     19.1513                47.0876                49.1189

                     76                     77                     78
                      A                      A                      A
 Frequencies --   1453.3475              1458.1341              1485.4026
 Red. masses --      1.3457                 2.0003                 1.6741
 Frc consts  --      1.6747                 2.5058                 2.1763
 IR Inten    --     20.2537                21.7004                38.5730

                     79                     80                     81
                      A                      A                      A
 Frequencies --   1503.1604              1507.9607              1509.4689
 Red. masses --      1.0894                 1.0780                 1.0478
 Frc consts  --      1.4503                 1.4443                 1.4066
 IR Inten    --      1.1912                 3.2872                 7.7144

                     82                     83                     84
                      A                      A                      A
 Frequencies --   1515.0479              1522.5283              1524.0835
 Red. masses --      1.0603                 1.3795                 1.1495
 Frc consts  --      1.4340                 1.8841                 1.5732
 IR Inten    --      5.5731                31.1077                11.6127

                     85                     86                     87
                      A                      A                      A
 Frequencies --   1527.4389              1530.9160              1541.3596
 Red. masses --      1.0679                 1.1558                 1.1007
 Frc consts  --      1.4679                 1.5961                 1.5408
 IR Inten    --      7.1601                10.8249                 7.2805

                     88                     89                     90
                      A                      A                      A
 Frequencies --   1545.8806              1588.4987              1624.1747
 Red. masses --      1.0601                 8.1239                 5.7151
 Frc consts  --      1.4926                12.0778                 8.8826
 IR Inten    --      4.2397                56.5040               155.9512

                     91                     92                     93
                      A                      A                      A
 Frequencies --   1821.8221              2266.9622              2882.1508
 Red. masses --     10.3942                13.9475                 1.0828
 Frc consts  --     20.3261                42.2314                 5.2994
 IR Inten    --    292.3067               652.6654               135.3267

                     94                     95                     96
                      A                      A                      A
 Frequencies --   3033.2394              3037.8807              3041.9827
 Red. masses --      1.0573                 1.0425                 1.0509
 Frc consts  --      5.7314                 5.6685                 5.7296
 IR Inten    --     18.3722                20.4264                26.3579

                     97                     98                     99
                      A                      A                      A
 Frequencies --   3048.3949              3052.1671              3059.2481
 Red. masses --      1.0632                 1.0479                 1.0382
 Frc consts  --      5.8213                 5.7514                 5.7250
 IR Inten    --     17.5775                25.1575                11.1382

                    100                    101                    102
                      A                      A                      A
 Frequencies --   3063.1042              3079.5373              3083.2962
 Red. masses --      1.0774                 1.0942                 1.0994
 Frc consts  --      5.9559                 6.1141                 6.1578
 IR Inten    --      6.0515                31.9898                66.7623

                    103                    104                    105
                      A                      A                      A
 Frequencies --   3105.8726              3108.9056              3112.4111
 Red. masses --      1.1026                 1.1020                 1.0999
 Frc consts  --      6.2667                 6.2753                 6.2776
 IR Inten    --      4.8205                44.7220                10.1436

                    106                    107                    108
                      A                      A                      A
 Frequencies --   3113.0854              3115.9234              3124.1723
 Red. masses --      1.1018                 1.0974                 1.0994
 Frc consts  --      6.2914                 6.2776                 6.3224
 IR Inten    --     53.5664                32.8724                30.0613

                    109                    110                    111
                      A                      A                      A
 Frequencies --   3142.6894              3169.8753              3222.7785
 Red. masses --      1.0985                 1.1015                 1.0892
 Frc consts  --      6.3924                 6.5212                 6.6654
 IR Inten    --     11.6967                 6.4849                 5.5798

 - Thermochemistry -
 -------------------
 Temperature   298.150 Kelvin.  Pressure   1.00000 Atm.
 Atom     1 has atomic number  6 and mass  12.00000

 Molecular mass:   273.15896 amu.
 Principal axes and moments of inertia in atomic units:
                           1         2         3
     Eigenvalues --  3925.528297094.800549879.87694
           X            0.99888   0.04721   0.00037
           Y           -0.04721   0.99883   0.01068
           Z            0.00014  -0.01068   0.99994
 This molecule is an asymmetric top.
 Rotational symmetry number  1.
 Warning -- assumption of classical behavior for rotation
           may cause significant error
 Rotational temperatures (Kelvin)      0.02206     0.01221     0.00877
 Rotational constants (GHZ):           0.45974     0.25438     0.18267
 Zero-point vibrational energy     854068.5 (Joules/Mol)
                                  204.12727 (Kcal/Mol)
 Warning -- explicit consideration of  32 degrees of freedom as
           vibrations may cause significant error
 Vibrational temperatures:     51.32    61.33    99.81   123.38   134.25
          (Kelvin)            181.09   183.98   205.76   229.02   276.14
                              293.10   310.03   329.28   346.19   376.83
                              421.97   425.69   473.25   511.09   535.74
                              562.86   582.52   595.82   602.42   662.45
                              689.53   719.37   775.11   792.99   803.59
                              833.58   869.99   903.50   932.44  1026.46
                             1086.22  1111.92  1138.46  1170.92  1211.53
                             1255.66  1288.03  1334.04  1379.78  1412.27
                             1433.82  1454.12  1463.55  1466.31  1476.44
                             1497.91  1511.79  1538.90  1541.11  1596.86
                             1632.34  1690.34  1737.09  1741.53  1754.85
                             1783.50  1828.37  1880.02  1898.52  1908.08
                             1928.82  1981.58  1988.98  2011.25  2025.13
                             2042.70  2055.39  2059.12  2067.18  2086.95
                             2091.04  2097.93  2137.16  2162.71  2169.62
                             2171.79  2179.82  2190.58  2192.82  2197.64
                             2202.65  2217.67  2224.18  2285.50  2336.83
                             2621.20  3261.65  4146.77  4364.15  4370.83
                             4376.73  4385.96  4391.39  4401.58  4407.12
                             4430.77  4436.18  4468.66  4473.02  4478.07
                             4479.04  4483.12  4494.99  4521.63  4560.74
                             4636.86

 Zero-point correction=                           0.325298 (Hartree/Particle)
 Thermal correction to Energy=                    0.344356
 Thermal correction to Enthalpy=                  0.345300
 Thermal correction to Gibbs Free Energy=         0.278372
 Sum of electronic and zero-point Energies=           -893.602360
 Sum of electronic and thermal Energies=              -893.583302
 Sum of electronic and thermal Enthalpies=            -893.582357
 Sum of electronic and thermal Free Energies=         -893.649286

                     E (Thermal)             CV                S
                      KCal/Mol        Cal/Mol-Kelvin    Cal/Mol-Kelvin
 Total                  216.086             73.223            140.862
 Electronic               0.000              0.000              0.000
 Translational            0.889              2.981             42.713
 Rotational               0.889              2.981             33.975
 Vibrational            214.309             67.262             64.174
 Vibration     1          0.594              1.982              5.486
 Vibration     2          0.595              1.980              5.133
 Vibration     3          0.598              1.969              4.171
 Vibration     4          0.601              1.959              3.755
 Vibration     5          0.602              1.954              3.589
 Vibration     6          0.611              1.927              3.008
 Vibration     7          0.611              1.925              2.978
 Vibration     8          0.616              1.910              2.763
 Vibration     9          0.621              1.892              2.560
 Vibration    10          0.634              1.851              2.209
 Vibration    11          0.639              1.835              2.099
 Vibration    12          0.645              1.817              1.997
 Vibration    13          0.652              1.797              1.888
 Vibration    14          0.658              1.778              1.798
 Vibration    15          0.669              1.743              1.649
 Vibration    16          0.688              1.686              1.455
 Vibration    17          0.690              1.681              1.440
 Vibration    18          0.712              1.618              1.265
 Vibration    19          0.731              1.565              1.143
 Vibration    20          0.744              1.529              1.070
 Vibration    21          0.759              1.489              0.996
 Vibration    22          0.770              1.460              0.945
 Vibration    23          0.778              1.440              0.912
 Vibration    24          0.782              1.430              0.896
 Vibration    25          0.818              1.338              0.765
 Vibration    26          0.836              1.296              0.712
 Vibration    27          0.855              1.250              0.658
 Vibration    28          0.894              1.164              0.568
 Vibration    29          0.906              1.137              0.542
 Vibration    30          0.914              1.121              0.527
 Vibration    31          0.936              1.076              0.487
 Vibration    32          0.963              1.022              0.442

 Optimization completed.
    -- Stationary point found.
 Normal termination of Gaussian 16 at Sat Dec 12 16:41:20 2020.

 ----------------------------------------------------------------------
 # B3LYP/6-311++G(d,p) empiricaldispersion=gd3bj scf=xqc pop=npa geom=c
 heck
 ----------------------------------------------------------------------

 ----------------------------------------
 CID_152076683_JID_10541_Energie_neutraal
 ----------------------------------------
 Structure from the checkpoint file:  "JID_10541.chk"
 Charge =  0 Multiplicity = 1

 SCF Done:  E(RB3LYP) =  -894.164390574     A.U. after   19 cycles
 Normal termination of Gaussian 16 at Sat Dec 12 16:54:50 2020.

 ----------------------------------------------------------------------
 # B3LYP/6-311++G(d,p) empiricaldispersion=gd3bj scf=xqc pop=npa geom=c
 heck
 ----------------------------------------------------------------------

 --------------------------------------
 CID_152076683_JID_10541_Energie_kation
 --------------------------------------
 Structure from the checkpoint file:  "JID_10541.chk"
 Charge =  1 Multiplicity = 2

 SCF Done:  E(UB3LYP) =  -893.876386867     A.U. after   29 cycles
 Normal termination of Gaussian 16 at Sat Dec 12 17:24:15 2020.
 Gaussian 16:  ES64L-G16RevA.03 25-Dec-2016

 ----------------------------------------------------------------------
 # B3LYP/6-311++G(d,p) empiricaldispersion=gd3bj scf=xqc pop=npa geom=c
 heck
 ----------------------------------------------------------------------

 -------------------------------------
 CID_152076683_JID_10541_Energie_anion
 -------------------------------------
 Structure from the checkpoint file:  "JID_10541.chk"
 Charge = -1 Multiplicity = 2

                         Standard orientation:
 ---------------------------------------------------------------------
 Center     Atomic      Atomic             Coordinates (Angstroms)
 Number     Number       Type             X           Y           Z
 ---------------------------------------------------------------------
      1          6           0        3.787863    1.642327    1.019721
      2          6           0        2.782301    0.658237    0.485100
      3          7           0        3.184794   -0.601197    0.322484
      4          6           0        2.308292   -1.477554   -0.195582
      5          6           0        0.990215   -1.157802   -0.513226
      6          6           0        0.518726    0.147707   -0.308658
      7          6           0        1.480108    1.084401    0.139541
      8          7           0        1.229420    2.468116    0.289067
      9          7           0        0.404665    3.038781   -0.441155
     10          7           0       -0.302995    3.731257   -1.005564
     11          7           0       -0.790696    0.556600   -0.571046
     12          6           0       -1.617717   -0.224469   -1.493891
     13          6           0       -2.436615   -1.331079   -0.811958
     14          6           0       -3.275392   -0.812461    0.378356
     15          6           0       -2.344423    0.008641    1.297443
     16          6           0       -1.574340    1.104397    0.552511
     17          6           0       -4.452429    0.047452   -0.117109
     18          6           0       -3.836119   -2.007883    1.161396
     19          6           0        2.765699   -2.878356   -0.416231
     20          8           0        3.870406   -3.304595   -0.163187
     21          1           0        4.707028    1.107986    1.264703
     22          1           0        4.009138    2.419369    0.279006
     23          1           0        3.410827    2.154569    1.911720
     24          1           0        0.328462   -1.931363   -0.885380
     25          1           0       -0.971674   -0.636170   -2.273912
     26          1           0       -2.294114    0.483411   -1.989413
     27          1           0       -1.760248   -2.112734   -0.444039
     28          1           0       -3.091846   -1.804201   -1.555008
     29          1           0       -2.926678    0.464284    2.109177
     30          1           0       -1.616766   -0.667184    1.767000
     31          1           0       -0.900236    1.614877    1.242255
     32          1           0       -2.258708    1.858758    0.147906
     33          1           0       -5.040224    0.419385    0.730151
     34          1           0       -4.130399    0.915946   -0.699973
     35          1           0       -5.119984   -0.546026   -0.752561
     36          1           0       -3.028742   -2.644257    1.542659
     37          1           0       -4.432095   -1.670899    2.017964
     38          1           0       -4.481507   -2.626124    0.525865
     39          1           0        1.981179   -3.539103   -0.853608
 ---------------------------------------------------------------------

 SCF Done:  E(UB3LYP) =  -894.191579753     A.U. after   31 cycles

 The electronic state is 2-A.
 Alpha  occ. eigenvalues --  -18.93390 -14.34998 -14.25099 -14.24375 -14.21236
 Alpha  occ. eigenvalues --  -14.14953 -10.10472 -10.10400 -10.10086 -10.08529
 Alpha  occ. eigenvalues --  -10.08422 -10.08389 -10.08057 -10.07856 -10.07662
 Alpha  occ. eigenvalues --  -10.07407 -10.07107 -10.04439 -10.04247 -10.03756
 Alpha  occ. eigenvalues --   -1.01656  -0.87179  -0.86442  -0.83879  -0.79539
 Alpha  occ. eigenvalues --   -0.74649  -0.67230  -0.66908  -0.65767  -0.61937
 Alpha  occ. eigenvalues --   -0.61313  -0.58309  -0.55709  -0.54558  -0.52031
 Alpha  occ. eigenvalues --   -0.47452  -0.45301  -0.44737  -0.42292  -0.39901
 Alpha  occ. eigenvalues --   -0.39377  -0.38400  -0.37908  -0.36797  -0.36290
 Alpha  occ. eigenvalues --   -0.35675  -0.35537  -0.33315  -0.32975  -0.32021
 Alpha  occ. eigenvalues --   -0.31335  -0.30845  -0.30603  -0.29706  -0.29171
 Alpha  occ. eigenvalues --   -0.28700  -0.28464  -0.26617  -0.26421  -0.26012
 Alpha  occ. eigenvalues --   -0.25940  -0.25322  -0.24576  -0.23618  -0.22732
 Alpha  occ. eigenvalues --   -0.22523  -0.19482  -0.18037  -0.16281  -0.11633
 Alpha  occ. eigenvalues --   -0.11159  -0.09226  -0.08709   0.02985
 Alpha virt. eigenvalues --    0.05633   0.07569   0.07732   0.08119   0.08907
 Alpha virt. eigenvalues --    0.09697   0.10109   0.10284   0.10422   0.10671
 Alpha virt. eigenvalues --    0.11150   0.11803   0.12145   0.12916   0.13031

  Beta  occ. eigenvalues --  -18.92867 -14.34772 -14.24816 -14.24521 -14.21230
  Beta  occ. eigenvalues --  -14.14719 -10.10468 -10.10400 -10.10075 -10.08430
  Beta  occ. eigenvalues --  -10.08420 -10.08388 -10.08057 -10.07855 -10.07750
  Beta  occ. eigenvalues --  -10.07106 -10.06909 -10.04246 -10.04243 -10.03715
  Beta  occ. eigenvalues --   -1.01273  -0.86359  -0.86182  -0.83808  -0.79163
  Beta  occ. eigenvalues --   -0.74624  -0.66939  -0.66810  -0.65510  -0.61829
  Beta  occ. eigenvalues --   -0.61308  -0.58122  -0.55298  -0.54531  -0.51766
  Beta  occ. eigenvalues --   -0.47411  -0.45249  -0.44265  -0.42136  -0.39780
  Beta  occ. eigenvalues --   -0.38565  -0.38195  -0.37872  -0.36715  -0.36154
  Beta  occ. eigenvalues --   -0.35528  -0.35451  -0.33089  -0.32466  -0.31856
  Beta  occ. eigenvalues --   -0.31290  -0.30761  -0.30397  -0.29669  -0.29155
  Beta  occ. eigenvalues --   -0.28653  -0.28408  -0.26502  -0.26055  -0.25836
  Beta  occ. eigenvalues --   -0.25586  -0.24649  -0.24337  -0.23580  -0.22509
  Beta  occ. eigenvalues --   -0.21017  -0.18997  -0.17026  -0.15791  -0.11210
  Beta  occ. eigenvalues --   -0.10457  -0.08541  -0.07782
  Beta virt. eigenvalues --    0.05565   0.07521   0.07664   0.08259   0.08787
  Beta virt. eigenvalues --    0.09031   0.09701   0.10079   0.10354   0.10463
  Beta virt. eigenvalues --    0.10717   0.11235   0.12126   0.12806   0.12868

 Mulliken charges and spin densities:
               1          2
     1  C   -0.407767   0.005879
     2  C    0.281844  -0.057599
     3  N    0.041365   0.108245
     4  C   -0.155115   0.137924
     5  C   -0.272421   0.051007
     6  C   -0.208958   0.069906
     7  C   -0.521201   0.190507
     8  N   -0.395867  -0.057889
     9  N    0.604777   0.060685
    10  N   -0.177455   0.143687
    11  N    0.385609   0.000711
    12  C   -0.147311   0.011524
    13  C   -0.290137  -0.045446
    14  C    0.581493   0.054976
    15  C   -0.738424  -0.022579
    16  C   -0.220105  -0.007080
    17  C   -0.580427  -0.048713
    18  C   -0.569202   0.006833
    19  C   -0.438965   0.153800
    20  O   -0.353426   0.180075
    21  H    0.170999  -0.001260
    22  H    0.150945  -0.000467
    23  H    0.144547   0.000495
    24  H    0.019804  -0.005354
    25  H    0.188562   0.009183
    26  H    0.164718   0.009806
    27  H    0.159197  -0.000671
    28  H    0.160091  -0.004730
    29  H    0.150727   0.008039
    30  H    0.166768  -0.000464
    31  H    0.173493  -0.003061
    32  H    0.147512   0.032880
    33  H    0.129443   0.006041
    34  H    0.115736   0.001759
    35  H    0.129159   0.009591
    36  H    0.141461   0.006578
    37  H    0.119646   0.007539
    38  H    0.124672   0.000968
    39  H    0.024213  -0.013325
 Sum of Mulliken charges =  -1.00000   1.00000

 Dipole moment (field-independent basis, Debye):
    X=            -12.0366    Y=              2.6910    Z=              0.5885  Tot=             12.3478
 Quadrupole moment (field-independent basis, Debye-Ang):
   XX=           -181.2470   YY=           -169.7397   ZZ=           -128.1892
   XY=             30.9975   XZ=             -1.5199   YZ=              5.2206

 Summary of Natural Population Analysis:

                                       Natural Population
                Natural  -----------------------------------------------
    Atom  No    Charge         Core      Valence    Rydberg      Total
 -----------------------------------------------------------------------
      C    1   -0.29713      0.99964     2.29272    0.00478     3.29713
      C    2    0.08896      0.99953     1.89909    0.01242     2.91104
      N    3   -0.19964      0.99965     2.68704    0.01295     3.69964
      C    4    0.08268      0.99951     1.90536    0.01245     2.91732
      C    5   -0.12162      0.99949     2.11542    0.00670     3.12162
      C    6    0.09771      0.99945     1.89145    0.01140     2.90229
      C    7    0.07820      0.99935     1.91054    0.01191     2.92180
      N    8   -0.20227      0.99965     2.68983    0.01279     3.70227
      N    9    0.14055      0.99970     2.34353    0.01622     3.35945
      N   10   -0.02053      0.99982     2.50802    0.01269     3.52053
      N   11   -0.27042      0.99968     2.75763    0.01311     3.77042
      C   12   -0.08191      0.99963     2.07286    0.00942     3.08191
      C   13   -0.19701      0.99959     2.18910    0.00832     3.19701
      C   14   -0.04436      0.99958     2.03716    0.00762     3.04436
      C   15   -0.19612      0.99959     2.18839    0.00815     3.19612
      C   16   -0.08347      0.99961     2.07445    0.00941     3.08347
      C   17   -0.28812      0.99963     2.28219    0.00629     3.28812
      C   18   -0.28134      0.99963     2.27603    0.00568     3.28134
      C   19    0.22151      0.99970     1.75744    0.02135     2.77849
      O   20   -0.22691      0.99988     3.21880    0.00823     4.22691
      H   21    0.10709      0.00000     0.39192    0.00099     0.39291
      H   22    0.09993      0.00000     0.39900    0.00107     0.40007
      H   23    0.09897      0.00000     0.40003    0.00100     0.40103
      H   24    0.09410      0.00000     0.40399    0.00191     0.40590
      H   25    0.10495      0.00000     0.39403    0.00102     0.39505
      H   26    0.09052      0.00000     0.40851    0.00097     0.40948
      H   27    0.10233      0.00000     0.39668    0.00099     0.39767
      H   28    0.09436      0.00000     0.40397    0.00167     0.40564
      H   29    0.09529      0.00000     0.40295    0.00176     0.40471
      H   30    0.10378      0.00000     0.39514    0.00108     0.39622
      H   31    0.10587      0.00000     0.39249    0.00164     0.39413
      H   32    0.09174      0.00000     0.40650    0.00176     0.40826
      H   33    0.09695      0.00000     0.40201    0.00104     0.40305
      H   34    0.10140      0.00000     0.39738    0.00122     0.39860
      H   35    0.09634      0.00000     0.40258    0.00108     0.40366
      H   36    0.10144      0.00000     0.39777    0.00079     0.39856
      H   37    0.09627      0.00000     0.40287    0.00086     0.40373
      H   38    0.09604      0.00000     0.40311    0.00084     0.40396
      H   39    0.02385      0.00000     0.47326    0.00289     0.47615
 =======================================================================
   * Total *    0.00000     19.99231    52.77128    0.23642    73.00000

 Normal termination of Gaussian 16 at Sat Dec 12 17:55:39 2020.
