 Gaussian 16, Revision A.03,

 -----------------------------------------------------------
 # opt freq B3LYP/6-31G(d) empiricaldispersion=gd3bj scf=xqc
 -----------------------------------------------------------

 -------------------------------
 CID_132135358_JID_2297_neutraal
 -------------------------------
 Symbolic Z-matrix:
 Charge =  0 Multiplicity = 1

 SCF Done:  E(RB3LYP) =  -487.789849974     A.U. after   13 cycles
 SCF Done:  E(RB3LYP) =  -487.796942675     A.U. after   11 cycles
 SCF Done:  E(RB3LYP) =  -487.797927023     A.U. after   10 cycles
 SCF Done:  E(RB3LYP) =  -487.798167381     A.U. after   10 cycles
 SCF Done:  E(RB3LYP) =  -487.798048848     A.U. after   10 cycles
 SCF Done:  E(RB3LYP) =  -487.798349652     A.U. after   10 cycles
 SCF Done:  E(RB3LYP) =  -487.798377693     A.U. after    9 cycles
 SCF Done:  E(RB3LYP) =  -487.798384492     A.U. after    8 cycles
 SCF Done:  E(RB3LYP) =  -487.798384930     A.U. after    7 cycles
 SCF Done:  E(RB3LYP) =  -487.798385122     A.U. after    7 cycles
 SCF Done:  E(RB3LYP) =  -487.798385141     A.U. after    6 cycles
 Optimization completed.
    -- Stationary point found.
 Normal termination of Gaussian 16 at Wed Dec  9 16:58:37 2020.

 --------------------------------------------------------------------
 #N Geom=AllCheck Guess=TCheck SCRF=Check GenChk RB3LYP/6-31G(d) Freq
 --------------------------------------------------------------------

 Structure from the checkpoint file:  "JID_2297.chk"
 -------------------------------
 CID_132135358_JID_2297_neutraal
 -------------------------------
 Charge =  0 Multiplicity = 1

 SCF Done:  E(RB3LYP) =  -487.798385141     A.U. after    1 cycles

  Exact polarizability: 141.745  -2.388 113.041   1.061   2.047 108.896
 Approx polarizability: 166.483  -1.880 160.832   1.578   2.394 163.661

                      1                      2                      3
                      A                      A                      A
 Frequencies --     32.5989                55.2720                60.8829
 Red. masses --      3.1188                 2.8637                 3.3384
 Frc consts  --      0.0020                 0.0052                 0.0073
 IR Inten    --      0.1085                 0.0824                 0.0062

                      4                      5                      6
                      A                      A                      A
 Frequencies --     73.1129                85.9577               140.7164
 Red. masses --      2.7965                 2.5314                 2.8531
 Frc consts  --      0.0088                 0.0110                 0.0333
 IR Inten    --      0.2098                 0.0601                 0.0420

                      7                      8                      9
                      A                      A                      A
 Frequencies --    159.1185               219.7060               233.1212
 Red. masses --      1.8670                 1.2152                 1.5942
 Frc consts  --      0.0279                 0.0346                 0.0510
 IR Inten    --      0.1111                 0.2343                 0.9655

                     10                     11                     12
                      A                      A                      A
 Frequencies --    256.9284               269.1660               305.2832
 Red. masses --      2.0832                 2.1185                 1.7519
 Frc consts  --      0.0810                 0.0904                 0.0962
 IR Inten    --      4.4501                 0.6661                 0.5908

                     13                     14                     15
                      A                      A                      A
 Frequencies --    311.3465               367.8426               380.2649
 Red. masses --      2.0631                 1.9824                 1.9671
 Frc consts  --      0.1178                 0.1580                 0.1676
 IR Inten    --      0.4932                 0.6335                 0.2775

                     16                     17                     18
                      A                      A                      A
 Frequencies --    415.2593               429.3566               489.1839
 Red. masses --      2.0376                 1.8663                 2.0272
 Frc consts  --      0.2070                 0.2027                 0.2858
 IR Inten    --      1.9232                 0.5450                 6.1796

                     19                     20                     21
                      A                      A                      A
 Frequencies --    542.4419               617.9726               713.6390
 Red. masses --      2.5884                 2.5576                 1.3643
 Frc consts  --      0.4487                 0.5755                 0.4094
 IR Inten    --      2.4630                 0.6897                14.2617

                     22                     23                     24
                      A                      A                      A
 Frequencies --    746.5803               776.1284               805.7665
 Red. masses --      1.6343                 2.4355                 1.8010
 Frc consts  --      0.5367                 0.8644                 0.6889
 IR Inten    --      0.5342                 1.9319                 4.8998

                     25                     26                     27
                      A                      A                      A
 Frequencies --    834.3536               870.4349               905.0739
 Red. masses --      2.1818                 1.6197                 1.9117
 Frc consts  --      0.8949                 0.7230                 0.9227
 IR Inten    --      2.2431                 0.3760                 0.1399

                     28                     29                     30
                      A                      A                      A
 Frequencies --    917.4357               920.1427               930.5509
 Red. masses --      1.5575                 1.4467                 1.7363
 Frc consts  --      0.7724                 0.7216                 0.8859
 IR Inten    --      3.0970                 0.6513                 2.1531

                     31                     32                     33
                      A                      A                      A
 Frequencies --    952.0333               972.5773               981.7148
 Red. masses --      1.5267                 1.7219                 2.0241
 Frc consts  --      0.8153                 0.9596                 1.1493
 IR Inten    --      3.1618                 1.1599                 1.2697

                     34                     35                     36
                      A                      A                      A
 Frequencies --   1021.1210              1037.5905              1066.5512
 Red. masses --      1.7777                 1.7281                 1.7383
 Frc consts  --      1.0921                 1.0962                 1.1650
 IR Inten    --      0.9996                 6.0381                 1.4747

                     37                     38                     39
                      A                      A                      A
 Frequencies --   1093.1849              1103.4296              1115.0385
 Red. masses --      1.6496                 2.1806                 2.1449
 Frc consts  --      1.1615                 1.5643                 1.5712
 IR Inten    --      8.0793                 4.6627                 2.5018

                     40                     41                     42
                      A                      A                      A
 Frequencies --   1134.5611              1144.5406              1155.0346
 Red. masses --      1.3848                 1.8446                 1.3611
 Frc consts  --      1.0503                 1.4237                 1.0699
 IR Inten    --      3.6701                 1.4115                 0.6495

                     43                     44                     45
                      A                      A                      A
 Frequencies --   1171.6752              1176.8155              1213.4752
 Red. masses --      1.7027                 2.0831                 1.3934
 Frc consts  --      1.3772                 1.6997                 1.2089
 IR Inten    --      1.2253                 5.2393                 5.9261

                     46                     47                     48
                      A                      A                      A
 Frequencies --   1229.1652              1239.2626              1256.9564
 Red. masses --      1.5373                 1.5091                 2.2642
 Frc consts  --      1.3684                 1.3655                 2.1077
 IR Inten    --      0.3467                 1.5013                30.6703

                     49                     50                     51
                      A                      A                      A
 Frequencies --   1283.1202              1293.6480              1298.4223
 Red. masses --      1.2972                 1.3509                 1.2920
 Frc consts  --      1.2583                 1.3320                 1.2834
 IR Inten    --      2.6906                 0.4382                 2.1276

                     52                     53                     54
                      A                      A                      A
 Frequencies --   1320.6206              1347.2018              1351.5556
 Red. masses --      1.2409                 1.1710                 1.5473
 Frc consts  --      1.2751                 1.2522                 1.6653
 IR Inten    --      0.4850                 2.9607                26.0203

                     55                     56                     57
                      A                      A                      A
 Frequencies --   1366.6123              1383.6328              1389.0686
 Red. masses --      1.3860                 1.3172                 1.4859
 Frc consts  --      1.5252                 1.4858                 1.6892
 IR Inten    --      5.7064                17.6604                 3.3671

                     58                     59                     60
                      A                      A                      A
 Frequencies --   1404.1706              1409.7071              1412.2184
 Red. masses --      1.5762                 1.3940                 1.3847
 Frc consts  --      1.8310                 1.6322                 1.6271
 IR Inten    --      3.0923                 3.0709                 7.0254

                     61                     62                     63
                      A                      A                      A
 Frequencies --   1426.3514              1430.1563              1442.1186
 Red. masses --      1.4115                 1.3800                 1.3016
 Frc consts  --      1.6920                 1.6631                 1.5949
 IR Inten    --      3.0144                12.0188                 3.0753

                     64                     65                     66
                      A                      A                      A
 Frequencies --   1443.6196              1502.6476              1510.2383
 Red. masses --      1.2729                 1.0790                 1.0838
 Frc consts  --      1.5629                 1.4354                 1.4564
 IR Inten    --      6.0072                 1.6944                 2.3613

                     67                     68                     69
                      A                      A                      A
 Frequencies --   1517.4971              1522.4974              1525.9024
 Red. masses --      1.0839                 1.0651                 1.0462
 Frc consts  --      1.4706                 1.4547                 1.4353
 IR Inten    --      1.9771                 6.1760                 3.1717

                     70                     71                     72
                      A                      A                      A
 Frequencies --   1526.3485              1529.9485              1532.3068
 Red. masses --      1.0485                 1.0621                 1.0833
 Frc consts  --      1.4392                 1.4648                 1.4986
 IR Inten    --      2.2986                 4.6677                 2.7031

                     73                     74                     75
                      A                      A                      A
 Frequencies --   1536.3526              1543.0109              1546.2251
 Red. masses --      1.0674                 1.0754                 1.0845
 Frc consts  --      1.4844                 1.5085                 1.5277
 IR Inten    --      5.5869                 2.1553                 4.2229

                     76                     77                     78
                      A                      A                      A
 Frequencies --   1568.4240              2973.3510              3004.0556
 Red. masses --      1.1134                 1.0667                 1.0608
 Frc consts  --      1.6137                 5.5563                 5.6403
 IR Inten    --      8.1432                57.6502                78.5786

                     79                     80                     81
                      A                      A                      A
 Frequencies --   3013.5795              3027.6619              3032.8326
 Red. masses --      1.0689                 1.0629                 1.0642
 Frc consts  --      5.7196                 5.7404                 5.7672
 IR Inten    --     33.4528                19.1834                51.4106

                     82                     83                     84
                      A                      A                      A
 Frequencies --   3037.0087              3038.1029              3039.3078
 Red. masses --      1.0633                 1.0536                 1.0439
 Frc consts  --      5.7781                 5.7295                 5.6815
 IR Inten    --      3.7927                15.3758                30.2365

                     85                     86                     87
                      A                      A                      A
 Frequencies --   3044.3315              3046.8197              3048.4962
 Red. masses --      1.0425                 1.0949                 1.0685
 Frc consts  --      5.6925                 5.9885                 5.8505
 IR Inten    --     16.5273                69.0614                20.0740

                     88                     89                     90
                      A                      A                      A
 Frequencies --   3049.3615              3058.5897              3061.1030
 Red. masses --      1.0904                 1.0977                 1.0976
 Frc consts  --      5.9737                 6.0505                 6.0594
 IR Inten    --     48.7627                 6.4928                14.2508

                     91                     92                     93
                      A                      A                      A
 Frequencies --   3067.7867              3074.2196              3080.1234
 Red. masses --      1.0981                 1.0973                 1.0941
 Frc consts  --      6.0890                 6.1103                 6.1157
 IR Inten    --     38.2725               117.5762                96.0447

                     94                     95                     96
                      A                      A                      A
 Frequencies --   3082.2504              3082.4868              3104.6702
 Red. masses --      1.0962                 1.0984                 1.1021
 Frc consts  --      6.1356                 6.1493                 6.2588
 IR Inten    --     31.5438                54.4064                28.2305

                     97                     98                     99
                      A                      A                      A
 Frequencies --   3109.0123              3109.0724              3116.2987
 Red. masses --      1.1014                 1.1004                 1.1019
 Frc consts  --      6.2726                 6.2668                 6.3051
 IR Inten    --     46.6915                79.7308                49.5869

 - Thermochemistry -
 -------------------
 Temperature   298.150 Kelvin.  Pressure   1.00000 Atm.
 Atom     1 has atomic number  6 and mass  12.00000

 Molecular mass:   169.18305 amu.
 Principal axes and moments of inertia in atomic units:
                           1         2         3
     Eigenvalues --   985.135844729.949685075.02860
           X            0.99999  -0.00493   0.00152
           Y            0.00493   0.99999   0.00176
           Z           -0.00153  -0.00175   1.00000
 This molecule is an asymmetric top.
 Rotational symmetry number  1.
 Warning -- assumption of classical behavior for rotation
           may cause significant error
 Rotational temperatures (Kelvin)      0.08792     0.01831     0.01707
 Rotational constants (GHZ):           1.83197     0.38156     0.35561
 Zero-point vibrational energy     864867.2 (Joules/Mol)
                                  206.70823 (Kcal/Mol)
 Warning -- explicit consideration of  20 degrees of freedom as
           vibrations may cause significant error
 Vibrational temperatures:     46.90    79.52    87.60   105.19   123.67
          (Kelvin)            202.46   228.94   316.11   335.41   369.66
                              387.27   439.23   447.96   529.24   547.12
                              597.47   617.75   703.83   780.45   889.12
                             1026.77  1074.16  1116.68  1159.32  1200.45
                             1252.36  1302.20  1319.99  1323.88  1338.86
                             1369.76  1399.32  1412.47  1469.17  1492.86
                             1534.53  1572.85  1587.59  1604.29  1632.38
                             1646.74  1661.84  1685.78  1693.17  1745.92
                             1768.49  1783.02  1808.48  1846.12  1861.27
                             1868.14  1900.08  1938.32  1944.59  1966.25
                             1990.74  1998.56  2020.29  2028.25  2031.87
                             2052.20  2057.68  2074.89  2077.05  2161.97
                             2172.90  2183.34  2190.53  2195.43  2196.08
                             2201.25  2204.65  2210.47  2220.05  2224.67
                             2256.61  4277.99  4322.17  4335.87  4356.13
                             4363.57  4369.58  4371.15  4372.89  4380.11
                             4383.69  4386.11  4387.35  4400.63  4404.24
                             4413.86  4423.12  4431.61  4434.67  4435.01
                             4466.93  4473.18  4473.26  4483.66

 Zero-point correction=                           0.329411 (Hartree/Particle)
 Thermal correction to Energy=                    0.343544
 Thermal correction to Enthalpy=                  0.344488
 Thermal correction to Gibbs Free Energy=         0.287697
 Sum of electronic and zero-point Energies=           -487.468975
 Sum of electronic and thermal Energies=              -487.454841
 Sum of electronic and thermal Enthalpies=            -487.453897
 Sum of electronic and thermal Free Energies=         -487.510689

                     E (Thermal)             CV                S
                      KCal/Mol        Cal/Mol-Kelvin    Cal/Mol-Kelvin
 Total                  215.577             52.923            119.528
 Electronic               0.000              0.000              0.000
 Translational            0.889              2.981             41.285
 Rotational               0.889              2.981             31.537
 Vibrational            213.800             46.961             46.706
 Vibration     1          0.594              1.983              5.665
 Vibration     2          0.596              1.975              4.619
 Vibration     3          0.597              1.973              4.428
 Vibration     4          0.599              1.967              4.068
 Vibration     5          0.601              1.959              3.750
 Vibration     6          0.615              1.913              2.794
 Vibration     7          0.621              1.892              2.560
 Vibration     8          0.647              1.811              1.962
 Vibration     9          0.654              1.790              1.855
 Vibration    10          0.667              1.751              1.683
 Vibration    11          0.674              1.730              1.602
 Vibration    12          0.696              1.664              1.388
 Vibration    13          0.700              1.652              1.355
 Vibration    14          0.740              1.538              1.089
 Vibration    15          0.750              1.512              1.038
 Vibration    16          0.779              1.437              0.908
 Vibration    17          0.791              1.406              0.861
 Vibration    18          0.845              1.274              0.686
 Vibration    19          0.898              1.156              0.560
 Vibration    20          0.978              0.994              0.420

                           ! Non-Optimized Parameters !
 Normal termination of Gaussian 16 at Wed Dec  9 17:08:19 2020.

 ----------------------------------------------------------------------
 # B3LYP/6-311++G(d,p) empiricaldispersion=gd3bj scf=xqc pop=npa geom=c
 heck
 ----------------------------------------------------------------------

 ---------------------------------------
 CID_132135358_JID_2297_Energie_neutraal
 ---------------------------------------
 Structure from the checkpoint file:  "JID_2297.chk"
 Charge =  0 Multiplicity = 1

 SCF Done:  E(RB3LYP) =  -487.932242456     A.U. after   12 cycles
 Normal termination of Gaussian 16 at Wed Dec  9 17:12:53 2020.

 ----------------------------------------------------------------------
 # B3LYP/6-311++G(d,p) empiricaldispersion=gd3bj scf=xqc pop=npa geom=c
 heck
 ----------------------------------------------------------------------

 -------------------------------------
 CID_132135358_JID_2297_Energie_kation
 -------------------------------------
 Structure from the checkpoint file:  "JID_2297.chk"
 Charge =  1 Multiplicity = 2

 SCF Done:  E(UB3LYP) =  -487.651950025     A.U. after   15 cycles
 Normal termination of Gaussian 16 at Wed Dec  9 17:20:40 2020.
 Gaussian 16:  ES64L-G16RevA.03 25-Dec-2016

 ----------------------------------------------------------------------
 # B3LYP/6-311++G(d,p) empiricaldispersion=gd3bj scf=xqc pop=npa geom=c
 heck
 ----------------------------------------------------------------------

 ------------------------------------
 CID_132135358_JID_2297_Energie_anion
 ------------------------------------
 Structure from the checkpoint file:  "JID_2297.chk"
 Charge = -1 Multiplicity = 2

                         Standard orientation:
 ---------------------------------------------------------------------
 Center     Atomic      Atomic             Coordinates (Angstroms)
 Number     Number       Type             X           Y           Z
 ---------------------------------------------------------------------
      1          6           0        4.410012    1.168622   -0.355655
      2          6           0        3.827040   -0.237533   -0.186961
      3          6           0        2.746644   -0.337033    0.900652
      4          6           0        1.518235    0.561862    0.685188
      5          6           0        0.787800    0.352464   -0.650351
      6          6           0        0.307454   -1.082324   -0.914961
      7          6           0       -0.636540   -1.702174    0.134385
      8          7           0       -1.940877   -1.094160    0.329449
      9          6           0       -2.170146    0.124854    1.120304
     10          6           0       -3.375118    0.448886    0.197050
     11          6           0       -2.770168   -0.596621   -0.776557
     12          6           0       -3.542124    1.877160   -0.292661
     13          1           0        3.653065    1.882428   -0.699143
     14          1           0        5.224521    1.174084   -1.088526
     15          1           0        4.811735    1.544346    0.593682
     16          1           0        3.420008   -0.580591   -1.147278
     17          1           0        4.636669   -0.935830    0.062676
     18          1           0        2.423791   -1.383187    0.983218
     19          1           0        3.196280   -0.083056    1.870775
     20          1           0        0.820598    0.398389    1.516257
     21          1           0        1.819075    1.615063    0.755382
     22          1           0       -0.065671    1.039821   -0.697088
     23          1           0        1.449811    0.650232   -1.474352
     24          1           0       -0.185007   -1.113039   -1.895837
     25          1           0        1.176165   -1.748786   -1.003701
     26          1           0       -0.794441   -2.753217   -0.149558
     27          1           0       -0.146932   -1.725363    1.115957
     28          1           0       -2.374264   -0.056868    2.184075
     29          1           0       -1.383770    0.891851    1.044952
     30          1           0       -4.308043    0.077489    0.633189
     31          1           0       -2.207834   -0.110102   -1.592062
     32          1           0       -3.444095   -1.342032   -1.219699
     33          1           0       -4.323952    1.945943   -1.058740
     34          1           0       -3.819979    2.548860    0.528618
     35          1           0       -2.610131    2.253710   -0.731536
 ---------------------------------------------------------------------

 SCF Done:  E(UB3LYP) =  -487.915980505     A.U. after   28 cycles

 The electronic state is 2-A.
 Alpha  occ. eigenvalues --  -14.19872 -10.09323 -10.09173 -10.09156 -10.07863
 Alpha  occ. eigenvalues --  -10.06621 -10.06601 -10.06555 -10.06477 -10.06444
 Alpha  occ. eigenvalues --  -10.06256 -10.05882  -0.84110  -0.71697  -0.69215
 Alpha  occ. eigenvalues --   -0.66202  -0.62613  -0.59409  -0.57953  -0.55603
 Alpha  occ. eigenvalues --   -0.51778  -0.48177  -0.45144  -0.43996  -0.39410
 Alpha  occ. eigenvalues --   -0.38956  -0.37827  -0.36695  -0.35314  -0.33296
 Alpha  occ. eigenvalues --   -0.32748  -0.31325  -0.30369  -0.29977  -0.29762
 Alpha  occ. eigenvalues --   -0.28620  -0.27825  -0.26621  -0.25203  -0.25022
 Alpha  occ. eigenvalues --   -0.24555  -0.24042  -0.22449  -0.22112  -0.21646
 Alpha  occ. eigenvalues --   -0.21068  -0.20873  -0.11064   0.04403
 Alpha virt. eigenvalues --    0.05963   0.07105   0.07256   0.08099   0.08433
 Alpha virt. eigenvalues --    0.08521   0.09761   0.09962   0.10275   0.10624
 Alpha virt. eigenvalues --    0.11127   0.11584   0.11951   0.12721   0.13118

  Beta  occ. eigenvalues --  -14.19871 -10.09316 -10.09160 -10.09137 -10.07853
  Beta  occ. eigenvalues --  -10.06602 -10.06591 -10.06542 -10.06463 -10.06433
  Beta  occ. eigenvalues --  -10.06219 -10.05847  -0.84099  -0.71673  -0.69190
  Beta  occ. eigenvalues --   -0.66169  -0.62575  -0.59365  -0.57914  -0.55556
  Beta  occ. eigenvalues --   -0.51723  -0.48121  -0.45090  -0.43947  -0.39374
  Beta  occ. eigenvalues --   -0.38932  -0.37799  -0.36663  -0.35292  -0.33258
  Beta  occ. eigenvalues --   -0.32720  -0.31293  -0.30334  -0.29951  -0.29727
  Beta  occ. eigenvalues --   -0.28594  -0.27799  -0.26586  -0.25166  -0.24992
  Beta  occ. eigenvalues --   -0.24523  -0.24012  -0.22420  -0.22088  -0.21616
  Beta  occ. eigenvalues --   -0.21038  -0.20845  -0.11052
  Beta virt. eigenvalues --    0.06389   0.06951   0.07512   0.07695   0.08650
  Beta virt. eigenvalues --    0.08822   0.09045   0.09992   0.10331   0.10729
  Beta virt. eigenvalues --    0.11041   0.11414   0.11924   0.12197   0.13085

 Mulliken charges and spin densities:
               1          2
     1  C    1.256435  -1.891290
     2  C   -0.794052   0.608365
     3  C   -0.117672  -0.192268
     4  C    0.375770  -0.525891
     5  C    0.282665  -0.461867
     6  C   -0.595234   0.410027
     7  C   -0.308351  -0.258400
     8  N   -0.088976   0.161098
     9  C    0.858046  -1.344207
    10  C   -1.721697   2.145064
    11  C    1.000679  -1.531340
    12  C    1.114372  -1.736902
    13  H   -0.158190   0.298438
    14  H   -0.395863   0.533008
    15  H   -0.051930   0.184663
    16  H    0.134318  -0.013464
    17  H   -0.470040   0.626993
    18  H    0.023249   0.112700
    19  H   -0.197491   0.352140
    20  H    0.158407  -0.020610
    21  H   -0.104908   0.271104
    22  H    0.687384  -0.539643
    23  H   -0.297735   0.477654
    24  H    0.093187   0.069959
    25  H   -0.147163   0.277240
    26  H   -0.015372   0.186193
    27  H    0.089072   0.076890
    28  H   -0.000225   0.156111
    29  H   -0.137237   0.233216
    30  H   -0.365488   0.556841
    31  H   -0.124227   0.229249
    32  H   -0.052730   0.198402
    33  H   -0.241142   0.379590
    34  H   -0.219002   0.357228
    35  H   -0.468861   0.613707
 Sum of Mulliken charges =  -1.00000   1.00000

 Dipole moment (field-independent basis, Debye):
    X=             -0.9950    Y=             -2.5680    Z=              0.8079  Tot=              2.8701
 Quadrupole moment (field-independent basis, Debye-Ang):
   XX=           -185.7864   YY=           -120.8912   ZZ=           -113.7491
   XY=              3.2734   XZ=              0.3388   YZ=              1.7026

 Summary of Natural Population Analysis:

                                       Natural Population
                Natural  -----------------------------------------------
    Atom  No    Charge         Core      Valence    Rydberg      Total
 -----------------------------------------------------------------------
      C    1   -0.28545      0.99967     2.28123    0.00455     3.28545
      C    2   -0.19260      0.99964     2.18458    0.00838     3.19260
      C    3   -0.19046      0.99963     2.18193    0.00890     3.19046
      C    4   -0.19379      0.99962     2.18563    0.00854     3.19379
      C    5   -0.19573      0.99962     2.18745    0.00866     3.19573
      C    6   -0.20190      0.99962     2.19376    0.00852     3.20190
      C    7   -0.08104      0.99961     2.07110    0.01034     3.08104
      N    8   -0.28532      0.99973     2.77248    0.01312     3.78532
      C    9   -0.07279      0.99962     2.06296    0.01020     3.07279
      C   10   -0.11629      0.99960     2.10593    0.01076     3.11629
      C   11   -0.07419      0.99963     2.06430    0.01026     3.07419
      C   12   -0.28632      0.99965     2.28076    0.00591     3.28632
      H   13    0.09638      0.00000     0.40237    0.00125     0.40362
      H   14    0.09926      0.00000     0.39939    0.00136     0.40074
      H   15    0.09510      0.00000     0.40351    0.00139     0.40490
      H   16    0.09303      0.00000     0.40566    0.00131     0.40697
      H   17    0.09577      0.00000     0.40298    0.00126     0.40423
      H   18    0.09435      0.00000     0.40438    0.00126     0.40565
      H   19    0.09575      0.00000     0.40322    0.00102     0.40425
      H   20    0.09586      0.00000     0.40283    0.00131     0.40414
      H   21    0.09811      0.00000     0.40071    0.00118     0.40189
      H   22    0.09734      0.00000     0.40071    0.00195     0.40266
      H   23    0.09806      0.00000     0.40078    0.00116     0.40194
      H   24    0.09740      0.00000     0.40145    0.00115     0.40260
      H   25    0.09691      0.00000     0.40181    0.00129     0.40309
      H   26    0.09144      0.00000     0.40745    0.00111     0.40856
      H   27    0.09403      0.00000     0.40485    0.00113     0.40597
      H   28    0.08769      0.00000     0.41081    0.00151     0.41231
      H   29    0.08296      0.00000     0.41538    0.00166     0.41704
      H   30    0.09705      0.00000     0.40174    0.00121     0.40295
      H   31    0.08193      0.00000     0.41654    0.00153     0.41807
      H   32    0.08865      0.00000     0.40999    0.00136     0.41135
      H   33    0.10058      0.00000     0.39813    0.00129     0.39942
      H   34    0.10055      0.00000     0.39820    0.00125     0.39945
      H   35    0.09768      0.00000     0.40071    0.00161     0.40232
 =======================================================================
   * Total *    0.00000     11.99563    35.86569    0.13868    48.00000

 Normal termination of Gaussian 16 at Wed Dec  9 17:34:24 2020.
