 Gaussian 16, Revision A.03,

 -----------------------------------------------------------
 # opt freq B3LYP/6-31G(d) empiricaldispersion=gd3bj scf=xqc
 -----------------------------------------------------------

 -------------------------------
 CID_106959473_JID_5022_neutraal
 -------------------------------
 Symbolic Z-matrix:
 Charge =  0 Multiplicity = 1

 SCF Done:  E(RB3LYP) =  -722.047475734     A.U. after   14 cycles
 SCF Done:  E(RB3LYP) =  -722.052364383     A.U. after   12 cycles
 SCF Done:  E(RB3LYP) =  -722.053205916     A.U. after   12 cycles
 SCF Done:  E(RB3LYP) =  -722.053426978     A.U. after   11 cycles
 SCF Done:  E(RB3LYP) =  -722.053510776     A.U. after   11 cycles
 SCF Done:  E(RB3LYP) =  -722.053567076     A.U. after   10 cycles
 SCF Done:  E(RB3LYP) =  -722.053654961     A.U. after   11 cycles
 SCF Done:  E(RB3LYP) =  -722.053688050     A.U. after   11 cycles
 SCF Done:  E(RB3LYP) =  -722.053709629     A.U. after   10 cycles
 SCF Done:  E(RB3LYP) =  -722.053718100     A.U. after   10 cycles
 SCF Done:  E(RB3LYP) =  -722.053718730     A.U. after    8 cycles
 SCF Done:  E(RB3LYP) =  -722.053718912     A.U. after    8 cycles
 SCF Done:  E(RB3LYP) =  -722.053718941     A.U. after    7 cycles
 Optimization completed.
    -- Stationary point found.
 Normal termination of Gaussian 16 at Thu Dec 10 14:44:40 2020.

 --------------------------------------------------------------------
 #N Geom=AllCheck Guess=TCheck SCRF=Check GenChk RB3LYP/6-31G(d) Freq
 --------------------------------------------------------------------

 Structure from the checkpoint file:  "JID_5022.chk"
 -------------------------------
 CID_106959473_JID_5022_neutraal
 -------------------------------
 Charge =  0 Multiplicity = 1

 SCF Done:  E(RB3LYP) =  -722.053718941     A.U. after    1 cycles

  Exact polarizability: 159.186  -0.501 118.320  -7.080   1.436  95.938
 Approx polarizability: 193.958  -4.456 186.336  -8.685  -3.805 148.069

                      1                      2                      3
                      A                      A                      A
 Frequencies --     27.0553                44.5481                60.4417
 Red. masses --      3.3792                 3.9108                 6.9074
 Frc consts  --      0.0015                 0.0046                 0.0149
 IR Inten    --      0.0832                 0.7878                 5.2451

                      4                      5                      6
                      A                      A                      A
 Frequencies --     73.1738               124.2505               136.2981
 Red. masses --      3.6873                 2.8053                 3.0785
 Frc consts  --      0.0116                 0.0255                 0.0337
 IR Inten    --      0.7460                 1.1338                 0.5501

                      7                      8                      9
                      A                      A                      A
 Frequencies --    161.1389               203.1970               250.1720
 Red. masses --      3.4625                 2.8613                 1.5119
 Frc consts  --      0.0530                 0.0696                 0.0558
 IR Inten    --      5.0887                 5.6412                 2.9565

                     10                     11                     12
                      A                      A                      A
 Frequencies --    269.5440               281.5588               310.9025
 Red. masses --      2.8952                 3.7272                 3.5355
 Frc consts  --      0.1239                 0.1741                 0.2014
 IR Inten    --     10.0377                 1.3907                 4.7948

                     13                     14                     15
                      A                      A                      A
 Frequencies --    327.8500               383.1786               407.7757
 Red. masses --      2.8961                 2.5724                 1.7763
 Frc consts  --      0.1834                 0.2225                 0.1740
 IR Inten    --      6.2576                 9.2079                30.6759

                     16                     17                     18
                      A                      A                      A
 Frequencies --    424.9147               438.2294               478.8701
 Red. masses --      1.2836                 1.9224                 4.0384
 Frc consts  --      0.1365                 0.2175                 0.5456
 IR Inten    --     38.1093                36.8918                 3.5172

                     19                     20                     21
                      A                      A                      A
 Frequencies --    509.4650               520.7496               626.4250
 Red. masses --      5.2420                 2.4432                 4.9419
 Frc consts  --      0.8016                 0.3904                 1.1426
 IR Inten    --      9.5335                 3.4842                 5.5573

                     22                     23                     24
                      A                      A                      A
 Frequencies --    668.3456               718.9720               742.9455
 Red. masses --      5.8506                 4.1935                 2.5680
 Frc consts  --      1.5398                 1.2772                 0.8351
 IR Inten    --      7.4504                10.1063                16.4681

                     25                     26                     27
                      A                      A                      A
 Frequencies --    763.3323               805.0993               825.1673
 Red. masses --      2.3727                 3.0480                 3.2886
 Frc consts  --      0.8146                 1.1640                 1.3193
 IR Inten    --     39.0272               157.5901                22.0116

                     28                     29                     30
                      A                      A                      A
 Frequencies --    877.4303               897.4819               916.8263
 Red. masses --      1.6770                 2.3129                 2.7584
 Frc consts  --      0.7607                 1.0976                 1.3661
 IR Inten    --     10.7692                 4.8594                 3.2277

                     31                     32                     33
                      A                      A                      A
 Frequencies --    927.2614               935.6069               974.7491
 Red. masses --      2.8728                 2.1319                 2.7938
 Frc consts  --      1.4553                 1.0995                 1.5640
 IR Inten    --     29.6542                 9.1750                 4.1404

                     34                     35                     36
                      A                      A                      A
 Frequencies --    990.0711               998.3867              1024.8696
 Red. masses --      5.7226                 2.6504                 1.8990
 Frc consts  --      3.3050                 1.5565                 1.1752
 IR Inten    --      3.3114                14.5280                11.8773

                     37                     38                     39
                      A                      A                      A
 Frequencies --   1028.4599              1054.0581              1104.3164
 Red. masses --      2.9175                 2.6982                 2.9365
 Frc consts  --      1.8182                 1.7663                 2.1099
 IR Inten    --     28.9052                 5.6964                12.0264

                     40                     41                     42
                      A                      A                      A
 Frequencies --   1106.3298              1148.0746              1155.2870
 Red. masses --      1.5770                 2.4273                 2.4665
 Frc consts  --      1.1372                 1.8850                 1.9396
 IR Inten    --     11.9085                37.6179                 9.1372

                     43                     44                     45
                      A                      A                      A
 Frequencies --   1161.4851              1165.9325              1180.3603
 Red. masses --      2.2180                 1.5698                 1.8148
 Frc consts  --      1.7629                 1.2573                 1.4898
 IR Inten    --     40.1523                 6.6704                14.2294

                     46                     47                     48
                      A                      A                      A
 Frequencies --   1222.2195              1246.9826              1254.6406
 Red. masses --      1.3446                 2.0461                 1.9183
 Frc consts  --      1.1834                 1.8745                 1.7791
 IR Inten    --     49.0303                72.8084                28.4005

                     49                     50                     51
                      A                      A                      A
 Frequencies --   1270.5989              1322.5167              1330.7308
 Red. masses --      1.7093                 1.3809                 1.3417
 Frc consts  --      1.6259                 1.4231                 1.3999
 IR Inten    --     12.7666                57.0319                10.5050

                     52                     53                     54
                      A                      A                      A
 Frequencies --   1346.5205              1366.9238              1375.9077
 Red. masses --      1.3849                 1.5280                 1.2840
 Frc consts  --      1.4795                 1.6821                 1.4322
 IR Inten    --      7.4134                 6.7506                 0.5036

                     55                     56                     57
                      A                      A                      A
 Frequencies --   1386.2585              1404.4494              1412.9375
 Red. masses --      1.3133                 1.4617                 1.4828
 Frc consts  --      1.4869                 1.6987                 1.7441
 IR Inten    --      9.8417                 5.9816                 0.2793

                     58                     59                     60
                      A                      A                      A
 Frequencies --   1430.1156              1439.2225              1454.7889
 Red. masses --      1.5948                 1.7175                 2.1637
 Frc consts  --      1.9217                 2.0960                 2.6981
 IR Inten    --      8.4026                58.4322                62.7210

                     61                     62                     63
                      A                      A                      A
 Frequencies --   1479.4549              1488.5910              1506.8584
 Red. masses --      1.1137                 1.1226                 1.0944
 Frc consts  --      1.4363                 1.4657                 1.4641
 IR Inten    --      1.0751                 4.6044                15.5768

                     64                     65                     66
                      A                      A                      A
 Frequencies --   1514.7455              1517.5420              1522.0704
 Red. masses --      1.2193                 1.0833                 1.0951
 Frc consts  --      1.6483                 1.4699                 1.4948
 IR Inten    --      9.7858                 1.5439                13.9771

                     67                     68                     69
                      A                      A                      A
 Frequencies --   1522.3788              1534.4811              1549.0102
 Red. masses --      1.0606                 1.0970                 1.0509
 Frc consts  --      1.4482                 1.5219                 1.4857
 IR Inten    --      8.6779                20.9286                 9.0948

                     70                     71                     72
                      A                      A                      A
 Frequencies --   1618.4270              1660.5360              2991.1731
 Red. masses --      9.5281                 9.5280                 1.0544
 Frc consts  --     14.7042                15.4792                 5.5580
 IR Inten    --    140.3877               429.2444                53.8409

                     73                     74                     75
                      A                      A                      A
 Frequencies --   2997.3037              2999.4162              3037.9392
 Red. masses --      1.0731                 1.0731                 1.0681
 Frc consts  --      5.6801                 5.6879                 5.8077
 IR Inten    --     14.7205                68.6080                29.2338

                     76                     77                     78
                      A                      A                      A
 Frequencies --   3059.7240              3070.1228              3080.4336
 Red. masses --      1.0618                 1.0623                 1.0800
 Frc consts  --      5.8569                 5.8992                 6.0383
 IR Inten    --     25.5406                20.2192                42.6406

                     79                     80                     81
                      A                      A                      A
 Frequencies --   3086.1118              3101.8674              3107.9120
 Red. masses --      1.0875                 1.0996                 1.0992
 Frc consts  --      6.1024                 6.2335                 6.2557
 IR Inten    --     47.6380                37.9420                34.1476

                     82                     83                     84
                      A                      A                      A
 Frequencies --   3125.0125              3128.7372              3151.7767
 Red. masses --      1.1027                 1.1030                 1.0912
 Frc consts  --      6.3447                 6.3616                 6.3863
 IR Inten    --     30.1190                 8.7231                 4.0894

                     85                     86                     87
                      A                      A                      A
 Frequencies --   3156.3466              3501.4615              3702.1653
 Red. masses --      1.0915                 1.0742                 1.0653
 Frc consts  --      6.4067                 7.7596                 8.6023
 IR Inten    --      6.5397                 0.1622                26.1863

 - Thermochemistry -
 -------------------
 Temperature   298.150 Kelvin.  Pressure   1.00000 Atm.
 Atom     1 has atomic number  6 and mass  12.00000

 Molecular mass:   212.12733 amu.
 Principal axes and moments of inertia in atomic units:
                           1         2         3
     Eigenvalues --  1421.285425727.563066469.17626
           X            0.99984   0.01764  -0.00255
           Y           -0.01757   0.99954   0.02477
           Z            0.00298  -0.02472   0.99969
 This molecule is an asymmetric top.
 Rotational symmetry number  1.
 Warning -- assumption of classical behavior for rotation
           may cause significant error
 Rotational temperatures (Kelvin)      0.06094     0.01512     0.01339
 Rotational constants (GHZ):           1.26980     0.31510     0.27898
 Zero-point vibrational energy     698062.9 (Joules/Mol)
                                  166.84103 (Kcal/Mol)
 Warning -- explicit consideration of  20 degrees of freedom as
           vibrations may cause significant error
 Vibrational temperatures:     38.93    64.09    86.96   105.28   178.77
          (Kelvin)            196.10   231.84   292.36   359.94   387.81
                              405.10   447.32   471.70   551.31   586.70
                              611.36   630.51   688.99   733.01   749.24
                              901.29   961.60  1034.44  1068.93  1098.26
                             1158.36  1187.23  1262.43  1291.28  1319.11
                             1334.12  1346.13  1402.45  1424.49  1436.46
                             1474.56  1479.72  1516.55  1588.86  1591.76
                             1651.82  1662.20  1671.12  1677.52  1698.28
                             1758.50  1794.13  1805.15  1828.11  1902.81
                             1914.62  1937.34  1966.70  1979.62  1994.52
                             2020.69  2032.90  2057.62  2070.72  2093.12
                             2128.61  2141.75  2168.03  2179.38  2183.40
                             2189.92  2190.36  2207.78  2228.68  2328.56
                             2389.14  4303.63  4312.45  4315.49  4370.92
                             4402.26  4417.22  4432.06  4440.23  4462.90
                             4471.59  4496.20  4501.55  4534.70  4541.28
                             5037.82  5326.59

 Zero-point correction=                           0.265878 (Hartree/Particle)
 Thermal correction to Energy=                    0.280135
 Thermal correction to Enthalpy=                  0.281079
 Thermal correction to Gibbs Free Energy=         0.223363
 Sum of electronic and zero-point Energies=           -721.787841
 Sum of electronic and thermal Energies=              -721.773584
 Sum of electronic and thermal Enthalpies=            -721.772640
 Sum of electronic and thermal Free Energies=         -721.830356

                     E (Thermal)             CV                S
                      KCal/Mol        Cal/Mol-Kelvin    Cal/Mol-Kelvin
 Total                  175.787             53.764            121.473
 Electronic               0.000              0.000              0.000
 Translational            0.889              2.981             41.960
 Rotational               0.889              2.981             32.332
 Vibrational            174.010             47.803             47.182
 Vibration     1          0.593              1.984              6.034
 Vibration     2          0.595              1.980              5.046
 Vibration     3          0.597              1.973              4.443
 Vibration     4          0.599              1.967              4.066
 Vibration     5          0.610              1.929              3.033
 Vibration     6          0.614              1.917              2.855
 Vibration     7          0.622              1.890              2.536
 Vibration     8          0.639              1.835              2.104
 Vibration     9          0.663              1.762              1.729
 Vibration    10          0.674              1.729              1.599
 Vibration    11          0.681              1.708              1.524
 Vibration    12          0.700              1.653              1.358
 Vibration    13          0.711              1.620              1.271
 Vibration    14          0.752              1.506              1.027
 Vibration    15          0.772              1.453              0.935
 Vibration    16          0.787              1.416              0.875
 Vibration    17          0.798              1.387              0.832
 Vibration    18          0.835              1.297              0.713
 Vibration    19          0.865              1.229              0.635
 Vibration    20          0.876              1.204              0.608

 Optimization completed.
    -- Stationary point found.
 Normal termination of Gaussian 16 at Thu Dec 10 14:53:19 2020.

 ----------------------------------------------------------------------
 # B3LYP/6-311++G(d,p) empiricaldispersion=gd3bj scf=xqc pop=npa geom=c
 heck
 ----------------------------------------------------------------------

 ---------------------------------------
 CID_106959473_JID_5022_Energie_neutraal
 ---------------------------------------
 Structure from the checkpoint file:  "JID_5022.chk"
 Charge =  0 Multiplicity = 1

 SCF Done:  E(RB3LYP) =  -722.264927291     A.U. after   14 cycles
 Normal termination of Gaussian 16 at Thu Dec 10 14:56:50 2020.

 ----------------------------------------------------------------------
 # B3LYP/6-311++G(d,p) empiricaldispersion=gd3bj scf=xqc pop=npa geom=c
 heck
 ----------------------------------------------------------------------

 -------------------------------------
 CID_106959473_JID_5022_Energie_kation
 -------------------------------------
 Structure from the checkpoint file:  "JID_5022.chk"
 Charge =  1 Multiplicity = 2

 SCF Done:  E(UB3LYP) =  -721.969518982     A.U. after   22 cycles
 Normal termination of Gaussian 16 at Thu Dec 10 15:05:34 2020.
 Gaussian 16:  ES64L-G16RevA.03 25-Dec-2016

 ----------------------------------------------------------------------
 # B3LYP/6-311++G(d,p) empiricaldispersion=gd3bj scf=xqc pop=npa geom=c
 heck
 ----------------------------------------------------------------------

 ------------------------------------
 CID_106959473_JID_5022_Energie_anion
 ------------------------------------
 Structure from the checkpoint file:  "JID_5022.chk"
 Charge = -1 Multiplicity = 2

                         Standard orientation:
 ---------------------------------------------------------------------
 Center     Atomic      Atomic             Coordinates (Angstroms)
 Number     Number       Type             X           Y           Z
 ---------------------------------------------------------------------
      1          6           0       -3.544093   -1.756419   -0.932624
      2          7           0       -4.265084   -0.639920   -0.327575
      3          6           0       -3.588800   -0.021975    0.812752
      4          6           0       -2.279495    0.639221    0.508800
      5          7           0       -2.043134    1.873931    0.216638
      6          7           0       -0.678796    1.975581   -0.103796
      7          6           0       -0.195462    0.772932    0.039404
      8          8           0       -1.136766   -0.138768    0.416384
      9          7           0        1.101239    0.357818   -0.077096
     10          6           0        2.044807    1.339638   -0.637221
     11          6           0        3.469091    0.996178   -0.199233
     12          6           0        3.817558   -0.463026   -0.520890
     13          6           0        2.758970   -1.415659    0.055586
     14          6           0        1.369045   -1.035862   -0.462440
     15          8           0        2.765306   -1.412347    1.478353
     16          1           0       -3.409871   -2.542220   -0.180258
     17          1           0       -2.548398   -1.506876   -1.335656
     18          1           0       -4.150147   -2.170417   -1.744498
     19          1           0       -4.442339    0.076929   -1.028601
     20          1           0       -4.244877    0.747692    1.228889
     21          1           0       -3.439145   -0.789850    1.580371
     22          1           0        1.967440    1.335937   -1.736822
     23          1           0        1.741584    2.328434   -0.290809
     24          1           0        3.564064    1.165484    0.880193
     25          1           0        4.170326    1.678741   -0.691587
     26          1           0        4.798025   -0.725168   -0.110829
     27          1           0        3.866333   -0.602643   -1.610113
     28          1           0        2.979652   -2.445449   -0.244507
     29          1           0        0.615018   -1.677950   -0.006390
     30          1           0        1.316025   -1.150997   -1.557461
     31          1           0        2.278683   -0.614769    1.748184
 ---------------------------------------------------------------------

 SCF Done:  E(UB3LYP) =  -722.256055275     A.U. after   32 cycles

 The electronic state is 2-A.
 Alpha  occ. eigenvalues --  -19.10949 -19.02858 -14.25892 -14.23982 -14.22639
 Alpha  occ. eigenvalues --  -14.21737 -10.19813 -10.16358 -10.12980 -10.12572
 Alpha  occ. eigenvalues --  -10.11275 -10.11248 -10.09352 -10.08146 -10.07394
 Alpha  occ. eigenvalues --   -1.06056  -0.93620  -0.87914  -0.87456  -0.82360
 Alpha  occ. eigenvalues --   -0.73914  -0.69890  -0.67003  -0.63392  -0.59348
 Alpha  occ. eigenvalues --   -0.57139  -0.54947  -0.52325  -0.49775  -0.47506
 Alpha  occ. eigenvalues --   -0.45050  -0.42071  -0.41687  -0.40061  -0.38169
 Alpha  occ. eigenvalues --   -0.37610  -0.36920  -0.35982  -0.35447  -0.34892
 Alpha  occ. eigenvalues --   -0.33393  -0.32281  -0.31592  -0.30521  -0.28986
 Alpha  occ. eigenvalues --   -0.28362  -0.27064  -0.25864  -0.25206  -0.24707
 Alpha  occ. eigenvalues --   -0.23466  -0.22600  -0.21850  -0.18434  -0.18398
 Alpha  occ. eigenvalues --   -0.15194  -0.12959   0.04114
 Alpha virt. eigenvalues --    0.06227   0.07235   0.07725   0.08149   0.08493
 Alpha virt. eigenvalues --    0.08824   0.09051   0.10037   0.10808   0.11135
 Alpha virt. eigenvalues --    0.11593   0.11892   0.11944   0.12426   0.13389

  Beta  occ. eigenvalues --  -19.10899 -19.02845 -14.25901 -14.23971 -14.22633
  Beta  occ. eigenvalues --  -14.21720 -10.19773 -10.16321 -10.12967 -10.12565
  Beta  occ. eigenvalues --  -10.11256 -10.11210 -10.09313 -10.08128 -10.07368
  Beta  occ. eigenvalues --   -1.05985  -0.93586  -0.87870  -0.87432  -0.82327
  Beta  occ. eigenvalues --   -0.73862  -0.69850  -0.66954  -0.63347  -0.59299
  Beta  occ. eigenvalues --   -0.57065  -0.54887  -0.52281  -0.49716  -0.47456
  Beta  occ. eigenvalues --   -0.44985  -0.42002  -0.41626  -0.39961  -0.38115
  Beta  occ. eigenvalues --   -0.37576  -0.36866  -0.35937  -0.35387  -0.34825
  Beta  occ. eigenvalues --   -0.33353  -0.32237  -0.31553  -0.30474  -0.28943
  Beta  occ. eigenvalues --   -0.28315  -0.27031  -0.25813  -0.25165  -0.24573
  Beta  occ. eigenvalues --   -0.23406  -0.22565  -0.21760  -0.18406  -0.18360
  Beta  occ. eigenvalues --   -0.15160  -0.12907
  Beta virt. eigenvalues --    0.06366   0.06977   0.07833   0.08232   0.08552
  Beta virt. eigenvalues --    0.08921   0.09191   0.09360   0.10463   0.11241
  Beta virt. eigenvalues --    0.11565   0.11822   0.12128   0.12267   0.12592

 Mulliken charges and spin densities:
               1          2
     1  C    0.665769  -1.098802
     2  N   -0.303810   0.230212
     3  C    0.433184  -1.258160
     4  C    0.184667   0.256739
     5  N   -0.071701   0.035382
     6  N   -0.122409  -0.030736
     7  C   -0.218794   0.064396
     8  O   -0.006104   0.004311
     9  N   -0.193757   0.227787
    10  C   -0.122424  -0.208804
    11  C   -0.147070  -0.200363
    12  C    0.275685  -0.646641
    13  C    0.053462  -0.088704
    14  C    0.326277  -0.889363
    15  O   -0.159139  -0.014837
    16  H   -0.173936   0.321050
    17  H   -0.328261   0.497920
    18  H   -0.311931   0.455742
    19  H    0.109028   0.121947
    20  H    0.113398   0.077522
    21  H   -0.038406   0.225770
    22  H   -0.149541   0.347155
    23  H    0.121980   0.072973
    24  H    0.134718   0.023517
    25  H   -0.274260   0.443725
    26  H   -0.081702   0.269280
    27  H   -0.248996   0.397097
    28  H   -0.414267   0.644348
    29  H    0.273064  -0.018755
    30  H   -0.507309   0.681627
    31  H    0.182584   0.056661
 Sum of Mulliken charges =  -1.00000   1.00000

 Dipole moment (field-independent basis, Debye):
    X=             -0.9203    Y=              2.2537    Z=              4.2205  Tot=              4.8723
 Quadrupole moment (field-independent basis, Debye-Ang):
   XX=           -168.4393   YY=           -138.1969   ZZ=           -126.0452
   XY=              1.0901   XZ=              3.3696   YZ=             -1.3821

 Summary of Natural Population Analysis:

                                       Natural Population
                Natural  -----------------------------------------------
    Atom  No    Charge         Core      Valence    Rydberg      Total
 -----------------------------------------------------------------------
      C    1   -0.18244      0.99966     2.17407    0.00871     3.18244
      N    2   -0.33110      0.99977     2.81902    0.01231     3.83110
      C    3   -0.11648      0.99958     2.10581    0.01109     3.11648
      C    4    0.24205      0.99959     1.73988    0.01849     2.75795
      N    5   -0.16047      0.99966     2.64791    0.01291     3.66047
      N    6   -0.19997      0.99967     2.68867    0.01164     3.69997
      C    7    0.35647      0.99956     1.62467    0.01931     2.64353
      O    8   -0.24656      0.99985     3.24010    0.00661     4.24656
      N    9   -0.27180      0.99964     2.76022    0.01194     3.77180
      C   10   -0.08283      0.99960     2.07239    0.01083     3.08283
      C   11   -0.19833      0.99962     2.18887    0.00984     3.19833
      C   12   -0.20129      0.99961     2.19257    0.00911     3.20129
      C   13    0.05800      0.99956     1.92642    0.01602     2.94200
      C   14   -0.09670      0.99958     2.08501    0.01210     3.09670
      O   15   -0.37242      0.99990     3.36627    0.00625     4.37242
      H   16    0.09228      0.00000     0.40632    0.00140     0.40772
      H   17    0.08622      0.00000     0.41148    0.00230     0.41378
      H   18    0.09553      0.00000     0.40327    0.00120     0.40447
      H   19    0.17361      0.00000     0.32409    0.00230     0.32639
      H   20    0.10846      0.00000     0.39027    0.00126     0.39154
      H   21    0.10218      0.00000     0.39651    0.00131     0.39782
      H   22    0.09305      0.00000     0.40527    0.00168     0.40695
      H   23    0.11138      0.00000     0.38674    0.00187     0.38862
      H   24    0.09507      0.00000     0.40357    0.00136     0.40493
      H   25    0.10559      0.00000     0.39331    0.00111     0.39441
      H   26    0.10347      0.00000     0.39543    0.00110     0.39653
      H   27    0.10320      0.00000     0.39429    0.00252     0.39680
      H   28    0.09411      0.00000     0.40448    0.00141     0.40589
      H   29    0.11128      0.00000     0.38669    0.00203     0.38872
      H   30    0.09979      0.00000     0.39665    0.00355     0.40021
      H   31    0.22866      0.00000     0.26817    0.00317     0.27134
 =======================================================================
   * Total *    0.00000     14.99484    41.79841    0.20674    57.00000

 Normal termination of Gaussian 16 at Thu Dec 10 15:20:34 2020.
