 Gaussian 16, Revision A.03,

 -----------------------------------------------------------
 # opt freq B3LYP/6-31G(d) empiricaldispersion=gd3bj scf=xqc
 -----------------------------------------------------------

 --------------------------------
 CID_120210700_JID_10115_neutraal
 --------------------------------
 Symbolic Z-matrix:
 Charge =  0 Multiplicity = 1

 SCF Done:  E(RB3LYP) =  -1295.01758938     A.U. after   15 cycles
 SCF Done:  E(RB3LYP) =  -1295.02265807     A.U. after   13 cycles
 SCF Done:  E(RB3LYP) =  -1295.02066575     A.U. after   14 cycles
 SCF Done:  E(RB3LYP) =  -1295.02666272     A.U. after   13 cycles
 SCF Done:  E(RB3LYP) =  -1295.02679006     A.U. after   13 cycles
 SCF Done:  E(RB3LYP) =  -1295.02923831     A.U. after   13 cycles
 SCF Done:  E(RB3LYP) =  -1295.02962561     A.U. after   13 cycles
 SCF Done:  E(RB3LYP) =  -1295.03087647     A.U. after   13 cycles
 SCF Done:  E(RB3LYP) =  -1295.03159092     A.U. after   13 cycles
 SCF Done:  E(RB3LYP) =  -1295.03179043     A.U. after   15 cycles
 SCF Done:  E(RB3LYP) =  -1295.03250488     A.U. after    9 cycles
 SCF Done:  E(RB3LYP) =  -1295.03250542     A.U. after    8 cycles
 SCF Done:  E(RB3LYP) =  -1295.03250585     A.U. after    7 cycles
 SCF Done:  E(RB3LYP) =  -1295.03250613     A.U. after    8 cycles
 SCF Done:  E(RB3LYP) =  -1295.03250627     A.U. after    7 cycles
 Optimization completed.
    -- Stationary point found.
 Normal termination of Gaussian 16 at Sun Dec 13 12:57:34 2020.

 --------------------------------------------------------------------
 #N Geom=AllCheck Guess=TCheck SCRF=Check GenChk RB3LYP/6-31G(d) Freq
 --------------------------------------------------------------------

 Structure from the checkpoint file:  "JID_10115.chk"
 --------------------------------
 CID_120210700_JID_10115_neutraal
 --------------------------------
 Charge =  0 Multiplicity = 1

 SCF Done:  E(RB3LYP) =  -1295.03250627     A.U. after    1 cycles

  Exact polarizability: 214.773   7.127 178.766  13.239  -3.442 131.755
 Approx polarizability: 299.055  14.280 279.702  30.200  -4.581 210.798

                      1                      2                      3
                      A                      A                      A
 Frequencies --     23.3980                24.2577                45.7590
 Red. masses --      6.1340                 3.2894                 9.4609
 Frc consts  --      0.0020                 0.0011                 0.0117
 IR Inten    --      0.4419                 0.1126                 1.0096

                      4                      5                      6
                      A                      A                      A
 Frequencies --     47.6561                62.6356                83.2669
 Red. masses --      4.9032                 6.0726                 9.1802
 Frc consts  --      0.0066                 0.0140                 0.0375
 IR Inten    --      0.8350                 0.1883                 5.2543

                      7                      8                      9
                      A                      A                      A
 Frequencies --    107.0870               130.3087               154.1154
 Red. masses --      6.4674                 4.9995                 3.5225
 Frc consts  --      0.0437                 0.0500                 0.0493
 IR Inten    --      0.1514                 2.5267                 1.0631

                     10                     11                     12
                      A                      A                      A
 Frequencies --    168.1972               187.8227               217.8257
 Red. masses --      3.2011                 4.3779                 4.8353
 Frc consts  --      0.0534                 0.0910                 0.1352
 IR Inten    --      0.2200                 2.6617                 6.2049

                     13                     14                     15
                      A                      A                      A
 Frequencies --    231.0330               243.9702               272.4095
 Red. masses --      1.1063                 2.7566                 2.0854
 Frc consts  --      0.0348                 0.0967                 0.0912
 IR Inten    --      0.6085                 1.0984                 0.6414

                     16                     17                     18
                      A                      A                      A
 Frequencies --    277.2999               307.6633               317.7562
 Red. masses --      1.6118                 3.1160                 1.5036
 Frc consts  --      0.0730                 0.1738                 0.0894
 IR Inten    --      1.0514                 3.1282                 0.9850

                     19                     20                     21
                      A                      A                      A
 Frequencies --    320.6274               345.7271               347.7123
 Red. masses --      1.8556                 3.7517                 2.4315
 Frc consts  --      0.1124                 0.2642                 0.1732
 IR Inten    --      1.2962                 4.6867                 0.5640

                     22                     23                     24
                      A                      A                      A
 Frequencies --    356.0490               381.4687               446.2761
 Red. masses --      3.3804                 2.6073                 3.7174
 Frc consts  --      0.2525                 0.2235                 0.4362
 IR Inten    --      2.5961                 3.3167                 0.6368

                     25                     26                     27
                      A                      A                      A
 Frequencies --    457.1048               471.2403               487.0096
 Red. masses --      3.3393                 4.6827                 3.8909
 Frc consts  --      0.4111                 0.6127                 0.5437
 IR Inten    --      3.7343                 6.6534                 1.8888

                     28                     29                     30
                      A                      A                      A
 Frequencies --    526.5221               578.3089               601.1472
 Red. masses --      3.7962                 2.7834                 2.0486
 Frc consts  --      0.6201                 0.5485                 0.4362
 IR Inten    --      9.2394                13.4362                34.5231

                     31                     32                     33
                      A                      A                      A
 Frequencies --    616.2376               621.8466               652.7869
 Red. masses --      3.1665                 2.2406                 4.1886
 Frc consts  --      0.7085                 0.5105                 1.0516
 IR Inten    --      8.0563                45.4734                40.8226

                     34                     35                     36
                      A                      A                      A
 Frequencies --    668.9748               684.4614               690.8649
 Red. masses --      3.9271                 4.1719                 6.0956
 Frc consts  --      1.0355                 1.1515                 1.7142
 IR Inten    --      3.9332                 8.8734                 2.8381

                     37                     38                     39
                      A                      A                      A
 Frequencies --    734.5153               753.1301               786.0506
 Red. masses --      4.6875                 2.5921                 5.2920
 Frc consts  --      1.4900                 0.8663                 1.9265
 IR Inten    --      6.0453                47.9007                15.9635

                     40                     41                     42
                      A                      A                      A
 Frequencies --    818.3622               833.9116               851.7416
 Red. masses --      3.5201                 2.6668                 1.7077
 Frc consts  --      1.3890                 1.0926                 0.7299
 IR Inten    --     50.3388                 1.7288                29.8984

                     43                     44                     45
                      A                      A                      A
 Frequencies --    864.3161               892.6391               896.0938
 Red. masses --      1.2947                 1.9503                 1.6491
 Frc consts  --      0.5698                 0.9156                 0.7802
 IR Inten    --     12.4157                15.8647                17.3120

                     46                     47                     48
                      A                      A                      A
 Frequencies --    928.4025               941.1374               952.4643
 Red. masses --      1.6012                 1.7133                 1.6041
 Frc consts  --      0.8132                 0.8941                 0.8574
 IR Inten    --      8.1910                 0.1726                 1.2471

                     49                     50                     51
                      A                      A                      A
 Frequencies --    983.5261               990.7989               995.1523
 Red. masses --      1.2016                 2.0834                 3.1127
 Frc consts  --      0.6848                 1.2050                 1.8162
 IR Inten    --      0.0840                 7.2115                 5.1955

                     52                     53                     54
                      A                      A                      A
 Frequencies --    995.9782              1036.1317              1046.7699
 Red. masses --      4.1251                 3.4789                 2.2428
 Frc consts  --      2.4109                 2.2005                 1.4479
 IR Inten    --     43.8729                33.1151                21.3524

                     55                     56                     57
                      A                      A                      A
 Frequencies --   1065.5821              1067.7502              1077.7105
 Red. masses --      1.4774                 1.3919                 1.8993
 Frc consts  --      0.9884                 0.9350                 1.2997
 IR Inten    --      4.9570                 0.2942                41.0929

                     58                     59                     60
                      A                      A                      A
 Frequencies --   1123.1668              1126.9153              1161.0945
 Red. masses --      1.4409                 1.9374                 2.3262
 Frc consts  --      1.0709                 1.4496                 1.8477
 IR Inten    --      2.8961                14.9485                52.2797

                     61                     62                     63
                      A                      A                      A
 Frequencies --   1197.9287              1205.9564              1228.3063
 Red. masses --      2.3281                 1.7017                 1.6470
 Frc consts  --      1.9684                 1.4582                 1.4641
 IR Inten    --     85.9706                44.1256                29.8228

                     64                     65                     66
                      A                      A                      A
 Frequencies --   1240.5510              1259.7831              1267.4848
 Red. masses --      1.9688                 2.5783                 1.7661
 Frc consts  --      1.7852                 2.4109                 1.6717
 IR Inten    --     42.9819                20.6797               116.4622

                     67                     68                     69
                      A                      A                      A
 Frequencies --   1270.1969              1290.0194              1294.8384
 Red. masses --      2.7602                 2.1732                 1.4203
 Frc consts  --      2.6239                 2.1308                 1.4030
 IR Inten    --     12.2179               171.1595                25.5200

                     70                     71                     72
                      A                      A                      A
 Frequencies --   1321.8107              1331.3382              1366.1952
 Red. masses --      2.8825                 1.3514                 1.7126
 Frc consts  --      2.9673                 1.4112                 1.8833
 IR Inten    --     64.3697                 0.6211                15.4253

                     73                     74                     75
                      A                      A                      A
 Frequencies --   1381.8854              1424.0480              1425.6747
 Red. masses --      2.1918                 1.2840                 4.0842
 Frc consts  --      2.4660                 1.5341                 4.8910
 IR Inten    --     21.3169                 9.9315                21.0045

                     76                     77                     78
                      A                      A                      A
 Frequencies --   1430.7305              1453.4215              1459.9410
 Red. masses --      1.3929                 2.7044                 1.8439
 Frc consts  --      1.6799                 3.3660                 2.3156
 IR Inten    --     26.5653                59.6833                33.1334

                     79                     80                     81
                      A                      A                      A
 Frequencies --   1476.8597              1490.2183              1503.5407
 Red. masses --      4.8259                 1.2573                 1.0468
 Frc consts  --      6.2017                 1.6451                 1.3943
 IR Inten    --     19.3849                18.5073                 0.0374

                     82                     83                     84
                      A                      A                      A
 Frequencies --   1510.7867              1514.9218              1520.5587
 Red. masses --      1.1065                 1.0997                 1.0459
 Frc consts  --      1.4880                 1.4870                 1.4248
 IR Inten    --      5.9044                 6.1674                 0.2851

                     85                     86                     87
                      A                      A                      A
 Frequencies --   1521.2944              1527.7700              1531.5071
 Red. masses --      1.0475                 1.0660                 1.1277
 Frc consts  --      1.4283                 1.4659                 1.5584
 IR Inten    --      0.9089                 6.1906                11.9412

                     88                     89                     90
                      A                      A                      A
 Frequencies --   1534.5339              1553.5422              1596.3257
 Red. masses --      1.0513                 1.0676                 4.8651
 Frc consts  --      1.4586                 1.5181                 7.3043
 IR Inten    --      5.6954                 5.6529               134.2403

                     91                     92                     93
                      A                      A                      A
 Frequencies --   1772.1428              1842.4202              3058.5604
 Red. masses --      7.8483                10.5167                 1.0355
 Frc consts  --     14.5219                21.0332                 5.7074
 IR Inten    --    328.6327               295.2311                14.4472

                     94                     95                     96
                      A                      A                      A
 Frequencies --   3059.8810              3066.6336              3083.1291
 Red. masses --      1.0357                 1.0370                 1.0605
 Frc consts  --      5.7133                 5.7456                 5.9394
 IR Inten    --     18.1303                14.1492                10.2467

                     97                     98                     99
                      A                      A                      A
 Frequencies --   3096.6181              3100.8229              3126.2766
 Red. masses --      1.0690                 1.0588                 1.1035
 Frc consts  --      6.0398                 5.9982                 6.3544
 IR Inten    --     21.9679                19.9501                 6.2902

                    100                    101                    102
                      A                      A                      A
 Frequencies --   3127.0922              3129.5823              3132.8215
 Red. masses --      1.1044                 1.1030                 1.1032
 Frc consts  --      6.3629                 6.3649                 6.3791
 IR Inten    --     11.0290                15.9559                27.7098

                    103                    104                    105
                      A                      A                      A
 Frequencies --   3139.9984              3154.8032              3156.2399
 Red. masses --      1.1017                 1.1021                 1.1101
 Frc consts  --      6.4001                 6.4625                 6.5154
 IR Inten    --     51.1856                 4.2847                12.2583

                    106                    107                    108
                      A                      A                      A
 Frequencies --   3160.0350              3191.6945              3274.2080
 Red. masses --      1.1014                 1.0957                 1.0968
 Frc consts  --      6.4800                 6.5766                 6.9276
 IR Inten    --     16.2117                 0.4978                 1.7147

                    109                    110                    111
                      A                      A                      A
 Frequencies --   3296.4189              3494.3105              3683.5967
 Red. masses --      1.0986                 1.0732                 1.0641
 Frc consts  --      7.0336                 7.7208                 8.5074
 IR Inten    --     17.7950                 7.6366                67.2079

 - Thermochemistry -
 -------------------
 Temperature   298.150 Kelvin.  Pressure   1.00000 Atm.
 Atom     1 has atomic number  6 and mass  12.00000

 Molecular mass:   297.11471 amu.
 Principal axes and moments of inertia in atomic units:
                           1         2         3
     Eigenvalues --  3552.597858295.20378**********
           X            0.99997   0.00268   0.00666
           Y           -0.00255   0.99983  -0.01828
           Z           -0.00671   0.01826   0.99981
 This molecule is an asymmetric top.
 Rotational symmetry number  1.
 Warning -- assumption of classical behavior for rotation
           may cause significant error
 Rotational temperatures (Kelvin)      0.02438     0.01044     0.00854
 Rotational constants (GHZ):           0.50801     0.21756     0.17789
 Zero-point vibrational energy     845517.1 (Joules/Mol)
                                  202.08344 (Kcal/Mol)
 Warning -- explicit consideration of  31 degrees of freedom as
           vibrations may cause significant error
 Vibrational temperatures:     33.66    34.90    65.84    68.57    90.12
          (Kelvin)            119.80   154.07   187.49   221.74   242.00
                              270.24   313.40   332.40   351.02   391.94
                              398.97   442.66   457.18   461.31   497.42
                              500.28   512.28   548.85   642.09   657.67
                              678.01   700.70   757.55   832.06   864.92
                              886.63   894.70   939.21   962.51   984.79
                              994.00  1056.80  1083.59  1130.95  1177.44
                             1199.81  1225.47  1243.56  1284.31  1289.28
                             1335.76  1354.09  1370.38  1415.07  1425.54
                             1431.80  1432.99  1490.76  1506.07  1533.14
                             1536.25  1550.58  1615.99  1621.38  1670.56
                             1723.55  1735.10  1767.26  1784.88  1812.55
                             1823.63  1827.53  1856.05  1862.98  1901.79
                             1915.50  1965.65  1988.22  2048.89  2051.23
                             2058.50  2091.15  2100.53  2124.87  2144.09
                             2163.26  2173.69  2179.63  2187.74  2188.80
                             2198.12  2203.50  2207.85  2235.20  2296.76
                             2549.72  2650.83  4400.59  4402.49  4412.20
                             4435.94  4455.34  4461.39  4498.01  4499.19
                             4502.77  4507.43  4517.76  4539.06  4541.13
                             4546.59  4592.14  4710.86  4742.81  5027.53
                             5299.87

 Zero-point correction=                           0.322040 (Hartree/Particle)
 Thermal correction to Energy=                    0.341948
 Thermal correction to Enthalpy=                  0.342892
 Thermal correction to Gibbs Free Energy=         0.272146
 Sum of electronic and zero-point Energies=          -1294.710466
 Sum of electronic and thermal Energies=             -1294.690559
 Sum of electronic and thermal Enthalpies=           -1294.689614
 Sum of electronic and thermal Free Energies=        -1294.760361

                     E (Thermal)             CV                S
                      KCal/Mol        Cal/Mol-Kelvin    Cal/Mol-Kelvin
 Total                  214.575             75.594            148.898
 Electronic               0.000              0.000              0.000
 Translational            0.889              2.981             42.964
 Rotational               0.889              2.981             34.057
 Vibrational            212.798             69.632             71.877
 Vibration     1          0.593              1.985              6.323
 Vibration     2          0.593              1.985              6.251
 Vibration     3          0.595              1.979              4.993
 Vibration     4          0.595              1.978              4.912
 Vibration     5          0.597              1.972              4.372
 Vibration     6          0.600              1.961              3.812
 Vibration     7          0.606              1.944              3.321
 Vibration     8          0.612              1.923              2.941
 Vibration     9          0.620              1.898              2.621
 Vibration    10          0.625              1.882              2.456
 Vibration    11          0.633              1.857              2.249
 Vibration    12          0.646              1.814              1.977
 Vibration    13          0.653              1.794              1.871
 Vibration    14          0.659              1.773              1.774
 Vibration    15          0.675              1.724              1.581
 Vibration    16          0.678              1.715              1.550
 Vibration    17          0.698              1.659              1.375
 Vibration    18          0.704              1.640              1.322
 Vibration    19          0.706              1.634              1.307
 Vibration    20          0.724              1.584              1.186
 Vibration    21          0.725              1.580              1.177
 Vibration    22          0.732              1.563              1.139
 Vibration    23          0.751              1.510              1.033
 Vibration    24          0.806              1.369              0.807
 Vibration    25          0.815              1.345              0.775
 Vibration    26          0.828              1.314              0.734
 Vibration    27          0.843              1.279              0.691
 Vibration    28          0.881              1.191              0.595
 Vibration    29          0.935              1.078              0.489
 Vibration    30          0.959              1.029              0.448
 Vibration    31          0.976              0.998              0.423

                           ! Non-Optimized Parameters !
 Normal termination of Gaussian 16 at Sun Dec 13 13:22:43 2020.

 ----------------------------------------------------------------------
 # B3LYP/6-311++G(d,p) empiricaldispersion=gd3bj scf=xqc pop=npa geom=c
 heck
 ----------------------------------------------------------------------

 ----------------------------------------
 CID_120210700_JID_10115_Energie_neutraal
 ----------------------------------------
 Structure from the checkpoint file:  "JID_10115.chk"
 Charge =  0 Multiplicity = 1

 SCF Done:  E(RB3LYP) =  -1295.31961526     A.U. after   16 cycles
 Normal termination of Gaussian 16 at Sun Dec 13 13:35:05 2020.

 ----------------------------------------------------------------------
 # B3LYP/6-311++G(d,p) empiricaldispersion=gd3bj scf=xqc pop=npa geom=c
 heck
 ----------------------------------------------------------------------

 --------------------------------------
 CID_120210700_JID_10115_Energie_kation
 --------------------------------------
 Structure from the checkpoint file:  "JID_10115.chk"
 Charge =  1 Multiplicity = 2

 SCF Done:  E(UB3LYP) =  -1295.01452607     A.U. after   31 cycles
 Normal termination of Gaussian 16 at Sun Dec 13 14:08:50 2020.
 Gaussian 16:  ES64L-G16RevA.03 25-Dec-2016

 ----------------------------------------------------------------------
 # B3LYP/6-311++G(d,p) empiricaldispersion=gd3bj scf=xqc pop=npa geom=c
 heck
 ----------------------------------------------------------------------

 -------------------------------------
 CID_120210700_JID_10115_Energie_anion
 -------------------------------------
 Structure from the checkpoint file:  "JID_10115.chk"
 Charge = -1 Multiplicity = 2

                         Standard orientation:
 ---------------------------------------------------------------------
 Center     Atomic      Atomic             Coordinates (Angstroms)
 Number     Number       Type             X           Y           Z
 ---------------------------------------------------------------------
      1          6           0        3.307980    1.852636   -0.325966
      2          6           0        3.646862    0.442378    0.164593
      3          6           0        4.837145   -0.127327   -0.620064
      4          6           0        3.942696    0.455482    1.671907
      5          7           0        2.482102   -0.446529   -0.059884
      6          6           0        1.254970   -0.142113   -0.534908
      7          6           0        0.510981   -1.318758   -0.516755
      8          6           0        1.412736   -2.293748   -0.021072
      9          7           0        2.593180   -1.764977    0.271099
     10          6           0       -0.837860   -1.562302   -1.027902
     11          8           0       -1.174514   -2.645612   -1.487348
     12          7           0       -1.733182   -0.463204   -1.102300
     13          6           0       -2.322569    0.221407    0.076675
     14          6           0       -3.251340    1.320875   -0.460314
     15          6           0       -2.349802    2.411649   -1.036123
     16         16           0       -0.930075    2.559486    0.142313
     17          6           0       -1.321124    0.961027    0.975818
     18          6           0       -3.105928   -0.824853    0.876883
     19          8           0       -4.306419   -0.973264    0.847033
     20          8           0       -2.275217   -1.622050    1.586033
     21          1           0        4.171923    2.501415   -0.155448
     22          1           0        2.454789    2.278975    0.211465
     23          1           0        3.085776    1.862805   -1.398009
     24          1           0        5.724693    0.491027   -0.450486
     25          1           0        5.049404   -1.149687   -0.299961
     26          1           0        4.620361   -0.138065   -1.693324
     27          1           0        3.090312    0.861314    2.227275
     28          1           0        4.138453   -0.558425    2.028489
     29          1           0        4.818576    1.079934    1.876292
     30          1           0        0.974799    0.849636   -0.852438
     31          1           0        1.225285   -3.346866    0.136093
     32          1           0       -2.504919   -0.786435   -1.685028
     33          1           0       -3.849185    1.710004    0.369251
     34          1           0       -3.948198    0.927391   -1.207179
     35          1           0       -1.968283    2.130445   -2.019672
     36          1           0       -2.858891    3.375026   -1.106550
     37          1           0       -1.798024    1.163731    1.938530
     38          1           0       -0.412795    0.391182    1.156658
     39          1           0       -2.826861   -2.322919    1.982259
 ---------------------------------------------------------------------

 SCF Done:  E(UB3LYP) =  -1295.31446293     A.U. after   33 cycles
 SCF Done:  E(UB3LYP) =  -1295.31446293     a.u. after    1 cycles

 The electronic state is 2-A.
 Alpha  occ. eigenvalues --  -88.74757 -19.07370 -19.01623 -18.97007 -14.28324
 Alpha  occ. eigenvalues --  -14.22463 -14.22245 -10.20006 -10.14645 -10.14427
 Alpha  occ. eigenvalues --  -10.13715 -10.11284 -10.10794 -10.09740 -10.09406
 Alpha  occ. eigenvalues --  -10.08496 -10.07587 -10.07043 -10.06844 -10.06182
 Alpha  occ. eigenvalues --   -7.83381  -5.79777  -5.79429  -5.78737  -1.01406
 Alpha  occ. eigenvalues --   -0.94631  -0.92524  -0.92178  -0.82353  -0.76506
 Alpha  occ. eigenvalues --   -0.74168  -0.69646  -0.66916  -0.65337  -0.63977
 Alpha  occ. eigenvalues --   -0.60648  -0.60265  -0.55467  -0.54654  -0.51518
 Alpha  occ. eigenvalues --   -0.49823  -0.48792  -0.45840  -0.44087  -0.42907
 Alpha  occ. eigenvalues --   -0.41760  -0.40149  -0.39040  -0.37753  -0.37284
 Alpha  occ. eigenvalues --   -0.36061  -0.35728  -0.34988  -0.33723  -0.33368
 Alpha  occ. eigenvalues --   -0.32712  -0.32417  -0.31218  -0.30617  -0.29667
 Alpha  occ. eigenvalues --   -0.28980  -0.28677  -0.28370  -0.28228  -0.28081
 Alpha  occ. eigenvalues --   -0.27389  -0.26998  -0.26763  -0.25368  -0.25180
 Alpha  occ. eigenvalues --   -0.23316  -0.23090  -0.20025  -0.19190  -0.16389
 Alpha  occ. eigenvalues --   -0.15865  -0.14410  -0.13729  -0.13349   0.04191
 Alpha virt. eigenvalues --    0.05702   0.06376   0.06921   0.07927   0.08464
 Alpha virt. eigenvalues --    0.08606   0.08754   0.08897   0.09429   0.10488
 Alpha virt. eigenvalues --    0.10608   0.10880   0.11236   0.11450   0.11743

  Beta  occ. eigenvalues --  -88.74750 -19.07326 -19.01512 -18.96758 -14.28291
  Beta  occ. eigenvalues --  -14.22493 -14.22274 -10.19864 -10.14413 -10.14406
  Beta  occ. eigenvalues --  -10.13715 -10.11278 -10.10757 -10.09616 -10.09395
  Beta  occ. eigenvalues --  -10.08446 -10.07565 -10.07029 -10.06813 -10.06210
  Beta  occ. eigenvalues --   -7.83376  -5.79763  -5.79420  -5.78733  -1.01245
  Beta  occ. eigenvalues --   -0.94577  -0.92356  -0.91748  -0.82249  -0.76482
  Beta  occ. eigenvalues --   -0.74099  -0.69536  -0.66818  -0.65249  -0.63902
  Beta  occ. eigenvalues --   -0.60603  -0.60222  -0.55296  -0.54363  -0.51417
  Beta  occ. eigenvalues --   -0.49760  -0.48693  -0.45741  -0.43950  -0.42809
  Beta  occ. eigenvalues --   -0.41693  -0.39988  -0.38880  -0.37621  -0.37184
  Beta  occ. eigenvalues --   -0.36021  -0.35649  -0.34596  -0.33664  -0.33278
  Beta  occ. eigenvalues --   -0.32631  -0.32253  -0.31044  -0.30447  -0.29495
  Beta  occ. eigenvalues --   -0.28918  -0.28568  -0.28320  -0.28140  -0.28037
  Beta  occ. eigenvalues --   -0.27331  -0.26723  -0.26356  -0.25342  -0.25005
  Beta  occ. eigenvalues --   -0.23133  -0.22833  -0.19755  -0.19182  -0.16164
  Beta  occ. eigenvalues --   -0.15585  -0.14237  -0.13657  -0.13016
  Beta virt. eigenvalues --    0.06216   0.06605   0.07113   0.08068   0.08227
  Beta virt. eigenvalues --    0.08701   0.08928   0.09147   0.09233   0.09950
  Beta virt. eigenvalues --    0.10539   0.10784   0.10997   0.11296   0.11609

 Mulliken charges and spin densities:
               1          2
     1  C    0.056542  -0.510772
     2  C   -1.343766   1.281019
     3  C    0.070373  -0.520071
     4  C    0.560567  -1.083181
     5  N    0.716558  -0.008486
     6  C   -0.697541  -0.124416
     7  C    1.163231  -0.077386
     8  C   -0.070273  -0.094966
     9  N   -0.155385  -0.050998
    10  C   -0.671773   0.027945
    11  O   -0.354550   0.097689
    12  N   -0.022239   0.112419
    13  C   -0.391144  -0.052013
    14  C   -0.688660   0.108865
    15  C   -0.522079  -0.104535
    16  S    0.050584  -0.032298
    17  C   -0.506683  -0.013725
    18  C    0.967908  -0.416499
    19  O   -0.291066   0.031464
    20  O   -0.110659   0.026623
    21  H   -0.407818   0.604578
    22  H    0.167405  -0.016320
    23  H    0.002596   0.130296
    24  H   -0.072072   0.214205
    25  H    0.140668   0.028372
    26  H    0.038110   0.117239
    27  H   -0.073385   0.214376
    28  H    0.147110   0.018476
    29  H   -0.319277   0.473109
    30  H    0.343668  -0.208191
    31  H    0.138506   0.025892
    32  H    0.221271   0.074714
    33  H    0.180637  -0.004795
    34  H    0.034439   0.143111
    35  H    0.169869   0.043015
    36  H    0.077699   0.133366
    37  H   -0.066553   0.347012
    38  H    0.363269  -0.096515
    39  H    0.153913   0.161382
 Sum of Mulliken charges =  -1.00000   1.00000

 Dipole moment (field-independent basis, Debye):
    X=             -2.7744    Y=              2.1562    Z=             -0.2023  Tot=              3.5196
 Quadrupole moment (field-independent basis, Debye-Ang):
   XX=           -210.8649   YY=           -169.7494   ZZ=           -152.6320
   XY=            -17.7991   XZ=             -5.1156   YZ=            -11.5998

 Summary of Natural Population Analysis:

                                       Natural Population
                Natural  -----------------------------------------------
    Atom  No    Charge         Core      Valence    Rydberg      Total
 -----------------------------------------------------------------------
      C    1   -0.29344      0.99962     2.28646    0.00736     3.29344
      C    2    0.06871      0.99958     1.91879    0.01292     2.93129
      C    3   -0.28753      0.99961     2.28115    0.00677     3.28753
      C    4   -0.28766      0.99961     2.28118    0.00686     3.28766
      N    5   -0.11166      0.99962     2.59714    0.01490     3.61166
      C    6    0.02654      0.99952     1.96373    0.01022     2.97346
      C    7   -0.13146      0.99947     2.12222    0.00977     3.13146
      C    8    0.02212      0.99960     1.96420    0.01409     2.97788
      N    9   -0.16769      0.99973     2.65754    0.01042     3.66769
      C   10    0.36856      0.99961     1.60984    0.02199     2.63144
      O   11   -0.28774      0.99988     3.28277    0.00509     4.28774
      N   12   -0.34827      0.99969     2.83659    0.01199     3.84827
      C   13    0.02408      0.99948     1.96218    0.01425     2.97592
      C   14   -0.19391      0.99959     2.18422    0.01010     3.19391
      C   15   -0.24048      0.99960     2.23267    0.00821     3.24048
      S   16    0.07275      4.99966     2.91089    0.01670     7.92725
      C   17   -0.24619      0.99953     2.23515    0.01150     3.24619
      C   18    0.42318      0.99962     1.55060    0.02660     2.57682
      O   19   -0.30247      0.99987     3.29642    0.00619     4.30247
      O   20   -0.34269      0.99987     3.33605    0.00677     4.34269
      H   21    0.10718      0.00000     0.39172    0.00110     0.39282
      H   22    0.10618      0.00000     0.39253    0.00129     0.39382
      H   23    0.10344      0.00000     0.39551    0.00105     0.39656
      H   24    0.10004      0.00000     0.39912    0.00084     0.39996
      H   25    0.11058      0.00000     0.38830    0.00113     0.38942
      H   26    0.10144      0.00000     0.39777    0.00079     0.39856
      H   27    0.10144      0.00000     0.39757    0.00098     0.39856
      H   28    0.10953      0.00000     0.38932    0.00116     0.39047
      H   29    0.10187      0.00000     0.39678    0.00134     0.39813
      H   30    0.11560      0.00000     0.38235    0.00204     0.38440
      H   31    0.10083      0.00000     0.39826    0.00091     0.39917
      H   32    0.18629      0.00000     0.31091    0.00279     0.31371
      H   33    0.10717      0.00000     0.39176    0.00108     0.39283
      H   34    0.10962      0.00000     0.38914    0.00124     0.39038
      H   35    0.10412      0.00000     0.39430    0.00158     0.39588
      H   36    0.10248      0.00000     0.39618    0.00135     0.39752
      H   37    0.10547      0.00000     0.39291    0.00163     0.39453
      H   38    0.12264      0.00000     0.37594    0.00141     0.37736
      H   39    0.23931      0.00000     0.25614    0.00455     0.26069
 =======================================================================
   * Total *   -0.00000     23.99276    54.74629    0.26095    79.00000

 Normal termination of Gaussian 16 at Sun Dec 13 14:43:48 2020.
