 Gaussian 16, Revision A.03,

 -----------------------------------------------------------
 # opt freq B3LYP/6-31G(d) empiricaldispersion=gd3bj scf=xqc
 -----------------------------------------------------------

 -------------------------------
 CID_116935932_JID_2657_neutraal
 -------------------------------
 Symbolic Z-matrix:
 Charge =  0 Multiplicity = 1

 SCF Done:  E(RB3LYP) =  -503.857025888     A.U. after   12 cycles
 SCF Done:  E(RB3LYP) =  -503.861287720     A.U. after   10 cycles
 SCF Done:  E(RB3LYP) =  -503.861200489     A.U. after   10 cycles
 SCF Done:  E(RB3LYP) =  -503.861677600     A.U. after   10 cycles
 SCF Done:  E(RB3LYP) =  -503.861747848     A.U. after   11 cycles
 SCF Done:  E(RB3LYP) =  -503.861791374     A.U. after   11 cycles
 SCF Done:  E(RB3LYP) =  -503.861814060     A.U. after   11 cycles
 SCF Done:  E(RB3LYP) =  -503.861829593     A.U. after   11 cycles
 SCF Done:  E(RB3LYP) =  -503.861833040     A.U. after    8 cycles
 SCF Done:  E(RB3LYP) =  -503.861839589     A.U. after   10 cycles
 SCF Done:  E(RB3LYP) =  -503.861840393     A.U. after    8 cycles
 SCF Done:  E(RB3LYP) =  -503.861840571     A.U. after    7 cycles
 SCF Done:  E(RB3LYP) =  -503.861840791     A.U. after    7 cycles
 SCF Done:  E(RB3LYP) =  -503.861841079     A.U. after    7 cycles
 SCF Done:  E(RB3LYP) =  -503.861841462     A.U. after    7 cycles
 SCF Done:  E(RB3LYP) =  -503.861841625     A.U. after    7 cycles
 Optimization completed.
    -- Stationary point found.
 Normal termination of Gaussian 16 at Wed Dec  9 17:57:59 2020.

 --------------------------------------------------------------------
 #N Geom=AllCheck Guess=TCheck SCRF=Check GenChk RB3LYP/6-31G(d) Freq
 --------------------------------------------------------------------

 Structure from the checkpoint file:  "JID_2657.chk"
 -------------------------------
 CID_116935932_JID_2657_neutraal
 -------------------------------
 Charge =  0 Multiplicity = 1

 SCF Done:  E(RB3LYP) =  -503.861841625     A.U. after    1 cycles

  Exact polarizability: 131.677  -0.188 114.315  -1.929   0.849 104.248
 Approx polarizability: 160.335  -1.330 157.256  -1.408  -0.731 161.301

                      1                      2                      3
                      A                      A                      A
 Frequencies --     34.0537                49.1142                50.3077
 Red. masses --      2.9212                 1.8652                 2.5338
 Frc consts  --      0.0020                 0.0027                 0.0038
 IR Inten    --      0.4946                 0.1686                 0.2947

                      4                      5                      6
                      A                      A                      A
 Frequencies --     71.1352               129.2074               158.7268
 Red. masses --      3.0119                 2.8081                 2.9091
 Frc consts  --      0.0090                 0.0276                 0.0432
 IR Inten    --      0.0870                 0.4511                 0.5573

                      7                      8                      9
                      A                      A                      A
 Frequencies --    164.0375               223.9142               234.7557
 Red. masses --      2.5062                 2.3618                 1.0832
 Frc consts  --      0.0397                 0.0698                 0.0352
 IR Inten    --      0.6643                 2.5097                 0.6161

                     10                     11                     12
                      A                      A                      A
 Frequencies --    242.6756               279.9673               286.5825
 Red. masses --      1.5335                 1.1859                 1.7501
 Frc consts  --      0.0532                 0.0548                 0.0847
 IR Inten    --      1.7267                27.2599                10.0614

                     13                     14                     15
                      A                      A                      A
 Frequencies --    335.1447               383.3646               401.5633
 Red. masses --      2.4435                 2.2067                 2.3819
 Frc consts  --      0.1617                 0.1911                 0.2263
 IR Inten    --      7.2690                 1.8430                 3.0669

                     16                     17                     18
                      A                      A                      A
 Frequencies --    434.9711               472.8412               484.2074
 Red. masses --      2.0503                 2.5904                 2.1116
 Frc consts  --      0.2286                 0.3412                 0.2917
 IR Inten    --      1.6650                 0.6488                 4.7523

                     19                     20                     21
                      A                      A                      A
 Frequencies --    531.1823               645.8437               669.2900
 Red. masses --      2.7473                 2.2912                 2.7167
 Frc consts  --      0.4567                 0.5631                 0.7170
 IR Inten    --      3.0293                 6.6453                 2.4859

                     22                     23                     24
                      A                      A                      A
 Frequencies --    797.2451               827.2130               830.8781
 Red. masses --      1.3263                 2.2186                 2.4641
 Frc consts  --      0.4967                 0.8945                 1.0022
 IR Inten    --      1.9717                 2.0264                 2.7879

                     25                     26                     27
                      A                      A                      A
 Frequencies --    842.5251               864.2499               882.0091
 Red. masses --      2.6070                 1.4960                 1.9164
 Frc consts  --      1.0903                 0.6583                 0.8784
 IR Inten    --     12.8451                83.3347                27.1424

                     28                     29                     30
                      A                      A                      A
 Frequencies --    901.5533               912.8796               939.5630
 Red. masses --      1.6908                 2.8613                 1.2596
 Frc consts  --      0.8097                 1.4049                 0.6551
 IR Inten    --    121.8692                 5.9286                 8.0663

                     31                     32                     33
                      A                      A                      A
 Frequencies --    952.6216               964.8880               981.8328
 Red. masses --      1.6495                 1.5764                 1.5372
 Frc consts  --      0.8819                 0.8647                 0.8731
 IR Inten    --     17.6796                48.9269                 5.0196

                     34                     35                     36
                      A                      A                      A
 Frequencies --    989.2252              1013.8711              1026.3813
 Red. masses --      1.6977                 2.5881                 1.7403
 Frc consts  --      0.9788                 1.5674                 1.0802
 IR Inten    --     15.0875                 2.9972                 1.1178

                     37                     38                     39
                      A                      A                      A
 Frequencies --   1045.9956              1075.5980              1094.5850
 Red. masses --      1.7785                 1.9435                 1.9792
 Frc consts  --      1.1465                 1.3247                 1.3971
 IR Inten    --      8.6162                 2.1173                 4.8173

                     40                     41                     42
                      A                      A                      A
 Frequencies --   1117.4924              1128.7881              1139.0335
 Red. masses --      2.3832                 1.9797                 1.9379
 Frc consts  --      1.7535                 1.4862                 1.4813
 IR Inten    --     10.7860                 4.3271                16.2287

                     43                     44                     45
                      A                      A                      A
 Frequencies --   1178.8166              1207.6268              1225.9529
 Red. masses --      2.0200                 1.7273                 1.3641
 Frc consts  --      1.6539                 1.4842                 1.2080
 IR Inten    --      5.8226                 7.1893                11.4242

                     46                     47                     48
                      A                      A                      A
 Frequencies --   1229.6972              1237.2986              1259.5177
 Red. masses --      1.3702                 1.5928                 1.3967
 Frc consts  --      1.2207                 1.4367                 1.3055
 IR Inten    --      5.9422                 1.3712                 1.4093

                     49                     50                     51
                      A                      A                      A
 Frequencies --   1277.4309              1299.6520              1314.5292
 Red. masses --      1.1715                 1.3623                 1.2545
 Frc consts  --      1.1263                 1.3558                 1.2772
 IR Inten    --      0.4189                 1.1763                 1.6681

                     52                     53                     54
                      A                      A                      A
 Frequencies --   1328.3547              1345.6984              1351.3200
 Red. masses --      1.3717                 1.3705                 1.3021
 Frc consts  --      1.4260                 1.4622                 1.4010
 IR Inten    --      1.9405                 5.9090                 0.9497

                     55                     56                     57
                      A                      A                      A
 Frequencies --   1366.4130              1385.5783              1386.5792
 Red. masses --      1.3266                 1.3197                 1.3439
 Frc consts  --      1.4593                 1.4928                 1.5223
 IR Inten    --      3.8025                 5.2267                 6.0153

                     58                     59                     60
                      A                      A                      A
 Frequencies --   1396.6915              1401.4239              1430.4512
 Red. masses --      1.3292                 1.3663                 1.2867
 Frc consts  --      1.5277                 1.5810                 1.5512
 IR Inten    --     11.0663                 1.2344                 6.2935

                     61                     62                     63
                      A                      A                      A
 Frequencies --   1430.8040              1447.0205              1450.0262
 Red. masses --      1.4507                 1.4226                 1.2680
 Frc consts  --      1.7498                 1.7550                 1.5708
 IR Inten    --      5.1893                 4.7204                 2.9491

                     64                     65                     66
                      A                      A                      A
 Frequencies --   1488.0089              1514.1731              1517.0084
 Red. masses --      1.1650                 1.0723                 1.0794
 Frc consts  --      1.5198                 1.4484                 1.4636
 IR Inten    --     12.1428                 0.6527                 0.2446

                     67                     68                     69
                      A                      A                      A
 Frequencies --   1520.2834              1521.4434              1527.4306
 Red. masses --      1.0723                 1.0627                 1.0826
 Frc consts  --      1.4603                 1.4494                 1.4881
 IR Inten    --      2.2210                 2.8254                 3.1756

                     70                     71                     72
                      A                      A                      A
 Frequencies --   1528.2113              1535.5943              1541.8088
 Red. masses --      1.0709                 1.0570                 1.0483
 Frc consts  --      1.4736                 1.4684                 1.4683
 IR Inten    --      2.3756                 2.6922                10.8978

                     73                     74                     75
                      A                      A                      A
 Frequencies --   1543.5431              1696.8904              3004.2454
 Red. masses --      1.0986                 1.0905                 1.0816
 Frc consts  --      1.5422                 1.8501                 5.7518
 IR Inten    --      0.7235                21.7130                20.6232

                     76                     77                     78
                      A                      A                      A
 Frequencies --   3021.7846              3026.3723              3036.4490
 Red. masses --      1.0636                 1.0623                 1.0386
 Frc consts  --      5.7220                 5.7327                 5.6420
 IR Inten    --     28.0059                 3.9431                22.2807

                     79                     80                     81
                      A                      A                      A
 Frequencies --   3040.3720              3043.5420              3046.8275
 Red. masses --      1.0703                 1.0466                 1.0776
 Frc consts  --      5.8292                 5.7117                 5.8940
 IR Inten    --     18.3304                41.9772                30.0513

                     82                     83                     84
                      A                      A                      A
 Frequencies --   3049.1128              3053.6100              3063.0620
 Red. masses --      1.0681                 1.0709                 1.0990
 Frc consts  --      5.8505                 5.8832                 6.0754
 IR Inten    --     48.1692                42.1014                47.9545

                     85                     86                     87
                      A                      A                      A
 Frequencies --   3069.4261              3073.6055              3096.0832
 Red. masses --      1.0638                 1.0979                 1.0999
 Frc consts  --      5.9049                 6.1109                 6.2121
 IR Inten    --     41.4416                48.7246                21.0940

                     88                     89                     90
                      A                      A                      A
 Frequencies --   3100.8500              3106.6017              3110.2092
 Red. masses --      1.1018                 1.1019                 1.1011
 Frc consts  --      6.2419                 6.2655                 6.2755
 IR Inten    --      8.1775                47.1707                64.5195

                     91                     92                     93
                      A                      A                      A
 Frequencies --   3112.5647              3115.5532              3121.3277
 Red. masses --      1.0986                 1.1008                 1.1043
 Frc consts  --      6.2707                 6.2957                 6.3390
 IR Inten    --     10.1940                44.0862                82.9296

                     94                     95                     96
                      A                      A                      A
 Frequencies --   3439.0646              3453.0799              3538.3718
 Red. masses --      1.0738                 1.0491                 1.0920
 Frc consts  --      7.4824                 7.3702                 8.0551
 IR Inten    --      2.8253                 4.0025                 1.3133

 - Thermochemistry -
 -------------------
 Temperature   298.150 Kelvin.  Pressure   1.00000 Atm.
 Atom     1 has atomic number  6 and mass  12.00000

 Molecular mass:   170.17830 amu.
 Principal axes and moments of inertia in atomic units:
                           1         2         3
     Eigenvalues --  1382.618303478.680464194.51963
           X            0.99997   0.00519  -0.00587
           Y           -0.00512   0.99990   0.01285
           Z            0.00594  -0.01282   0.99990
 This molecule is an asymmetric top.
 Rotational symmetry number  1.
 Warning -- assumption of classical behavior for rotation
           may cause significant error
 Rotational temperatures (Kelvin)      0.06264     0.02490     0.02065
 Rotational constants (GHZ):           1.30531     0.51880     0.43026
 Zero-point vibrational energy     838694.1 (Joules/Mol)
                                  200.45271 (Kcal/Mol)
 Warning -- explicit consideration of  19 degrees of freedom as
           vibrations may cause significant error
 Vibrational temperatures:     49.00    70.66    72.38   102.35   185.90
          (Kelvin)            228.37   236.01   322.16   337.76   349.16
                              402.81   412.33   482.20   551.58   577.76
                              625.83   680.31   696.67   764.25   929.23
                              962.96  1147.06  1190.18  1195.45  1212.21
                             1243.46  1269.01  1297.13  1313.43  1351.82
                             1370.61  1388.26  1412.64  1423.27  1458.73
                             1476.73  1504.95  1547.55  1574.86  1607.82
                             1624.07  1638.82  1696.05  1737.51  1763.87
                             1769.26  1780.20  1812.17  1837.94  1869.91
                             1891.31  1911.21  1936.16  1944.25  1965.96
                             1993.54  1994.98  2009.53  2016.34  2058.10
                             2058.61  2081.94  2086.26  2140.91  2178.56
                             2182.64  2187.35  2189.02  2197.63  2198.76
                             2209.38  2218.32  2220.81  2441.45  4322.44
                             4347.67  4354.27  4368.77  4374.42  4378.98
                             4383.71  4386.99  4393.46  4407.06  4416.22
                             4422.23  4454.57  4461.43  4469.71  4474.90
                             4478.29  4482.59  4490.89  4948.05  4968.21
                             5090.93

 Zero-point correction=                           0.319442 (Hartree/Particle)
 Thermal correction to Energy=                    0.333386
 Thermal correction to Enthalpy=                  0.334330
 Thermal correction to Gibbs Free Energy=         0.278022
 Sum of electronic and zero-point Energies=           -503.542400
 Sum of electronic and thermal Energies=              -503.528455
 Sum of electronic and thermal Enthalpies=            -503.527511
 Sum of electronic and thermal Free Energies=         -503.583820

                     E (Thermal)             CV                S
                      KCal/Mol        Cal/Mol-Kelvin    Cal/Mol-Kelvin
 Total                  209.203             52.538            118.512
 Electronic               0.000              0.000              0.000
 Translational            0.889              2.981             41.303
 Rotational               0.889              2.981             31.379
 Vibrational            207.426             46.577             45.830
 Vibration     1          0.594              1.983              5.578
 Vibration     2          0.595              1.978              4.853
 Vibration     3          0.595              1.977              4.805
 Vibration     4          0.598              1.968              4.122
 Vibration     5          0.612              1.924              2.958
 Vibration     6          0.621              1.893              2.565
 Vibration     7          0.623              1.887              2.503
 Vibration     8          0.649              1.805              1.927
 Vibration     9          0.655              1.788              1.842
 Vibration    10          0.659              1.775              1.783
 Vibration    11          0.680              1.711              1.534
 Vibration    12          0.684              1.699              1.494
 Vibration    13          0.716              1.605              1.235
 Vibration    14          0.753              1.506              1.026
 Vibration    15          0.767              1.467              0.957
 Vibration    16          0.796              1.394              0.843
 Vibration    17          0.830              1.310              0.730
 Vibration    18          0.840              1.285              0.699
 Vibration    19          0.886              1.181              0.585

                           ! Non-Optimized Parameters !
 Normal termination of Gaussian 16 at Wed Dec  9 18:08:07 2020.

 ----------------------------------------------------------------------
 # B3LYP/6-311++G(d,p) empiricaldispersion=gd3bj scf=xqc pop=npa geom=c
 heck
 ----------------------------------------------------------------------

 ---------------------------------------
 CID_116935932_JID_2657_Energie_neutraal
 ---------------------------------------
 Structure from the checkpoint file:  "JID_2657.chk"
 Charge =  0 Multiplicity = 1

 SCF Done:  E(RB3LYP) =  -504.013360108     A.U. after   13 cycles
 Normal termination of Gaussian 16 at Wed Dec  9 18:12:44 2020.

 ----------------------------------------------------------------------
 # B3LYP/6-311++G(d,p) empiricaldispersion=gd3bj scf=xqc pop=npa geom=c
 heck
 ----------------------------------------------------------------------

 -------------------------------------
 CID_116935932_JID_2657_Energie_kation
 -------------------------------------
 Structure from the checkpoint file:  "JID_2657.chk"
 Charge =  1 Multiplicity = 2

 SCF Done:  E(UB3LYP) =  -503.706129027     A.U. after   23 cycles
 Normal termination of Gaussian 16 at Wed Dec  9 18:24:08 2020.
 Gaussian 16:  ES64L-G16RevA.03 25-Dec-2016

 ----------------------------------------------------------------------
 # B3LYP/6-311++G(d,p) empiricaldispersion=gd3bj scf=xqc pop=npa geom=c
 heck
 ----------------------------------------------------------------------

 ------------------------------------
 CID_116935932_JID_2657_Energie_anion
 ------------------------------------
 Structure from the checkpoint file:  "JID_2657.chk"
 Charge = -1 Multiplicity = 2

                         Standard orientation:
 ---------------------------------------------------------------------
 Center     Atomic      Atomic             Coordinates (Angstroms)
 Number     Number       Type             X           Y           Z
 ---------------------------------------------------------------------
      1          6           0       -3.224081   -0.277086    1.240033
      2          6           0       -2.223892   -0.792497    0.197155
      3          6           0       -2.856529   -1.898143   -0.657339
      4          6           0       -1.698724    0.332878   -0.709282
      5          6           0       -0.951910    1.480445   -0.016434
      6          6           0        0.288904    1.046411    0.800407
      7          6           0        1.421668    0.376837    0.018312
      8          6           0        1.326861   -1.156668   -0.181686
      9          6           0        2.796389   -1.613981   -0.356319
     10          6           0        3.632354   -0.358772    0.035731
     11          7           0        2.721904    0.599290    0.680426
     12          7           0       -0.673126    2.509620   -1.029930
     13          1           0       -4.071644    0.220924    0.751850
     14          1           0       -2.767558    0.441800    1.928710
     15          1           0       -3.622694   -1.102978    1.840556
     16          1           0       -1.375251   -1.236001    0.734136
     17          1           0       -3.715316   -1.511890   -1.221083
     18          1           0       -2.138047   -2.302076   -1.380501
     19          1           0       -3.211513   -2.727735   -0.034976
     20          1           0       -1.042133   -0.104687   -1.475090
     21          1           0       -2.542288    0.776707   -1.253880
     22          1           0       -1.641469    1.948011    0.698091
     23          1           0        0.704446    1.952897    1.260643
     24          1           0       -0.019399    0.392800    1.629047
     25          1           0        1.502765    0.852329   -0.971161
     26          1           0        0.889814   -1.608848    0.717031
     27          1           0        0.692816   -1.442859   -1.025989
     28          1           0        3.023804   -2.468016    0.289953
     29          1           0        3.008748   -1.926016   -1.384260
     30          1           0        4.475289   -0.585092    0.695098
     31          1           0        4.042077    0.113898   -0.865523
     32          1           0        2.614149    0.331024    1.660848
     33          1           0       -0.135715    3.267712   -0.609796
     34          1           0       -0.078572    2.119181   -1.760642
 ---------------------------------------------------------------------

 SCF Done:  E(UB3LYP) =  -503.998523752     A.U. after   27 cycles

 The electronic state is 2-A.
 Alpha  occ. eigenvalues --  -14.19663 -14.19215 -10.09953 -10.09226 -10.08455
 Alpha  occ. eigenvalues --  -10.07315 -10.06323 -10.06189 -10.05888 -10.05880
 Alpha  occ. eigenvalues --  -10.05831 -10.05759  -0.81756  -0.79256  -0.70846
 Alpha  occ. eigenvalues --   -0.66094  -0.65043  -0.61194  -0.58624  -0.56962
 Alpha  occ. eigenvalues --   -0.50436  -0.48765  -0.47405  -0.44989  -0.40153
 Alpha  occ. eigenvalues --   -0.37659  -0.37339  -0.36017  -0.35146  -0.34741
 Alpha  occ. eigenvalues --   -0.33078  -0.32269  -0.31328  -0.29740  -0.29397
 Alpha  occ. eigenvalues --   -0.28651  -0.27122  -0.26106  -0.24410  -0.24018
 Alpha  occ. eigenvalues --   -0.23854  -0.23306  -0.22563  -0.22420  -0.21138
 Alpha  occ. eigenvalues --   -0.20968  -0.14975  -0.13287   0.04524
 Alpha virt. eigenvalues --    0.06705   0.07071   0.07359   0.08714   0.09075
 Alpha virt. eigenvalues --    0.09288   0.09812   0.09883   0.11144   0.11514
 Alpha virt. eigenvalues --    0.11925   0.12153   0.12585   0.12877   0.13903

  Beta  occ. eigenvalues --  -14.19650 -14.19196 -10.09946 -10.09217 -10.08434
  Beta  occ. eigenvalues --  -10.07307 -10.06307 -10.06178 -10.05863 -10.05855
  Beta  occ. eigenvalues --  -10.05811 -10.05732  -0.81723  -0.79229  -0.70820
  Beta  occ. eigenvalues --   -0.66058  -0.64992  -0.61159  -0.58573  -0.56913
  Beta  occ. eigenvalues --   -0.50386  -0.48704  -0.47344  -0.44943  -0.40120
  Beta  occ. eigenvalues --   -0.37620  -0.37291  -0.35981  -0.35110  -0.34706
  Beta  occ. eigenvalues --   -0.33040  -0.32234  -0.31289  -0.29701  -0.29366
  Beta  occ. eigenvalues --   -0.28622  -0.27092  -0.26075  -0.24367  -0.23975
  Beta  occ. eigenvalues --   -0.23823  -0.23271  -0.22537  -0.22390  -0.21100
  Beta  occ. eigenvalues --   -0.20936  -0.14957  -0.13250
  Beta virt. eigenvalues --    0.06647   0.07392   0.07755   0.07948   0.09101
  Beta virt. eigenvalues --    0.09497   0.09683   0.10124   0.10384   0.11602
  Beta virt. eigenvalues --    0.11773   0.12163   0.12402   0.12941   0.13173

 Mulliken charges and spin densities:
               1          2
     1  C    0.345870  -0.981786
     2  C   -1.470893   1.868994
     3  C    0.601975  -1.272839
     4  C    0.985389  -1.301457
     5  C    0.486434  -0.780010
     6  C    0.790070  -0.996388
     7  C   -2.148498   1.660171
     8  C    0.195010  -0.467018
     9  C    0.952844  -1.435360
    10  C    0.323194  -0.708225
    11  N    0.012145   0.047419
    12  N   -0.322269   0.061658
    13  H   -0.013906   0.152140
    14  H   -0.000233   0.126173
    15  H   -0.310558   0.451849
    16  H   -0.053889   0.218837
    17  H    0.020200   0.103378
    18  H   -0.338819   0.476653
    19  H   -0.218554   0.365504
    20  H   -0.055684   0.198680
    21  H    0.110109   0.083137
    22  H    0.145580   0.070426
    23  H   -0.013808   0.200317
    24  H   -0.316962   0.481645
    25  H   -0.226276   0.381718
    26  H   -0.277901   0.443244
    27  H    0.431283  -0.316390
    28  H   -0.154282   0.289203
    29  H   -0.373635   0.509772
    30  H   -0.475870   0.642304
    31  H    0.129250   0.016780
    32  H   -0.004221   0.223630
    33  H    0.090404   0.129212
    34  H    0.156500   0.056627
 Sum of Mulliken charges =  -1.00000   1.00000

 Dipole moment (field-independent basis, Debye):
    X=             -1.1860    Y=              3.2724    Z=             -1.5921  Tot=              3.8275
 Quadrupole moment (field-independent basis, Debye-Ang):
   XX=           -149.5368   YY=           -125.3269   ZZ=           -116.9755
   XY=             -0.0435   XZ=             -2.2313   YZ=              3.0946

 Summary of Natural Population Analysis:

                                       Natural Population
                Natural  -----------------------------------------------
    Atom  No    Charge         Core      Valence    Rydberg      Total
 -----------------------------------------------------------------------
      C    1   -0.28461      0.99965     2.27866    0.00630     3.28461
      C    2   -0.12085      0.99961     2.11200    0.00924     3.12085
      C    3   -0.28091      0.99965     2.27493    0.00633     3.28091
      C    4   -0.19049      0.99959     2.18207    0.00883     3.19049
      C    5   -0.00907      0.99959     1.99843    0.01104     3.00907
      C    6   -0.20071      0.99958     2.19063    0.01050     3.20071
      C    7   -0.01492      0.99959     2.00178    0.01355     3.01492
      C    8   -0.20005      0.99962     2.19159    0.00884     3.20005
      C    9   -0.20150      0.99965     2.19450    0.00736     3.20150
      C   10   -0.09079      0.99965     2.08007    0.01108     3.09079
      N   11   -0.33413      0.99976     2.82221    0.01216     3.83413
      N   12   -0.41913      0.99977     2.91086    0.00849     3.91913
      H   13    0.09459      0.00000     0.40451    0.00090     0.40541
      H   14    0.09841      0.00000     0.40049    0.00110     0.40159
      H   15    0.10060      0.00000     0.39845    0.00095     0.39940
      H   16    0.09669      0.00000     0.40030    0.00301     0.40331
      H   17    0.09385      0.00000     0.40520    0.00095     0.40615
      H   18    0.10003      0.00000     0.39888    0.00109     0.39997
      H   19    0.09971      0.00000     0.39930    0.00099     0.40029
      H   20    0.09666      0.00000     0.40205    0.00129     0.40334
      H   21    0.10121      0.00000     0.39747    0.00132     0.39879
      H   22    0.08947      0.00000     0.40879    0.00174     0.41053
      H   23    0.10146      0.00000     0.39695    0.00158     0.39854
      H   24    0.10055      0.00000     0.39782    0.00162     0.39945
      H   25    0.08432      0.00000     0.41323    0.00246     0.41568
      H   26    0.09658      0.00000     0.40095    0.00247     0.40342
      H   27    0.10182      0.00000     0.39666    0.00152     0.39818
      H   28    0.09959      0.00000     0.39872    0.00169     0.40041
      H   29    0.09697      0.00000     0.40172    0.00130     0.40303
      H   30    0.09588      0.00000     0.40286    0.00126     0.40412
      H   31    0.08660      0.00000     0.41200    0.00141     0.41340
      H   32    0.16862      0.00000     0.32795    0.00343     0.33138
      H   33    0.17279      0.00000     0.32550    0.00171     0.32721
      H   34    0.17077      0.00000     0.32732    0.00192     0.32923
 =======================================================================
   * Total *   -0.00000     11.99571    35.85487    0.14942    48.00000

 Normal termination of Gaussian 16 at Wed Dec  9 18:37:00 2020.
