 Gaussian 16, Revision A.03,

 -----------------------------------------------------------
 # opt freq B3LYP/6-31G(d) empiricaldispersion=gd3bj scf=xqc
 -----------------------------------------------------------

 ------------------------------
 CID_89359915_JID_4392_neutraal
 ------------------------------
 Symbolic Z-matrix:
 Charge =  0 Multiplicity = 1

 SCF Done:  E(RB3LYP) =  -653.327296573     A.U. after   14 cycles
 SCF Done:  E(RB3LYP) =  -653.331751679     A.U. after   13 cycles
 SCF Done:  E(RB3LYP) =  -653.331098773     A.U. after   13 cycles
 SCF Done:  E(RB3LYP) =  -653.333721797     A.U. after   12 cycles
 SCF Done:  E(RB3LYP) =  -653.333874718     A.U. after   11 cycles
 SCF Done:  E(RB3LYP) =  -653.333923609     A.U. after   10 cycles
 SCF Done:  E(RB3LYP) =  -653.333939550     A.U. after   11 cycles
 SCF Done:  E(RB3LYP) =  -653.333946615     A.U. after    9 cycles
 SCF Done:  E(RB3LYP) =  -653.333949446     A.U. after    9 cycles
 SCF Done:  E(RB3LYP) =  -653.333951334     A.U. after   10 cycles
 SCF Done:  E(RB3LYP) =  -653.333972066     A.U. after    9 cycles
 SCF Done:  E(RB3LYP) =  -653.333978958     A.U. after   10 cycles
 SCF Done:  E(RB3LYP) =  -653.333980128     A.U. after    9 cycles
 SCF Done:  E(RB3LYP) =  -653.333980411     A.U. after    9 cycles
 SCF Done:  E(RB3LYP) =  -653.333980542     A.U. after    8 cycles
 SCF Done:  E(RB3LYP) =  -653.333980551     A.U. after    7 cycles
 Optimization completed.
    -- Stationary point found.
 Normal termination of Gaussian 16 at Thu Dec 10 09:31:51 2020.

 --------------------------------------------------------------------
 #N Geom=AllCheck Guess=TCheck SCRF=Check GenChk RB3LYP/6-31G(d) Freq
 --------------------------------------------------------------------

 Structure from the checkpoint file:  "JID_4392.chk"
 ------------------------------
 CID_89359915_JID_4392_neutraal
 ------------------------------
 Charge =  0 Multiplicity = 1

 SCF Done:  E(RB3LYP) =  -653.333980551     A.U. after    1 cycles

  Exact polarizability: 160.853  -6.000 142.579   5.797  -1.255  70.504
 Approx polarizability: 227.314  -9.231 223.645  13.035  -5.220 104.394

                      1                      2                      3
                      A                      A                      A
 Frequencies --     23.7958                28.7866                60.4155
 Red. masses --      1.0663                 3.7719                 3.5739
 Frc consts  --      0.0004                 0.0018                 0.0077
 IR Inten    --      0.0827                 0.2785                 1.1903

                      4                      5                      6
                      A                      A                      A
 Frequencies --     89.1487               102.1267               142.1432
 Red. masses --      3.8814                 4.2920                 2.6464
 Frc consts  --      0.0182                 0.0264                 0.0315
 IR Inten    --      1.8590                 0.3092                 0.8159

                      7                      8                      9
                      A                      A                      A
 Frequencies --    160.3699               174.0589               211.7742
 Red. masses --      2.5312                 3.3300                 4.1244
 Frc consts  --      0.0384                 0.0594                 0.1090
 IR Inten    --      3.8650                 0.5471                 0.4221

                     10                     11                     12
                      A                      A                      A
 Frequencies --    234.6385               294.5868               316.3003
 Red. masses --      1.2959                 2.4098                 3.7411
 Frc consts  --      0.0420                 0.1232                 0.2205
 IR Inten    --      1.7439                25.5941                 0.4267

                     13                     14                     15
                      A                      A                      A
 Frequencies --    333.6829               361.3929               377.6919
 Red. masses --      3.0737                 3.8761                 1.4380
 Frc consts  --      0.2016                 0.2983                 0.1209
 IR Inten    --      3.8996                 7.5097               123.7561

                     16                     17                     18
                      A                      A                      A
 Frequencies --    389.1482               437.5014               463.8737
 Red. masses --      5.1559                 3.3872                 3.5068
 Frc consts  --      0.4600                 0.3820                 0.4446
 IR Inten    --     18.0054                 1.8581                 2.4459

                     19                     20                     21
                      A                      A                      A
 Frequencies --    487.3879               525.7468               603.8446
 Red. masses --      4.3592                 3.4702                 4.6775
 Frc consts  --      0.6101                 0.5651                 1.0049
 IR Inten    --      0.9681                14.8118                 5.8859

                     22                     23                     24
                      A                      A                      A
 Frequencies --    695.2732               702.2935               752.4315
 Red. masses --      6.0488                 3.9574                 3.7032
 Frc consts  --      1.7228                 1.1500                 1.2353
 IR Inten    --      4.9654                 0.5962                 0.2154

                     25                     26                     27
                      A                      A                      A
 Frequencies --    776.4660               791.4808               839.5029
 Red. masses --      3.6545                 2.2138                 2.0131
 Frc consts  --      1.2981                 0.8171                 0.8359
 IR Inten    --     16.4436                 6.0217                 4.3101

                     28                     29                     30
                      A                      A                      A
 Frequencies --    855.1282               889.6822               926.6222
 Red. masses --      1.3583                 2.9640                 1.3538
 Frc consts  --      0.5852                 1.3823                 0.6849
 IR Inten    --     11.5708                 2.8498                 1.9747

                     31                     32                     33
                      A                      A                      A
 Frequencies --    942.3427               974.8208              1000.7533
 Red. masses --      3.3398                 1.4419                 1.4276
 Frc consts  --      1.7474                 0.8073                 0.8424
 IR Inten    --      4.8652                17.0476                20.3002

                     34                     35                     36
                      A                      A                      A
 Frequencies --   1030.4544              1044.1144              1072.4632
 Red. masses --      1.6409                 2.9073                 5.5829
 Frc consts  --      1.0266                 1.8674                 3.7833
 IR Inten    --      0.8961                17.3604               165.1960

                     37                     38                     39
                      A                      A                      A
 Frequencies --   1078.5226              1111.9855              1134.7059
 Red. masses --      1.5152                 3.3923                 2.1173
 Frc consts  --      1.0385                 2.4714                 1.6062
 IR Inten    --      4.4072                32.6876                58.7736

                     40                     41                     42
                      A                      A                      A
 Frequencies --   1176.5634              1209.4413              1221.3349
 Red. masses --      1.5377                 1.8082                 3.2060
 Frc consts  --      1.2542                 1.5583                 2.8177
 IR Inten    --     39.4058                 4.1363                74.6346

                     43                     44                     45
                      A                      A                      A
 Frequencies --   1222.1216              1244.0549              1295.4597
 Red. masses --      1.1304                 1.8864                 2.8116
 Frc consts  --      0.9947                 1.7202                 2.7800
 IR Inten    --     16.6356               127.4498               235.9304

                     46                     47                     48
                      A                      A                      A
 Frequencies --   1311.1416              1344.3484              1355.7636
 Red. masses --      1.9531                 1.1227                 4.3526
 Frc consts  --      1.9783                 1.1954                 4.7138
 IR Inten    --    157.2011                 7.6087                52.7948

                     49                     50                     51
                      A                      A                      A
 Frequencies --   1400.8542              1417.5084              1419.8801
 Red. masses --      1.3923                 1.2603                 1.2958
 Frc consts  --      1.6098                 1.4920                 1.5392
 IR Inten    --      3.5621                66.8517                15.2740

                     52                     53                     54
                      A                      A                      A
 Frequencies --   1443.4440              1444.1748              1450.5040
 Red. masses --      1.3341                 1.2824                 2.6122
 Frc consts  --      1.6377                 1.5758                 3.2381
 IR Inten    --      9.3884                 0.7719                 1.9499

                     55                     56                     57
                      A                      A                      A
 Frequencies --   1493.5644              1515.2335              1515.9510
 Red. masses --      1.1077                 1.0557                 1.0446
 Frc consts  --      1.4559                 1.4281                 1.4143
 IR Inten    --      2.0163                13.2642                 5.3923

                     58                     59                     60
                      A                      A                      A
 Frequencies --   1518.2883              1526.2176              1538.4048
 Red. masses --      1.0774                 1.1164                 1.0711
 Frc consts  --      1.4633                 1.5321                 1.4936
 IR Inten    --      6.6240                 6.3929                 7.1662

                     61                     62                     63
                      A                      A                      A
 Frequencies --   1543.6559              1625.0306              1673.8671
 Red. masses --      2.6768                 5.7306                 5.9097
 Frc consts  --      3.7581                 8.9161                 9.7557
 IR Inten    --     15.5024                22.1578                 3.9280

                     64                     65                     66
                      A                      A                      A
 Frequencies --   1779.8433              3045.2380              3061.7561
 Red. masses --     11.2438                 1.0378                 1.0363
 Frc consts  --     20.9859                 5.6704                 5.7239
 IR Inten    --    218.5004                33.0537                19.7659

                     67                     68                     69
                      A                      A                      A
 Frequencies --   3065.9674              3093.7429              3097.7887
 Red. masses --      1.0653                 1.0588                 1.1005
 Frc consts  --      5.9003                 5.9709                 6.2222
 IR Inten    --     23.0623                29.6768                19.9882

                     70                     71                     72
                      A                      A                      A
 Frequencies --   3118.7324              3127.3759              3129.2163
 Red. masses --      1.0992                 1.1021                 1.1010
 Frc consts  --      6.2992                 6.3506                 6.3520
 IR Inten    --     12.7028                26.4962                15.5409

                     73                     74                     75
                      A                      A                      A
 Frequencies --   3140.4646              3159.7854              3177.5903
 Red. masses --      1.1043                 1.1069                 1.0895
 Frc consts  --      6.4167                 6.5116                 6.4815
 IR Inten    --      8.5871                27.2380                17.6832

                     76                     77                     78
                      A                      A                      A
 Frequencies --   3225.5084              3228.4851              3736.3501
 Red. masses --      1.0906                 1.0902                 1.0662
 Frc consts  --      6.6849                 6.6951                 8.7695
 IR Inten    --      6.2594                 2.5123                12.3558

 - Thermochemistry -
 -------------------
 Temperature   298.150 Kelvin.  Pressure   1.00000 Atm.
 Atom     1 has atomic number  6 and mass  12.00000

 Molecular mass:   194.09429 amu.
 Principal axes and moments of inertia in atomic units:
                           1         2         3
     Eigenvalues --  2164.450033622.810485565.64750
           X            0.99977  -0.02084  -0.00501
           Y            0.02085   0.99978   0.00257
           Z            0.00496  -0.00267   0.99998
 This molecule is an asymmetric top.
 Rotational symmetry number  1.
 Warning -- assumption of classical behavior for rotation
           may cause significant error
 Rotational temperatures (Kelvin)      0.04002     0.02391     0.01556
 Rotational constants (GHZ):           0.83381     0.49816     0.32426
 Zero-point vibrational energy     613278.2 (Joules/Mol)
                                  146.57701 (Kcal/Mol)
 Warning -- explicit consideration of  21 degrees of freedom as
           vibrations may cause significant error
 Vibrational temperatures:     34.24    41.42    86.92   128.27   146.94
          (Kelvin)            204.51   230.74   250.43   304.70   337.59
                              423.84   455.09   480.10   519.96   543.41
                              559.90   629.47   667.41   701.24   756.43
                              868.80  1000.34  1010.44  1082.58  1117.16
                             1138.76  1207.86  1230.34  1280.05  1333.20
                             1355.82  1402.55  1439.86  1482.59  1502.25
                             1543.04  1551.75  1599.90  1632.59  1692.81
                             1740.12  1757.23  1758.36  1789.92  1863.88
                             1886.44  1934.22  1950.64  2015.52  2039.48
                             2042.89  2076.79  2077.85  2086.95  2148.91
                             2180.08  2181.12  2184.48  2195.89  2213.42
                             2220.98  2338.06  2408.32  2560.80  4381.42
                             4405.18  4411.24  4451.21  4457.03  4487.16
                             4499.60  4502.24  4518.43  4546.23  4571.84
                             4640.79  4645.07  5375.77

 Zero-point correction=                           0.233585 (Hartree/Particle)
 Thermal correction to Energy=                    0.247964
 Thermal correction to Enthalpy=                  0.248908
 Thermal correction to Gibbs Free Energy=         0.190564
 Sum of electronic and zero-point Energies=           -653.100395
 Sum of electronic and thermal Energies=              -653.086017
 Sum of electronic and thermal Enthalpies=            -653.085073
 Sum of electronic and thermal Free Energies=         -653.143417

                     E (Thermal)             CV                S
                      KCal/Mol        Cal/Mol-Kelvin    Cal/Mol-Kelvin
 Total                  155.600             52.418            122.795
 Electronic               0.000              0.000              0.000
 Translational            0.889              2.981             41.695
 Rotational               0.889              2.981             32.145
 Vibrational            153.822             46.456             48.955
 Vibration     1          0.593              1.985              6.289
 Vibration     2          0.593              1.984              5.911
 Vibration     3          0.597              1.973              4.444
 Vibration     4          0.602              1.957              3.679
 Vibration     5          0.604              1.947              3.413
 Vibration     6          0.616              1.911              2.775
 Vibration     7          0.622              1.891              2.545
 Vibration     8          0.627              1.874              2.391
 Vibration     9          0.643              1.823              2.028
 Vibration    10          0.654              1.788              1.843
 Vibration    11          0.689              1.684              1.447
 Vibration    12          0.703              1.642              1.329
 Vibration    13          0.715              1.608              1.242
 Vibration    14          0.736              1.552              1.116
 Vibration    15          0.748              1.518              1.048
 Vibration    16          0.757              1.493              1.003
 Vibration    17          0.798              1.388              0.834
 Vibration    18          0.821              1.330              0.755
 Vibration    19          0.843              1.278              0.690
 Vibration    20          0.881              1.193              0.597
 Vibration    21          0.962              1.024              0.443

 Optimization completed.
    -- Stationary point found.
 Normal termination of Gaussian 16 at Thu Dec 10 09:39:26 2020.

 ----------------------------------------------------------------------
 # B3LYP/6-311++G(d,p) empiricaldispersion=gd3bj scf=xqc pop=npa geom=c
 heck
 ----------------------------------------------------------------------

 --------------------------------------
 CID_89359915_JID_4392_Energie_neutraal
 --------------------------------------
 Structure from the checkpoint file:  "JID_4392.chk"
 Charge =  0 Multiplicity = 1

 SCF Done:  E(RB3LYP) =  -653.524412813     A.U. after   15 cycles
 Normal termination of Gaussian 16 at Thu Dec 10 09:43:04 2020.

 ----------------------------------------------------------------------
 # B3LYP/6-311++G(d,p) empiricaldispersion=gd3bj scf=xqc pop=npa geom=c
 heck
 ----------------------------------------------------------------------

 ------------------------------------
 CID_89359915_JID_4392_Energie_kation
 ------------------------------------
 Structure from the checkpoint file:  "JID_4392.chk"
 Charge =  1 Multiplicity = 2

 SCF Done:  E(UB3LYP) =  -653.207312950     A.U. after   26 cycles
 Normal termination of Gaussian 16 at Thu Dec 10 09:52:00 2020.
 Gaussian 16:  ES64L-G16RevA.03 25-Dec-2016

 ----------------------------------------------------------------------
 # B3LYP/6-311++G(d,p) empiricaldispersion=gd3bj scf=xqc pop=npa geom=c
 heck
 ----------------------------------------------------------------------

 -----------------------------------
 CID_89359915_JID_4392_Energie_anion
 -----------------------------------
 Structure from the checkpoint file:  "JID_4392.chk"
 Charge = -1 Multiplicity = 2

                         Standard orientation:
 ---------------------------------------------------------------------
 Center     Atomic      Atomic             Coordinates (Angstroms)
 Number     Number       Type             X           Y           Z
 ---------------------------------------------------------------------
      1          6           0       -4.124750   -0.318330    0.923243
      2          6           0       -3.472260   -0.753786   -0.379134
      3          8           0       -2.047344   -0.928379   -0.217809
      4          6           0       -1.292598    0.192663   -0.307059
      5          8           0       -1.773955    1.294220   -0.511088
      6          6           0        0.158093   -0.085039   -0.138834
      7          6           0        1.086800    0.975946   -0.055507
      8          6           0        2.441231    0.646067    0.057339
      9          6           0        2.868778   -0.677116    0.102192
     10          6           0        1.954316   -1.735247    0.038187
     11          6           0        0.604053   -1.415270   -0.084455
     12          6           0        2.418431   -3.169793    0.100454
     13          6           0        0.690145    2.445620   -0.082063
     14          8           0        1.771077    3.321044    0.220564
     15          1           0       -3.900286   -1.029107    1.725103
     16          1           0       -5.212369   -0.270593    0.797775
     17          1           0       -3.767388    0.672343    1.215654
     18          1           0       -3.828313   -1.736107   -0.698449
     19          1           0       -3.650831   -0.025399   -1.173569
     20          1           0        3.163010    1.453994    0.096442
     21          1           0        3.932053   -0.892048    0.185024
     22          1           0       -0.131322   -2.209086   -0.144996
     23          1           0        3.180652   -3.376190   -0.660205
     24          1           0        2.864939   -3.402304    1.075323
     25          1           0        1.587731   -3.863721   -0.058976
     26          1           0        0.349060    2.724301   -1.082833
     27          1           0       -0.161743    2.620540    0.584367
     28          1           0        1.983139    3.204009    1.159829
 ---------------------------------------------------------------------

 SCF Done:  E(UB3LYP) =  -653.524968235     A.U. after   29 cycles

 The electronic state is 2-A.
 Alpha  occ. eigenvalues --  -19.01584 -19.00342 -18.94166 -10.12689 -10.10420
 Alpha  occ. eigenvalues --  -10.08373 -10.05151 -10.05021 -10.03833 -10.03358
 Alpha  occ. eigenvalues --  -10.02529 -10.02396 -10.02157 -10.01778  -0.95414
 Alpha  occ. eigenvalues --   -0.90376  -0.86157  -0.71747  -0.65440  -0.64532
 Alpha  occ. eigenvalues --   -0.60739  -0.58235  -0.53808  -0.52191  -0.47959
 Alpha  occ. eigenvalues --   -0.44597  -0.41686  -0.39313  -0.37373  -0.34832
 Alpha  occ. eigenvalues --   -0.34613  -0.33205  -0.31558  -0.31282  -0.30548
 Alpha  occ. eigenvalues --   -0.30139  -0.28890  -0.28250  -0.28094  -0.26359
 Alpha  occ. eigenvalues --   -0.25744  -0.24688  -0.23072  -0.21860  -0.21021
 Alpha  occ. eigenvalues --   -0.20705  -0.19685  -0.16732  -0.15956  -0.12320
 Alpha  occ. eigenvalues --   -0.11692  -0.10408   0.05063
 Alpha virt. eigenvalues --    0.07349   0.08245   0.08840   0.09891   0.10246
 Alpha virt. eigenvalues --    0.10764   0.11339   0.11773   0.12499   0.13049
 Alpha virt. eigenvalues --    0.13607   0.13900   0.14237   0.14882   0.16194

  Beta  occ. eigenvalues --  -19.01536 -19.00332 -18.93849 -10.12437 -10.10419
  Beta  occ. eigenvalues --  -10.08384 -10.05148 -10.04990 -10.03890 -10.03199
  Beta  occ. eigenvalues --  -10.02576 -10.02237 -10.02009 -10.01441  -0.95146
  Beta  occ. eigenvalues --   -0.90349  -0.85690  -0.71422  -0.65261  -0.64379
  Beta  occ. eigenvalues --   -0.60312  -0.58096  -0.53582  -0.52049  -0.47400
  Beta  occ. eigenvalues --   -0.44482  -0.41514  -0.39224  -0.37242  -0.34662
  Beta  occ. eigenvalues --   -0.34369  -0.32900  -0.31313  -0.31063  -0.30371
  Beta  occ. eigenvalues --   -0.30075  -0.28783  -0.28066  -0.27968  -0.25921
  Beta  occ. eigenvalues --   -0.25451  -0.24412  -0.22914  -0.21605  -0.20793
  Beta  occ. eigenvalues --   -0.20204  -0.19445  -0.16299  -0.15364  -0.11999
  Beta  occ. eigenvalues --   -0.10421  -0.09295
  Beta virt. eigenvalues --    0.07643   0.08211   0.08765   0.09944   0.10274
  Beta virt. eigenvalues --    0.10468   0.10775   0.11562   0.11819   0.12445
  Beta virt. eigenvalues --    0.13059   0.13573   0.14080   0.14232   0.14766

 Mulliken charges and spin densities:
               1          2
     1  C    0.361255  -0.704325
     2  C   -0.343622   0.171180
     3  O   -0.012393   0.013046
     4  C   -0.430586   0.126340
     5  O   -0.337483   0.107926
     6  C    0.438294   0.049806
     7  C    0.689908   0.175496
     8  C   -0.667827  -0.038905
     9  C   -0.211826   0.239992
    10  C    0.535924  -0.068174
    11  C   -1.257891   0.183493
    12  C   -0.431265  -0.014928
    13  C   -0.167272  -0.131485
    14  O   -0.264065  -0.006486
    15  H    0.023473   0.105120
    16  H   -0.260058   0.376134
    17  H    0.035361   0.136474
    18  H   -0.062238   0.192717
    19  H    0.176284  -0.017445
    20  H    0.062162   0.029867
    21  H    0.099993  -0.018394
    22  H    0.137693  -0.023983
    23  H    0.079873   0.043081
    24  H    0.132683  -0.005794
    25  H    0.127600   0.012131
    26  H    0.190377   0.009190
    27  H    0.160285   0.022484
    28  H    0.195360   0.035441
 Sum of Mulliken charges =  -1.00000   1.00000

 Dipole moment (field-independent basis, Debye):
    X=              1.7700    Y=             -1.6771    Z=              0.8301  Tot=              2.5758
 Quadrupole moment (field-independent basis, Debye-Ang):
   XX=           -132.2419   YY=           -111.6689   ZZ=            -93.7060
   XY=             -0.9814   XZ=              5.6013   YZ=              4.9186

 Summary of Natural Population Analysis:

                                       Natural Population
                Natural  -----------------------------------------------
    Atom  No    Charge         Core      Valence    Rydberg      Total
 -----------------------------------------------------------------------
      C    1   -0.30010      0.99966     2.29531    0.00513     3.30010
      C    2   -0.01787      0.99959     2.00472    0.01356     3.01787
      O    3   -0.28793      0.99986     3.27948    0.00859     4.28793
      C    4    0.43024      0.99963     1.54640    0.02373     2.56976
      O    5   -0.30299      0.99987     3.29783    0.00528     4.30299
      C    6   -0.05232      0.99943     2.04349    0.00940     3.05232
      C    7    0.01583      0.99948     1.97649    0.00819     2.98417
      C    8   -0.12651      0.99953     2.11756    0.00942     3.12651
      C    9   -0.03400      0.99952     2.02546    0.00902     3.03400
      C   10   -0.04504      0.99951     2.03708    0.00845     3.04504
      C   11   -0.05455      0.99950     2.04677    0.00828     3.05455
      C   12   -0.28667      0.99964     2.28256    0.00447     3.28667
      C   13   -0.01884      0.99956     2.00754    0.01174     3.01884
      O   14   -0.37301      0.99990     3.36692    0.00620     4.37301
      H   15    0.09696      0.00000     0.40194    0.00110     0.40304
      H   16    0.09573      0.00000     0.40285    0.00142     0.40427
      H   17    0.10786      0.00000     0.39085    0.00129     0.39214
      H   18    0.08273      0.00000     0.41610    0.00117     0.41727
      H   19    0.09326      0.00000     0.40545    0.00128     0.40674
      H   20    0.09822      0.00000     0.39999    0.00180     0.40178
      H   21    0.08351      0.00000     0.41503    0.00146     0.41649
      H   22    0.10024      0.00000     0.39862    0.00114     0.39976
      H   23    0.09563      0.00000     0.40332    0.00106     0.40437
      H   24    0.09494      0.00000     0.40398    0.00108     0.40506
      H   25    0.09689      0.00000     0.40220    0.00091     0.40311
      H   26    0.09440      0.00000     0.40352    0.00208     0.40560
      H   27    0.09156      0.00000     0.40669    0.00174     0.40844
      H   28    0.22182      0.00000     0.27472    0.00346     0.27818
 =======================================================================
   * Total *    0.00000     13.99469    37.85286    0.15245    52.00000

 Normal termination of Gaussian 16 at Thu Dec 10 10:02:08 2020.
