 Gaussian 16, Revision A.03,

 -----------------------------------------------------------
 # opt freq B3LYP/6-31G(d) empiricaldispersion=gd3bj scf=xqc
 -----------------------------------------------------------

 -------------------------------
 CID_131396298_JID_4552_neutraal
 -------------------------------
 Symbolic Z-matrix:
 Charge =  0 Multiplicity = 1

 SCF Done:  E(RB3LYP) =  -612.332734787     A.U. after   15 cycles
 SCF Done:  E(RB3LYP) =  -612.354820666     A.U. after   13 cycles
 SCF Done:  E(RB3LYP) =  -612.355400379     A.U. after   12 cycles
 SCF Done:  E(RB3LYP) =  -612.355561592     A.U. after   12 cycles
 SCF Done:  E(RB3LYP) =  -612.355625130     A.U. after   11 cycles
 SCF Done:  E(RB3LYP) =  -612.355637409     A.U. after    9 cycles
 SCF Done:  E(RB3LYP) =  -612.355639468     A.U. after    8 cycles
 SCF Done:  E(RB3LYP) =  -612.355640088     A.U. after    8 cycles
 SCF Done:  E(RB3LYP) =  -612.355640228     A.U. after    8 cycles
 SCF Done:  E(RB3LYP) =  -612.355640305     A.U. after    8 cycles
 SCF Done:  E(RB3LYP) =  -612.355640356     A.U. after    7 cycles
 Optimization completed.
    -- Stationary point found.
 Normal termination of Gaussian 16 at Thu Dec 10 10:03:04 2020.

 --------------------------------------------------------------------
 #N Geom=AllCheck Guess=TCheck SCRF=Check GenChk RB3LYP/6-31G(d) Freq
 --------------------------------------------------------------------

 Structure from the checkpoint file:  "JID_4552.chk"
 -------------------------------
 CID_131396298_JID_4552_neutraal
 -------------------------------
 Charge =  0 Multiplicity = 1

 SCF Done:  E(RB3LYP) =  -612.355640356     A.U. after    1 cycles

  Exact polarizability: 163.783  -3.825 114.605   9.205  18.692  91.395
 Approx polarizability: 223.256  -1.253 194.208  22.518  48.846 146.697

                      1                      2                      3
                      A                      A                      A
 Frequencies --     27.9651                41.7884                57.7800
 Red. masses --      4.5434                 4.4100                 7.1748
 Frc consts  --      0.0021                 0.0045                 0.0141
 IR Inten    --      3.5953                 1.4090                 2.3888

                      4                      5                      6
                      A                      A                      A
 Frequencies --     86.6511               137.5378               180.4633
 Red. masses --      4.6941                 6.6701                 4.6782
 Frc consts  --      0.0208                 0.0743                 0.0898
 IR Inten    --      4.1686                 5.1854                 0.2733

                      7                      8                      9
                      A                      A                      A
 Frequencies --    195.7103               233.9384               272.3438
 Red. masses --      3.3983                 1.3950                 1.0787
 Frc consts  --      0.0767                 0.0450                 0.0471
 IR Inten    --      0.5631                 0.1969                32.4304

                     10                     11                     12
                      A                      A                      A
 Frequencies --    285.1192               313.5370               354.5818
 Red. masses --      3.0238                 2.7342                 1.0993
 Frc consts  --      0.1448                 0.1584                 0.0814
 IR Inten    --      1.0247                 8.9642               120.0771

                     13                     14                     15
                      A                      A                      A
 Frequencies --    366.0310               388.3177               409.6475
 Red. masses --      4.5967                 4.1972                 3.0877
 Frc consts  --      0.3629                 0.3729                 0.3053
 IR Inten    --      0.2086                 3.7336                 0.2523

                     16                     17                     18
                      A                      A                      A
 Frequencies --    422.9760               423.0603               450.9655
 Red. masses --      2.6889                 3.2115                 3.0607
 Frc consts  --      0.2834                 0.3387                 0.3667
 IR Inten    --      4.1857                 1.9329                 9.7855

                     19                     20                     21
                      A                      A                      A
 Frequencies --    486.8362               539.3168               561.1403
 Red. masses --      3.6418                 4.1712                 2.4248
 Frc consts  --      0.5085                 0.7148                 0.4498
 IR Inten    --      2.8703                 2.4508                14.1384

                     22                     23                     24
                      A                      A                      A
 Frequencies --    655.9868               666.3813               731.4931
 Red. masses --      5.7150                 4.8476                 4.0698
 Frc consts  --      1.4490                 1.2683                 1.2830
 IR Inten    --      2.5429                10.0044                 1.0185

                     25                     26                     27
                      A                      A                      A
 Frequencies --    772.7271               805.5992               815.1559
 Red. masses --      2.8693                 2.2151                 1.5280
 Frc consts  --      1.0094                 0.8470                 0.5982
 IR Inten    --      7.9683                30.7672                 7.8463

                     28                     29                     30
                      A                      A                      A
 Frequencies --    845.2104               858.4934               879.4275
 Red. masses --      1.6314                 5.1400                 1.6048
 Frc consts  --      0.6867                 2.2320                 0.7313
 IR Inten    --     22.4088                 4.0406               149.2730

                     31                     32                     33
                      A                      A                      A
 Frequencies --    900.0325               931.0856               935.0986
 Red. masses --      2.0443                 1.3331                 2.1566
 Frc consts  --      0.9757                 0.6809                 1.1111
 IR Inten    --      0.0722                 0.7003                 3.5336

                     34                     35                     36
                      A                      A                      A
 Frequencies --    953.2346              1014.0169              1030.1822
 Red. masses --      1.3121                 2.4459                 2.5080
 Frc consts  --      0.7025                 1.4818                 1.5682
 IR Inten    --      0.0543                42.8363                 7.2166

                     37                     38                     39
                      A                      A                      A
 Frequencies --   1039.6746              1077.4300              1100.2573
 Red. masses --      2.0439                 1.6435                 1.8871
 Frc consts  --      1.3017                 1.1241                 1.3459
 IR Inten    --      2.3821                 1.6106                 4.9275

                     40                     41                     42
                      A                      A                      A
 Frequencies --   1139.2586              1143.1129              1209.3057
 Red. masses --      1.9623                 1.4390                 1.2152
 Frc consts  --      1.5006                 1.1079                 1.0470
 IR Inten    --      5.2869                14.0526                90.7713

                     43                     44                     45
                      A                      A                      A
 Frequencies --   1211.8634              1219.6462              1244.8522
 Red. masses --      1.3004                 1.7420                 1.2355
 Frc consts  --      1.1252                 1.5267                 1.1280
 IR Inten    --     98.5635                11.4954                 3.4117

                     46                     47                     48
                      A                      A                      A
 Frequencies --   1257.5411              1274.7710              1311.0784
 Red. masses --      1.7761                 1.4746                 3.7422
 Frc consts  --      1.6549                 1.4119                 3.7900
 IR Inten    --      4.7750                10.8132               106.3203

                     49                     50                     51
                      A                      A                      A
 Frequencies --   1328.7565              1371.7988              1384.0463
 Red. masses --      1.9002                 1.4037                 1.4610
 Frc consts  --      1.9767                 1.5564                 1.6490
 IR Inten    --      2.5991                 1.9265                20.5120

                     52                     53                     54
                      A                      A                      A
 Frequencies --   1389.0455              1400.3571              1426.8897
 Red. masses --      2.0833                 1.3809                 1.3867
 Frc consts  --      2.3683                 1.5955                 1.6635
 IR Inten    --     18.4739                 7.5403                 1.8604

                     55                     56                     57
                      A                      A                      A
 Frequencies --   1441.9318              1492.3827              1497.7045
 Red. masses --      1.2519                 2.4590                 1.1103
 Frc consts  --      1.5336                 3.2268                 1.4674
 IR Inten    --      9.4435                26.2172                 9.4965

                     58                     59                     60
                      A                      A                      A
 Frequencies --   1527.8085              1540.1660              1570.4283
 Red. masses --      1.0564                 1.0506                 2.6805
 Frc consts  --      1.4528                 1.4684                 3.8950
 IR Inten    --      0.8245                 5.2085                94.2444

                     61                     62                     63
                      A                      A                      A
 Frequencies --   1655.0150              1682.2798              1697.4280
 Red. masses --      5.7890                 6.0232                 1.0932
 Frc consts  --      9.3424                10.0432                 1.8559
 IR Inten    --     18.2721                40.6872                28.8484

                     64                     65                     66
                      A                      A                      A
 Frequencies --   2364.4559              3030.2879              3051.5060
 Red. masses --     12.5834                 1.0826                 1.0400
 Frc consts  --     41.4487                 5.8570                 5.7057
 IR Inten    --      9.7367                 4.7399                17.3139

                     67                     68                     69
                      A                      A                      A
 Frequencies --   3056.4235              3066.8608              3104.5741
 Red. masses --      1.0750                 1.0699                 1.1011
 Frc consts  --      5.9167                 5.9291                 6.2527
 IR Inten    --     16.0597                25.8432                11.5156

                     70                     71                     72
                      A                      A                      A
 Frequencies --   3118.2289              3134.7508              3165.4018
 Red. masses --      1.1000                 1.1015                 1.0879
 Frc consts  --      6.3018                 6.3776                 6.4224
 IR Inten    --     32.9780                26.6214                25.1063

                     73                     74                     75
                      A                      A                      A
 Frequencies --   3180.6557              3189.6938              3215.7585
 Red. masses --      1.0880                 1.0932                 1.0931
 Frc consts  --      6.4848                 6.5533                 6.6600
 IR Inten    --     16.6562                15.9534                 9.0270

                     76                     77                     78
                      A                      A                      A
 Frequencies --   3466.6204              3555.9066              3751.9807
 Red. masses --      1.0492                 1.0930                 1.0659
 Frc consts  --      7.4289                 8.1426                 8.8407
 IR Inten    --      0.4019                 0.8768                43.6375

 - Thermochemistry -
 -------------------
 Temperature   298.150 Kelvin.  Pressure   1.00000 Atm.
 Atom     1 has atomic number  6 and mass  12.00000

 Molecular mass:   190.11061 amu.
 Principal axes and moments of inertia in atomic units:
                           1         2         3
     Eigenvalues --  1027.104565590.871145744.25429
           X            0.99991  -0.01179  -0.00691
           Y            0.01169   0.99983  -0.01401
           Z            0.00707   0.01393   0.99988
 This molecule is an asymmetric top.
 Rotational symmetry number  1.
 Warning -- assumption of classical behavior for rotation
           may cause significant error
 Rotational temperatures (Kelvin)      0.08433     0.01549     0.01508
 Rotational constants (GHZ):           1.75712     0.32280     0.31418
 Zero-point vibrational energy     616781.2 (Joules/Mol)
                                  147.41425 (Kcal/Mol)
 Warning -- explicit consideration of  21 degrees of freedom as
           vibrations may cause significant error
 Vibrational temperatures:     40.24    60.12    83.13   124.67   197.89
          (Kelvin)            259.65   281.58   336.59   391.84   410.22
                              451.11   510.16   526.64   558.70   589.39
                              608.57   608.69   648.84   700.45   775.96
                              807.36   943.82   958.77  1052.46  1111.78
                             1159.08  1172.83  1216.07  1235.18  1265.30
                             1294.95  1339.62  1345.40  1371.49  1458.94
                             1482.20  1495.86  1550.18  1583.02  1639.14
                             1644.68  1739.92  1743.60  1754.80  1791.06
                             1809.32  1834.11  1886.35  1911.78  1973.71
                             1991.33  1998.53  2014.80  2052.98  2074.62
                             2147.21  2154.86  2198.18  2215.96  2259.50
                             2381.20  2420.43  2442.22  3401.92  4359.91
                             4390.44  4397.51  4412.53  4466.79  4486.44
                             4510.21  4554.31  4576.25  4589.26  4626.76
                             4987.69  5116.16  5398.26

 Zero-point correction=                           0.234920 (Hartree/Particle)
 Thermal correction to Energy=                    0.248824
 Thermal correction to Enthalpy=                  0.249768
 Thermal correction to Gibbs Free Energy=         0.193438
 Sum of electronic and zero-point Energies=           -612.120721
 Sum of electronic and thermal Energies=              -612.106816
 Sum of electronic and thermal Enthalpies=            -612.105872
 Sum of electronic and thermal Free Energies=         -612.162203

                     E (Thermal)             CV                S
                      KCal/Mol        Cal/Mol-Kelvin    Cal/Mol-Kelvin
 Total                  156.139             52.804            118.558
 Electronic               0.000              0.000              0.000
 Translational            0.889              2.981             41.633
 Rotational               0.889              2.981             31.867
 Vibrational            154.362             46.843             45.058
 Vibration     1          0.593              1.984              5.969
 Vibration     2          0.594              1.980              5.172
 Vibration     3          0.596              1.974              4.532
 Vibration     4          0.601              1.959              3.734
 Vibration     5          0.614              1.916              2.838
 Vibration     6          0.629              1.866              2.324
 Vibration     7          0.636              1.846              2.173
 Vibration     8          0.654              1.789              1.849
 Vibration     9          0.675              1.724              1.581
 Vibration    10          0.683              1.701              1.503
 Vibration    11          0.701              1.648              1.344
 Vibration    12          0.730              1.566              1.146
 Vibration    13          0.739              1.542              1.096
 Vibration    14          0.756              1.495              1.007
 Vibration    15          0.774              1.449              0.928
 Vibration    16          0.785              1.420              0.882
 Vibration    17          0.785              1.420              0.882
 Vibration    18          0.810              1.359              0.793
 Vibration    19          0.843              1.279              0.692
 Vibration    20          0.894              1.163              0.567
 Vibration    21          0.917              1.115              0.522

 Optimization completed.
    -- Stationary point found.
 Normal termination of Gaussian 16 at Thu Dec 10 10:11:07 2020.

 ----------------------------------------------------------------------
 # B3LYP/6-311++G(d,p) empiricaldispersion=gd3bj scf=xqc pop=npa geom=c
 heck
 ----------------------------------------------------------------------

 ---------------------------------------
 CID_131396298_JID_4552_Energie_neutraal
 ---------------------------------------
 Structure from the checkpoint file:  "JID_4552.chk"
 Charge =  0 Multiplicity = 1

 SCF Done:  E(RB3LYP) =  -612.539307385     A.U. after   15 cycles
 Normal termination of Gaussian 16 at Thu Dec 10 10:15:03 2020.

 ----------------------------------------------------------------------
 # B3LYP/6-311++G(d,p) empiricaldispersion=gd3bj scf=xqc pop=npa geom=c
 heck
 ----------------------------------------------------------------------

 -------------------------------------
 CID_131396298_JID_4552_Energie_kation
 -------------------------------------
 Structure from the checkpoint file:  "JID_4552.chk"
 Charge =  1 Multiplicity = 2

 SCF Done:  E(UB3LYP) =  -612.244579994     A.U. after   24 cycles
 Normal termination of Gaussian 16 at Thu Dec 10 10:23:24 2020.
 Gaussian 16:  ES64L-G16RevA.03 25-Dec-2016

 ----------------------------------------------------------------------
 # B3LYP/6-311++G(d,p) empiricaldispersion=gd3bj scf=xqc pop=npa geom=c
 heck
 ----------------------------------------------------------------------

 ------------------------------------
 CID_131396298_JID_4552_Energie_anion
 ------------------------------------
 Structure from the checkpoint file:  "JID_4552.chk"
 Charge = -1 Multiplicity = 2

                         Standard orientation:
 ---------------------------------------------------------------------
 Center     Atomic      Atomic             Coordinates (Angstroms)
 Number     Number       Type             X           Y           Z
 ---------------------------------------------------------------------
      1          6           0       -1.238237    1.634012   -1.232912
      2          6           0       -0.913737    0.326700   -0.488961
      3          6           0        0.582370    0.153001   -0.301076
      4          6           0        1.242259   -0.971094   -0.800034
      5          6           0        2.617610   -1.137398   -0.642184
      6          6           0        3.361511   -0.166048    0.030912
      7          6           0        2.720316    0.967815    0.538697
      8          6           0        1.348391    1.117136    0.368168
      9          8           0        4.713487   -0.266469    0.221364
     10          6           0       -1.650550    0.207331    0.866793
     11          6           0       -3.172373    0.534345    0.756976
     12          6           0       -3.848517   -0.383203   -0.160572
     13          7           0       -4.324327   -1.144726   -0.896752
     14          7           0       -1.385375   -1.106220    1.438961
     15          1           0       -1.043700    2.513320   -0.607090
     16          1           0       -2.283042    1.670041   -1.557629
     17          1           0       -0.611262    1.719519   -2.124942
     18          1           0       -1.269331   -0.503842   -1.114634
     19          1           0        0.672820   -1.737175   -1.320070
     20          1           0        3.110101   -2.022939   -1.039849
     21          1           0        3.309782    1.716022    1.058609
     22          1           0        0.868059    2.006795    0.767915
     23          1           0        5.021645   -1.097769   -0.171131
     24          1           0       -1.231805    0.955398    1.551779
     25          1           0       -3.630533    0.438612    1.748784
     26          1           0       -3.341053    1.564442    0.425524
     27          1           0       -1.819396   -1.197233    2.355322
     28          1           0       -1.786521   -1.832396    0.846196
 ---------------------------------------------------------------------

 SCF Done:  E(UB3LYP) =  -612.531777600     A.U. after   33 cycles
 SCF Done:  E(UB3LYP) =  -612.531777600     a.u. after    1 cycles

 The electronic state is 2-A.
 Alpha  occ. eigenvalues --  -19.05845 -14.22194 -14.20286 -10.14064 -10.12383
 Alpha  occ. eigenvalues --  -10.12212 -10.11610 -10.09324 -10.08195 -10.08152
 Alpha  occ. eigenvalues --  -10.08107 -10.07945 -10.07790 -10.07538  -0.96860
 Alpha  occ. eigenvalues --   -0.82416  -0.80627  -0.76353  -0.70667  -0.67691
 Alpha  occ. eigenvalues --   -0.65794  -0.62914  -0.57214  -0.53978  -0.51391
 Alpha  occ. eigenvalues --   -0.49096  -0.45358  -0.42575  -0.40247  -0.39220
 Alpha  occ. eigenvalues --   -0.38027  -0.37594  -0.35739  -0.35529  -0.33338
 Alpha  occ. eigenvalues --   -0.32702  -0.31928  -0.31261  -0.30305  -0.29905
 Alpha  occ. eigenvalues --   -0.27932  -0.27396  -0.25806  -0.25222  -0.24331
 Alpha  occ. eigenvalues --   -0.24142  -0.23933  -0.23013  -0.16503  -0.15693
 Alpha  occ. eigenvalues --   -0.12824   0.03815
 Alpha virt. eigenvalues --    0.05029   0.06992   0.07598   0.07913   0.08264
 Alpha virt. eigenvalues --    0.09153   0.09210   0.09957   0.10333   0.11040
 Alpha virt. eigenvalues --    0.11414   0.11795   0.12068   0.12346   0.13277

  Beta  occ. eigenvalues --  -19.05803 -14.22180 -14.20258 -10.14063 -10.12368
  Beta  occ. eigenvalues --  -10.12208 -10.11557 -10.09322 -10.08193 -10.08147
  Beta  occ. eigenvalues --  -10.08101 -10.07922 -10.07783 -10.07521  -0.96780
  Beta  occ. eigenvalues --   -0.82379  -0.80585  -0.76333  -0.70626  -0.67616
  Beta  occ. eigenvalues --   -0.65771  -0.62876  -0.57157  -0.53922  -0.51359
  Beta  occ. eigenvalues --   -0.49044  -0.45294  -0.42488  -0.40206  -0.39192
  Beta  occ. eigenvalues --   -0.37979  -0.37551  -0.35676  -0.35489  -0.33310
  Beta  occ. eigenvalues --   -0.32662  -0.31898  -0.31227  -0.30266  -0.29865
  Beta  occ. eigenvalues --   -0.27907  -0.27367  -0.25771  -0.25184  -0.24302
  Beta  occ. eigenvalues --   -0.24115  -0.23905  -0.22975  -0.16487  -0.15652
  Beta  occ. eigenvalues --   -0.12804
  Beta virt. eigenvalues --    0.06431   0.06830   0.07520   0.07755   0.08077
  Beta virt. eigenvalues --    0.08653   0.09227   0.09649   0.10106   0.10725
  Beta virt. eigenvalues --    0.11250   0.11831   0.11917   0.12332   0.12618

 Mulliken charges and spin densities:
               1          2
     1  C   -0.033284  -0.825888
     2  C    1.985981  -2.063154
     3  C   -0.041974   1.226314
     4  C   -1.424855   1.292558
     5  C   -0.383492   0.237032
     6  C    0.670639  -1.229487
     7  C    0.951506  -1.146517
     8  C   -0.544514   0.223607
     9  O   -0.267196   0.036563
    10  C   -1.123855   0.611182
    11  C    1.235416  -1.347396
    12  C    0.751054  -0.853059
    13  N   -0.355415   0.043766
    14  N   -0.331809   0.055483
    15  H   -0.214613   0.398551
    16  H    0.111116   0.032726
    17  H    0.179546  -0.043599
    18  H    0.127598   0.051841
    19  H    0.160529  -0.012397
    20  H   -0.789853   0.952371
    21  H    0.062531   0.122277
    22  H   -0.083469   0.217252
    23  H   -0.226955   0.498835
    24  H   -0.496939   0.735982
    25  H   -0.813253   1.039823
    26  H   -0.275141   0.453600
    27  H    0.020307   0.226566
    28  H    0.150395   0.065167
 Sum of Mulliken charges =  -1.00000   1.00000

 Dipole moment (field-independent basis, Debye):
    X=              0.6760    Y=              1.2291    Z=             -2.7828  Tot=              3.1164
 Quadrupole moment (field-independent basis, Debye-Ang):
   XX=           -186.5227   YY=           -118.8723   ZZ=           -120.0809
   XY=             10.0117   XZ=              8.8461   YZ=             -6.2014

 Summary of Natural Population Analysis:

                                       Natural Population
                Natural  -----------------------------------------------
    Atom  No    Charge         Core      Valence    Rydberg      Total
 -----------------------------------------------------------------------
      C    1   -0.28407      0.99965     2.27887    0.00555     3.28407
      C    2   -0.12074      0.99955     2.10932    0.01188     3.12074
      C    3   -0.02002      0.99949     2.00883    0.01170     3.02002
      C    4   -0.08446      0.99951     2.07610    0.00884     3.08446
      C    5   -0.13624      0.99952     2.12652    0.01020     3.13624
      C    6    0.15520      0.99938     1.83199    0.01343     2.84480
      C    7   -0.12218      0.99952     2.11347    0.00919     3.12218
      C    8   -0.09228      0.99951     2.08413    0.00864     3.09228
      O    9   -0.34173      0.99988     3.33495    0.00690     4.34173
      C   10   -0.00239      0.99958     1.98753    0.01528     3.00239
      C   11   -0.25908      0.99953     2.24719    0.01237     3.25908
      C   12    0.16456      0.99966     1.81878    0.01700     2.83544
      N   13   -0.19182      0.99979     2.68103    0.01100     3.69182
      N   14   -0.41478      0.99976     2.90507    0.00995     3.91478
      H   15    0.09937      0.00000     0.39961    0.00103     0.40063
      H   16    0.10002      0.00000     0.39907    0.00092     0.39998
      H   17    0.10339      0.00000     0.39594    0.00067     0.39661
      H   18    0.10031      0.00000     0.39787    0.00183     0.39969
      H   19    0.09858      0.00000     0.40014    0.00128     0.40142
      H   20    0.10241      0.00000     0.39583    0.00176     0.39759
      H   21    0.10459      0.00000     0.39452    0.00088     0.39541
      H   22    0.10020      0.00000     0.39832    0.00147     0.39980
      H   23    0.23781      0.00000     0.25366    0.00853     0.26219
      H   24    0.09916      0.00000     0.39755    0.00329     0.40084
      H   25    0.12743      0.00000     0.36698    0.00559     0.37257
      H   26    0.12429      0.00000     0.37334    0.00238     0.37571
      H   27    0.17897      0.00000     0.31916    0.00186     0.32103
      H   28    0.17350      0.00000     0.32466    0.00184     0.32650
 =======================================================================
   * Total *    0.00000     13.99433    36.82042    0.18526    51.00000

 Normal termination of Gaussian 16 at Thu Dec 10 10:34:50 2020.
