 Gaussian 16, Revision A.03,

 -----------------------------------------------------------
 # opt freq B3LYP/6-31G(d) empiricaldispersion=gd3bj scf=xqc
 -----------------------------------------------------------

 -------------------------------
 CID_151550030_JID_7687_neutraal
 -------------------------------
 Symbolic Z-matrix:
 Charge =  0 Multiplicity = 1

 SCF Done:  E(RB3LYP) =  -705.544444584     A.U. after   15 cycles
 SCF Done:  E(RB3LYP) =  -705.549326678     A.U. after   14 cycles
 SCF Done:  E(RB3LYP) =  -705.550509890     A.U. after   14 cycles
 SCF Done:  E(RB3LYP) =  -705.551223586     A.U. after   12 cycles
 SCF Done:  E(RB3LYP) =  -705.551461975     A.U. after   15 cycles
 SCF Done:  E(RB3LYP) =  -705.551687983     A.U. after   13 cycles
 SCF Done:  E(RB3LYP) =  -705.551779430     A.U. after   13 cycles
 SCF Done:  E(RB3LYP) =  -705.551827786     A.U. after   12 cycles
 SCF Done:  E(RB3LYP) =  -705.551842295     A.U. after   11 cycles
 SCF Done:  E(RB3LYP) =  -705.551865046     A.U. after   12 cycles
 SCF Done:  E(RB3LYP) =  -705.551880554     A.U. after   12 cycles
 SCF Done:  E(RB3LYP) =  -705.551882818     A.U. after   10 cycles
 SCF Done:  E(RB3LYP) =  -705.551883090     A.U. after    8 cycles
 Optimization completed.
    -- Stationary point found.
 Normal termination of Gaussian 16 at Mon Dec 14 16:38:56 2020.

 --------------------------------------------------------------------
 #N Geom=AllCheck Guess=TCheck SCRF=Check GenChk RB3LYP/6-31G(d) Freq
 --------------------------------------------------------------------

 Structure from the checkpoint file:  "JID_7687.chk"
 -------------------------------
 CID_151550030_JID_7687_neutraal
 -------------------------------
 Charge =  0 Multiplicity = 1

 SCF Done:  E(RB3LYP) =  -705.551883090     A.U. after    1 cycles

  Exact polarizability: 241.572 -23.971 162.376  -3.319  -6.474  89.478
 Approx polarizability: 346.231 -52.817 304.133   0.765 -26.962 160.578

                      1                      2                      3
                      A                      A                      A
 Frequencies --     18.7025                29.1331                51.7384
 Red. masses --      4.4303                 6.8311                 6.0208
 Frc consts  --      0.0009                 0.0034                 0.0095
 IR Inten    --      0.5334                 0.1305                 0.2779

                      4                      5                      6
                      A                      A                      A
 Frequencies --     73.3057                98.5641               152.6639
 Red. masses --      4.1301                 5.5263                 4.3922
 Frc consts  --      0.0131                 0.0316                 0.0603
 IR Inten    --      0.4009                 0.4343                 3.3913

                      7                      8                      9
                      A                      A                      A
 Frequencies --    183.4824               209.6726               228.4436
 Red. masses --      3.7222                 4.7588                 4.2752
 Frc consts  --      0.0738                 0.1233                 0.1315
 IR Inten    --      0.3625                 4.0014                 1.5867

                     10                     11                     12
                      A                      A                      A
 Frequencies --    281.0458               318.8763               372.4115
 Red. masses --      6.6526                 3.1386                 3.1403
 Frc consts  --      0.3096                 0.1880                 0.2566
 IR Inten    --      2.9089                 0.5610                 0.5598

                     13                     14                     15
                      A                      A                      A
 Frequencies --    408.4561               410.9797               479.2357
 Red. masses --      3.5150                 3.1549                 4.0342
 Frc consts  --      0.3455                 0.3140                 0.5459
 IR Inten    --      0.4863                 2.0585                 1.7131

                     16                     17                     18
                      A                      A                      A
 Frequencies --    493.5289               517.4019               531.0346
 Red. masses --      2.6925                 3.7426                 5.1268
 Frc consts  --      0.3864                 0.5903                 0.8518
 IR Inten    --      8.3522                 1.9461                 0.6439

                     19                     20                     21
                      A                      A                      A
 Frequencies --    554.7618               579.0002               636.3060
 Red. masses --      3.5680                13.6312                 5.8565
 Frc consts  --      0.6470                 2.6924                 1.3971
 IR Inten    --      0.6590                14.8971                 3.1787

                     22                     23                     24
                      A                      A                      A
 Frequencies --    660.9990               681.5666               709.6958
 Red. masses --      3.6556                 5.3086                 2.9317
 Frc consts  --      0.9410                 1.4529                 0.8700
 IR Inten    --      2.9825                 7.4372                 2.8734

                     25                     26                     27
                      A                      A                      A
 Frequencies --    762.9823               784.6550               789.5708
 Red. masses --      1.2983                 3.1137                 4.7059
 Frc consts  --      0.4453                 1.1295                 1.7285
 IR Inten    --     29.0509                 0.0246                 0.3910

                     28                     29                     30
                      A                      A                      A
 Frequencies --    832.0262               838.9499               874.3991
 Red. masses --      2.9480                 1.5112                 1.4694
 Frc consts  --      1.2024                 0.6267                 0.6619
 IR Inten    --      1.7377                28.2742                 9.6259

                     31                     32                     33
                      A                      A                      A
 Frequencies --    888.9834               893.7744               915.0934
 Red. masses --      2.4291                 1.3343                 1.6331
 Frc consts  --      1.1311                 0.6280                 0.8057
 IR Inten    --     19.3221                 2.7269                13.3911

                     34                     35                     36
                      A                      A                      A
 Frequencies --    923.5800               950.1545               956.1307
 Red. masses --      3.4907                 2.0765                 1.9241
 Frc consts  --      1.7543                 1.1045                 1.0364
 IR Inten    --      6.5099                 4.6641                 5.8758

                     37                     38                     39
                      A                      A                      A
 Frequencies --    956.5356               970.8368               989.4145
 Red. masses --      3.1066                 1.3267                 1.5429
 Frc consts  --      1.6747                 0.7367                 0.8899
 IR Inten    --      2.0195                 0.2815                 4.0345

                     40                     41                     42
                      A                      A                      A
 Frequencies --    991.0749              1046.0078              1054.7466
 Red. masses --      1.8578                 2.8197                 2.2707
 Frc consts  --      1.0751                 1.8177                 1.4883
 IR Inten    --      7.5021                10.3727                 1.4393

                     43                     44                     45
                      A                      A                      A
 Frequencies --   1075.5833              1121.7581              1130.5671
 Red. masses --      1.3240                 1.7046                 1.1425
 Frc consts  --      0.9025                 1.2638                 0.8604
 IR Inten    --      5.8860                10.9427                 5.1152

                     46                     47                     48
                      A                      A                      A
 Frequencies --   1159.0097              1182.3318              1186.5152
 Red. masses --      1.6808                 1.5718                 1.2585
 Frc consts  --      1.3303                 1.2946                 1.0439
 IR Inten    --      2.2481                 4.5179                 0.7482

                     49                     50                     51
                      A                      A                      A
 Frequencies --   1188.9752              1203.8660              1236.3054
 Red. masses --      1.2400                 1.6171                 1.6790
 Frc consts  --      1.0328                 1.3808                 1.5120
 IR Inten    --      1.9340                 3.8855                 0.2743

                     52                     53                     54
                      A                      A                      A
 Frequencies --   1248.6688              1274.3737              1286.6368
 Red. masses --      1.8811                 1.3687                 1.4900
 Frc consts  --      1.7281                 1.3096                 1.4533
 IR Inten    --     10.3435                 2.1769                 5.4808

                     55                     56                     57
                      A                      A                      A
 Frequencies --   1303.0131              1310.0257              1362.6330
 Red. masses --      1.8254                 2.8271                 1.6847
 Frc consts  --      1.8260                 2.8586                 1.8430
 IR Inten    --      5.0619               145.7955                34.5840

                     58                     59                     60
                      A                      A                      A
 Frequencies --   1394.5451              1403.4141              1416.7008
 Red. masses --      1.8043                 1.6301                 3.8721
 Frc consts  --      2.0674                 1.8916                 4.5788
 IR Inten    --      8.0091                 2.7764                 2.6299

                     61                     62                     63
                      A                      A                      A
 Frequencies --   1427.0487              1459.5483              1485.4756
 Red. masses --      5.0109                 1.6835                 2.4356
 Frc consts  --      6.0123                 2.1130                 3.1665
 IR Inten    --      3.8841                 8.2070                 0.4680

                     64                     65                     66
                      A                      A                      A
 Frequencies --   1516.4248              1525.2672              1530.1383
 Red. masses --      1.3849                 1.3322                 1.8952
 Frc consts  --      1.8764                 1.8260                 2.6144
 IR Inten    --      4.2728                 3.2461                 2.5868

                     67                     68                     69
                      A                      A                      A
 Frequencies --   1563.1511              1629.5910              1666.3438
 Red. masses --      3.3500                 6.7528                 5.2828
 Frc consts  --      4.8228                10.5655                 8.6425
 IR Inten    --      7.6721                 0.6669                13.1819

                     70                     71                     72
                      A                      A                      A
 Frequencies --   1693.4309              2258.5485              3028.0915
 Red. masses --      6.2279                13.6486                 1.0711
 Frc consts  --     10.5227                41.0200                 5.7864
 IR Inten    --     10.5585               460.2232                35.8171

                     73                     74                     75
                      A                      A                      A
 Frequencies --   3125.7861              3127.0981              3150.2276
 Red. masses --      1.0873                 1.0929                 1.0553
 Frc consts  --      6.2592                 6.2967                 6.1705
 IR Inten    --     17.0441                12.5341                10.1755

                     76                     77                     78
                      A                      A                      A
 Frequencies --   3174.8131              3177.5872              3178.9208
 Red. masses --      1.0889                 1.0862                 1.0862
 Frc consts  --      6.4668                 6.4620                 6.4673
 IR Inten    --      7.0267                 1.1775                 7.9614

                     79                     80                     81
                      A                      A                      A
 Frequencies --   3182.5470              3186.6244              3196.7298
 Red. masses --      1.0883                 1.0890                 1.0937
 Frc consts  --      6.4948                 6.5152                 6.5852
 IR Inten    --      3.5862                10.9224                10.8709

                     82                     83                     84
                      A                      A                      A
 Frequencies --   3197.4988              3210.3412              3235.2228
 Red. masses --      1.0946                 1.0971                 1.1173
 Frc consts  --      6.5934                 6.6621                 6.8901
 IR Inten    --     48.1544                31.6651                 9.9602

 - Thermochemistry -
 -------------------
 Temperature   298.150 Kelvin.  Pressure   1.00000 Atm.
 Atom     1 has atomic number  6 and mass  12.00000

 Molecular mass:   223.11095 amu.
 Principal axes and moments of inertia in atomic units:
                           1         2         3
     Eigenvalues --  1302.937859593.39141**********
           X            0.99997  -0.00482  -0.00644
           Y            0.00478   0.99997  -0.00599
           Z            0.00647   0.00596   0.99996
 This molecule is an asymmetric top.
 Rotational symmetry number  1.
 Warning -- assumption of classical behavior for rotation
           may cause significant error
 Rotational temperatures (Kelvin)      0.06648     0.00903     0.00833
 Rotational constants (GHZ):           1.38513     0.18812     0.17366
 Zero-point vibrational energy     637079.1 (Joules/Mol)
                                  152.26555 (Kcal/Mol)
 Warning -- explicit consideration of  20 degrees of freedom as
           vibrations may cause significant error
 Vibrational temperatures:     26.91    41.92    74.44   105.47   141.81
          (Kelvin)            219.65   263.99   301.67   328.68   404.36
                              458.79   535.82   587.68   591.31   689.51
                              710.08   744.43   764.04   798.18   833.05
                              915.50   951.03   980.62  1021.09  1097.76
                             1128.94  1136.02  1197.10  1207.06  1258.07
                             1279.05  1285.94  1316.62  1328.83  1367.06
                             1375.66  1376.24  1396.82  1423.55  1425.94
                             1504.97  1517.55  1547.52  1613.96  1626.63
                             1667.56  1701.11  1707.13  1710.67  1732.09
                             1778.77  1796.56  1833.54  1851.18  1874.75
                             1884.83  1960.52  2006.44  2019.20  2038.32
                             2053.20  2099.96  2137.27  2181.80  2194.52
                             2201.53  2249.03  2344.62  2397.50  2436.47
                             3249.55  4356.75  4497.31  4499.20  4532.47
                             4567.85  4571.84  4573.76  4578.98  4584.84
                             4599.38  4600.49  4618.97  4654.76

 Zero-point correction=                           0.242651 (Hartree/Particle)
 Thermal correction to Energy=                    0.256711
 Thermal correction to Enthalpy=                  0.257655
 Thermal correction to Gibbs Free Energy=         0.199122
 Sum of electronic and zero-point Energies=           -705.309232
 Sum of electronic and thermal Energies=              -705.295172
 Sum of electronic and thermal Enthalpies=            -705.294228
 Sum of electronic and thermal Free Energies=         -705.352761

                     E (Thermal)             CV                S
                      KCal/Mol        Cal/Mol-Kelvin    Cal/Mol-Kelvin
 Total                  161.089             54.514            123.194
 Electronic               0.000              0.000              0.000
 Translational            0.889              2.981             42.110
 Rotational               0.889              2.981             33.229
 Vibrational            159.311             48.552             47.855
 Vibration     1          0.593              1.986              6.767
 Vibration     2          0.593              1.984              5.888
 Vibration     3          0.596              1.977              4.750
 Vibration     4          0.599              1.967              4.063
 Vibration     5          0.604              1.950              3.483
 Vibration     6          0.619              1.900              2.639
 Vibration     7          0.631              1.862              2.293
 Vibration     8          0.642              1.826              2.047
 Vibration     9          0.651              1.798              1.891
 Vibration    10          0.681              1.709              1.527
 Vibration    11          0.705              1.637              1.316
 Vibration    12          0.744              1.529              1.070
 Vibration    13          0.773              1.452              0.932
 Vibration    14          0.775              1.446              0.923
 Vibration    15          0.836              1.296              0.712
 Vibration    16          0.849              1.264              0.675
 Vibration    17          0.872              1.211              0.616
 Vibration    18          0.886              1.181              0.585
 Vibration    19          0.910              1.129              0.534
 Vibration    20          0.936              1.077              0.487

                           ! Non-Optimized Parameters !
 Normal termination of Gaussian 16 at Mon Dec 14 16:48:36 2020.

 ----------------------------------------------------------------------
 # B3LYP/6-311++G(d,p) empiricaldispersion=gd3bj scf=xqc pop=npa geom=c
 heck
 ----------------------------------------------------------------------

 ---------------------------------------
 CID_151550030_JID_7687_Energie_neutraal
 ---------------------------------------
 Structure from the checkpoint file:  "JID_7687.chk"
 Charge =  0 Multiplicity = 1

 SCF Done:  E(RB3LYP) =  -705.730936371     A.U. after   16 cycles
 Normal termination of Gaussian 16 at Mon Dec 14 16:53:28 2020.

 ----------------------------------------------------------------------
 # B3LYP/6-311++G(d,p) empiricaldispersion=gd3bj scf=xqc pop=npa geom=c
 heck
 ----------------------------------------------------------------------

 -------------------------------------
 CID_151550030_JID_7687_Energie_kation
 -------------------------------------
 Structure from the checkpoint file:  "JID_7687.chk"
 Charge =  1 Multiplicity = 2

 SCF Done:  E(UB3LYP) =  -705.442141675     A.U. after   32 cycles
 Normal termination of Gaussian 16 at Mon Dec 14 17:07:26 2020.
 Gaussian 16:  ES64L-G16RevA.03 25-Dec-2016

 ----------------------------------------------------------------------
 # B3LYP/6-311++G(d,p) empiricaldispersion=gd3bj scf=xqc pop=npa geom=c
 heck
 ----------------------------------------------------------------------

 ------------------------------------
 CID_151550030_JID_7687_Energie_anion
 ------------------------------------
 Structure from the checkpoint file:  "JID_7687.chk"
 Charge = -1 Multiplicity = 2

                         Standard orientation:
 ---------------------------------------------------------------------
 Center     Atomic      Atomic             Coordinates (Angstroms)
 Number     Number       Type             X           Y           Z
 ---------------------------------------------------------------------
      1          6           0       -2.266827    1.133990   -0.465862
      2          6           0       -2.258394   -0.237759    0.167161
      3          6           0       -1.301583    0.817357    0.658436
      4          6           0        0.168749    0.729424    0.401959
      5          6           0        0.831359   -0.475587    0.310771
      6          6           0        2.229800   -0.540438    0.073724
      7          6           0        2.922512   -1.775252   -0.025820
      8          6           0        4.279631   -1.805757   -0.254406
      9          6           0        5.008095   -0.599889   -0.394624
     10          6           0        4.364563    0.613628   -0.302415
     11          6           0        2.967174    0.678111   -0.066429
     12          6           0        2.267058    1.909926    0.036393
     13          6           0        0.912684    1.934623    0.261840
     14          6           0       -3.403693   -0.675558    1.047898
     15          7           0       -4.535223   -1.264815    0.289899
     16          7           0       -5.068367   -0.516139   -0.535254
     17          7           0       -5.649412    0.070814   -1.324960
     18          1           0       -3.098459    1.799712   -0.250402
     19          1           0       -1.861616    1.227482   -1.468676
     20          1           0       -1.833275   -1.034944   -0.437362
     21          1           0       -1.559409    1.273090    1.615086
     22          1           0        0.282051   -1.406371    0.426562
     23          1           0        2.360306   -2.699582    0.081853
     24          1           0        4.797862   -2.757565   -0.328694
     25          1           0        6.078552   -0.637004   -0.575326
     26          1           0        4.919718    1.542294   -0.409238
     27          1           0        2.823081    2.837991   -0.071398
     28          1           0        0.386713    2.883372    0.328902
     29          1           0       -3.091051   -1.466760    1.733291
     30          1           0       -3.760226    0.168342    1.655849
 ---------------------------------------------------------------------

 SCF Done:  E(UB3LYP) =  -705.733595648     A.U. after   33 cycles
 SCF Done:  E(UB3LYP) =  -705.733595648     a.u. after    1 cycles

 The electronic state is 2-A.
 Alpha  occ. eigenvalues --  -14.34883 -14.25034 -14.23761 -10.10884 -10.07685
 Alpha  occ. eigenvalues --  -10.07478 -10.06864 -10.05429 -10.05384 -10.05098
 Alpha  occ. eigenvalues --  -10.04619 -10.04564 -10.04286 -10.03883 -10.03786
 Alpha  occ. eigenvalues --  -10.03766 -10.03370  -1.01533  -0.85831  -0.76894
 Alpha  occ. eigenvalues --   -0.74314  -0.69371  -0.64665  -0.63885  -0.61421
 Alpha  occ. eigenvalues --   -0.59331  -0.52049  -0.50030  -0.48620  -0.47079
 Alpha  occ. eigenvalues --   -0.46043  -0.43084  -0.40159  -0.39419  -0.38917
 Alpha  occ. eigenvalues --   -0.38599  -0.37474  -0.35523  -0.33999  -0.32821
 Alpha  occ. eigenvalues --   -0.32220  -0.31086  -0.30104  -0.29214  -0.28664
 Alpha  occ. eigenvalues --   -0.27024  -0.26574  -0.26311  -0.24550  -0.22332
 Alpha  occ. eigenvalues --   -0.20998  -0.20887  -0.20122  -0.18719  -0.17592
 Alpha  occ. eigenvalues --   -0.16276  -0.13766  -0.11897  -0.09766   0.04435
 Alpha virt. eigenvalues --    0.06218   0.07858   0.08108   0.08875   0.09546
 Alpha virt. eigenvalues --    0.09784   0.10254   0.10434   0.11249   0.11389
 Alpha virt. eigenvalues --    0.12068   0.12242   0.12544   0.13182   0.13983

  Beta  occ. eigenvalues --  -14.34676 -14.24747 -14.23802 -10.10806 -10.07687
  Beta  occ. eigenvalues --  -10.07484 -10.06856 -10.05484 -10.05440 -10.05029
  Beta  occ. eigenvalues --  -10.04578 -10.04518 -10.04244 -10.03668 -10.03570
  Beta  occ. eigenvalues --  -10.03546 -10.03158  -1.01125  -0.85629  -0.76839
  Beta  occ. eigenvalues --   -0.74115  -0.69078  -0.64334  -0.63656  -0.61256
  Beta  occ. eigenvalues --   -0.58965  -0.51794  -0.49896  -0.48459  -0.46853
  Beta  occ. eigenvalues --   -0.45882  -0.42971  -0.39522  -0.39216  -0.38740
  Beta  occ. eigenvalues --   -0.38338  -0.37334  -0.35363  -0.33661  -0.32449
  Beta  occ. eigenvalues --   -0.32074  -0.30939  -0.29843  -0.29073  -0.28539
  Beta  occ. eigenvalues --   -0.26771  -0.26489  -0.25923  -0.24437  -0.22072
  Beta  occ. eigenvalues --   -0.20829  -0.20616  -0.19831  -0.18371  -0.17202
  Beta  occ. eigenvalues --   -0.15262  -0.13691  -0.11411  -0.08444
  Beta virt. eigenvalues --    0.07527   0.08010   0.08374   0.08898   0.09161
  Beta virt. eigenvalues --    0.09582   0.10122   0.10251   0.10470   0.11285
  Beta virt. eigenvalues --    0.11503   0.12054   0.12482   0.12704   0.13447

 Mulliken charges and spin densities:
               1          2
     1  C   -0.525852  -0.106704
     2  C   -0.185746   0.311626
     3  C   -0.014170   0.164112
     4  C    0.621451  -0.044652
     5  C   -0.237452   0.098134
     6  C   -0.010977  -0.096395
     7  C   -0.168960   0.136648
     8  C   -0.307960   0.038174
     9  C   -0.260208   0.047105
    10  C   -0.197368   0.154616
    11  C    0.145861  -0.049328
    12  C   -0.288147   0.192777
    13  C   -0.468577   0.034306
    14  C   -0.028274  -0.741714
    15  N   -0.697649   0.358151
    16  N    0.679137  -0.069866
    17  N   -0.118995  -0.026118
    18  H    0.138499  -0.002311
    19  H    0.145436   0.005311
    20  H    0.127536   0.060042
    21  H    0.109841   0.095436
    22  H    0.079008  -0.034788
    23  H    0.080759   0.001766
    24  H    0.110855  -0.002045
    25  H    0.112186  -0.003640
    26  H    0.071885  -0.013063
    27  H    0.093096  -0.012805
    28  H    0.122053   0.001531
    29  H   -0.064151   0.276861
    30  H   -0.063114   0.226833
 Sum of Mulliken charges =  -1.00000   1.00000

 Dipole moment (field-independent basis, Debye):
    X=              1.9006    Y=              1.4612    Z=              0.5596  Tot=              2.4618
 Quadrupole moment (field-independent basis, Debye-Ang):
   XX=           -192.6056   YY=           -113.1001   ZZ=           -117.4776
   XY=             -3.6061   XZ=             -6.3250   YZ=              1.8046

 Summary of Natural Population Analysis:

                                       Natural Population
                Natural  -----------------------------------------------
    Atom  No    Charge         Core      Valence    Rydberg      Total
 -----------------------------------------------------------------------
      C    1   -0.19065      0.99961     2.18472    0.00632     3.19065
      C    2   -0.12286      0.99957     2.11292    0.01037     3.12286
      C    3   -0.11248      0.99955     2.10197    0.01096     3.11248
      C    4   -0.01727      0.99950     2.00650    0.01128     3.01727
      C    5   -0.05589      0.99948     2.04777    0.00863     3.05589
      C    6   -0.03372      0.99949     2.02648    0.00775     3.03372
      C    7   -0.05704      0.99954     2.04879    0.00872     3.05704
      C    8   -0.10641      0.99958     2.09693    0.00991     3.10641
      C    9   -0.10452      0.99957     2.09531    0.00964     3.10452
      C   10   -0.05944      0.99954     2.05107    0.00883     3.05944
      C   11   -0.03941      0.99949     2.03216    0.00775     3.03941
      C   12   -0.05789      0.99954     2.04982    0.00853     3.05789
      C   13   -0.09444      0.99953     2.08711    0.00780     3.09444
      C   14   -0.08760      0.99956     2.07451    0.01352     3.08760
      N   15   -0.20276      0.99971     2.68872    0.01434     3.70276
      N   16    0.13115      0.99970     2.35349    0.01565     3.36885
      N   17   -0.02943      0.99982     2.51559    0.01402     3.52943
      H   18    0.09939      0.00000     0.39959    0.00102     0.40061
      H   19    0.10493      0.00000     0.39421    0.00086     0.39507
      H   20    0.10814      0.00000     0.39011    0.00175     0.39186
      H   21    0.10466      0.00000     0.39428    0.00106     0.39534
      H   22    0.09156      0.00000     0.40682    0.00162     0.40844
      H   23    0.08969      0.00000     0.40893    0.00138     0.41031
      H   24    0.09189      0.00000     0.40750    0.00061     0.40811
      H   25    0.09005      0.00000     0.40889    0.00106     0.40995
      H   26    0.08801      0.00000     0.41031    0.00168     0.41199
      H   27    0.09163      0.00000     0.40755    0.00082     0.40837
      H   28    0.09193      0.00000     0.40691    0.00116     0.40807
      H   29    0.10018      0.00000     0.39840    0.00142     0.39982
      H   30    0.08861      0.00000     0.41002    0.00137     0.41139
 =======================================================================
   * Total *    0.00001     16.99279    41.81738    0.18981    58.99999

 Normal termination of Gaussian 16 at Mon Dec 14 17:21:50 2020.
