 Gaussian 16, Revision A.03,

 -----------------------------------------------------------
 # opt freq B3LYP/6-31G(d) empiricaldispersion=gd3bj scf=xqc
 -----------------------------------------------------------

 -------------------------------
 CID_144703094_JID_3034_neutraal
 -------------------------------
 Symbolic Z-matrix:
 Charge =  0 Multiplicity = 1

 SCF Done:  E(RB3LYP) =  -866.379568145     A.U. after   14 cycles
 SCF Done:  E(RB3LYP) =  -866.380407790     A.U. after   12 cycles
 SCF Done:  E(RB3LYP) =  -866.379793725     A.U. after   12 cycles
 SCF Done:  E(RB3LYP) =  -866.381007547     A.U. after   12 cycles
 SCF Done:  E(RB3LYP) =  -866.381300054     A.U. after   12 cycles
 SCF Done:  E(RB3LYP) =  -866.381398965     A.U. after   12 cycles
 SCF Done:  E(RB3LYP) =  -866.381406350     A.U. after    9 cycles
 SCF Done:  E(RB3LYP) =  -866.381408144     A.U. after    9 cycles
 SCF Done:  E(RB3LYP) =  -866.381408877     A.U. after    7 cycles
 SCF Done:  E(RB3LYP) =  -866.381410812     A.U. after    9 cycles
 SCF Done:  E(RB3LYP) =  -866.381411608     A.U. after    9 cycles
 SCF Done:  E(RB3LYP) =  -866.381411801     A.U. after    8 cycles
 SCF Done:  E(RB3LYP) =  -866.381411864     A.U. after    7 cycles
 Optimization completed.
    -- Stationary point found.
 Normal termination of Gaussian 16 at Wed Dec  9 22:22:40 2020.

 --------------------------------------------------------------------
 #N Geom=AllCheck Guess=TCheck SCRF=Check GenChk RB3LYP/6-31G(d) Freq
 --------------------------------------------------------------------

 Structure from the checkpoint file:  "JID_3034.chk"
 -------------------------------
 CID_144703094_JID_3034_neutraal
 -------------------------------
 Charge =  0 Multiplicity = 1

 SCF Done:  E(RB3LYP) =  -866.381411864     A.U. after    1 cycles

  Exact polarizability: 194.957 -13.192 111.746   4.558   7.511 123.943
 Approx polarizability: 260.224 -26.500 159.490   7.925  21.023 214.975

                      1                      2                      3
                      A                      A                      A
 Frequencies --     27.3178                35.4835                42.8658
 Red. masses --      2.5539                 3.4832                 2.8302
 Frc consts  --      0.0011                 0.0026                 0.0031
 IR Inten    --      0.1656                 0.1538                 0.1521

                      4                      5                      6
                      A                      A                      A
 Frequencies --     51.9374                95.6085               169.4160
 Red. masses --      3.0867                 3.7544                 2.6144
 Frc consts  --      0.0049                 0.0202                 0.0442
 IR Inten    --      0.4160                 0.1041                 0.3952

                      7                      8                      9
                      A                      A                      A
 Frequencies --    204.0515               217.4845               223.3454
 Red. masses --      2.2412                 2.5024                 1.8268
 Frc consts  --      0.0550                 0.0697                 0.0537
 IR Inten    --      0.1801                 0.4185                 0.4023

                     10                     11                     12
                      A                      A                      A
 Frequencies --    237.6574               264.9894               272.1832
 Red. masses --      1.1801                 1.1392                 2.4594
 Frc consts  --      0.0393                 0.0471                 0.1074
 IR Inten    --      0.3257                 0.0319                 0.5364

                     13                     14                     15
                      A                      A                      A
 Frequencies --    344.9967               372.1593               385.9852
 Red. masses --      2.7133                 3.7240                 2.4731
 Frc consts  --      0.1903                 0.3039                 0.2171
 IR Inten    --      0.0687                 0.0488                 0.8411

                     16                     17                     18
                      A                      A                      A
 Frequencies --    394.9257               417.0447               419.0237
 Red. masses --      3.9405                 1.9026                 3.0927
 Frc consts  --      0.3621                 0.1950                 0.3199
 IR Inten    --      0.5113                 0.4190                 0.4666

                     19                     20                     21
                      A                      A                      A
 Frequencies --    444.0558               554.5465               632.0446
 Red. masses --      3.3045                 2.7501                 4.2604
 Frc consts  --      0.3839                 0.4983                 1.0028
 IR Inten    --      0.1568                14.1239                 1.2113

                     22                     23                     24
                      A                      A                      A
 Frequencies --    654.4595               723.5184               740.3127
 Red. masses --      6.8058                 4.2877                 3.8107
 Frc consts  --      1.7175                 1.3224                 1.2305
 IR Inten    --      0.0278                 6.5307                 0.5012

                     25                     26                     27
                      A                      A                      A
 Frequencies --    800.8293               802.6354               825.4253
 Red. masses --      1.1586                 4.2111                 2.6808
 Frc consts  --      0.4378                 1.5984                 1.0761
 IR Inten    --      0.6908                 4.3860                 2.0222

                     28                     29                     30
                      A                      A                      A
 Frequencies --    840.7726               851.1529               867.9395
 Red. masses --      1.5457                 1.2715                 1.5028
 Frc consts  --      0.6438                 0.5427                 0.6670
 IR Inten    --     26.8705                 3.4092                 2.4373

                     31                     32                     33
                      A                      A                      A
 Frequencies --    941.6868               961.9932               963.7658
 Red. masses --      1.2174                 1.3208                 1.9031
 Frc consts  --      0.6360                 0.7202                 1.0415
 IR Inten    --      2.9252                 0.0817                 3.4046

                     34                     35                     36
                      A                      A                      A
 Frequencies --    967.1062               980.3268               981.5393
 Red. masses --      1.3407                 1.4495                 2.3443
 Frc consts  --      0.7388                 0.8208                 1.3307
 IR Inten    --      0.4627                 0.3675                 3.0199

                     37                     38                     39
                      A                      A                      A
 Frequencies --   1039.5378              1078.9698              1093.2704
 Red. masses --      3.5188                 1.4722                 1.9335
 Frc consts  --      2.2404                 1.0098                 1.3616
 IR Inten    --      9.1489                 1.3897                12.1603

                     40                     41                     42
                      A                      A                      A
 Frequencies --   1114.0847              1118.5170              1141.0146
 Red. masses --      1.4870                 2.8851                 2.0322
 Frc consts  --      1.0874                 2.1267                 1.5588
 IR Inten    --     13.6754                 5.6399                 1.0035

                     43                     44                     45
                      A                      A                      A
 Frequencies --   1153.0799              1205.2710              1219.5570
 Red. masses --      1.3115                 1.7461                 1.1354
 Frc consts  --      1.0274                 1.4944                 0.9949
 IR Inten    --      2.9132                 4.4772                 0.6938

                     46                     47                     48
                      A                      A                      A
 Frequencies --   1240.3318              1268.0039              1285.7548
 Red. masses --      2.5387                 1.3962                 1.4035
 Frc consts  --      2.3011                 1.3226                 1.3671
 IR Inten    --      2.1304                 5.9709                 0.2160

                     49                     50                     51
                      A                      A                      A
 Frequencies --   1298.7067              1333.2805              1362.5394
 Red. masses --      1.2068                 1.9708                 1.9287
 Frc consts  --      1.1992                 2.0641                 2.1097
 IR Inten    --     16.3547                 1.0414                 0.1046

                     52                     53                     54
                      A                      A                      A
 Frequencies --   1370.2519              1372.6282              1392.7109
 Red. masses --      1.4098                 1.5201                 1.3718
 Frc consts  --      1.5596                 1.6875                 1.5677
 IR Inten    --      0.5446                 5.7020                 0.9629

                     55                     56                     57
                      A                      A                      A
 Frequencies --   1430.3225              1435.6042              1448.9271
 Red. masses --      1.2581                 1.2188                 1.2520
 Frc consts  --      1.5165                 1.4800                 1.5487
 IR Inten    --      2.3721                 1.4130                 3.8967

                     58                     59                     60
                      A                      A                      A
 Frequencies --   1453.5631              1487.8816              1517.5194
 Red. masses --      2.4804                 1.0931                 1.0631
 Frc consts  --      3.0877                 1.4258                 1.4425
 IR Inten    --      5.5633                 3.0596                 0.7631

                     61                     62                     63
                      A                      A                      A
 Frequencies --   1518.2215              1523.3912              1525.9012
 Red. masses --      1.0585                 1.0491                 1.0409
 Frc consts  --      1.4376                 1.4345                 1.4279
 IR Inten    --      2.2448                 3.0954                 7.8604

                     64                     65                     66
                      A                      A                      A
 Frequencies --   1533.7627              1537.9889              1540.9468
 Red. masses --      1.0565                 1.1249                 1.0679
 Frc consts  --      1.4644                 1.5678                 1.4940
 IR Inten    --      5.8921                 1.9953                12.3395

                     67                     68                     69
                      A                      A                      A
 Frequencies --   1546.2115              1621.5905              1661.1417
 Red. masses --      2.0049                 6.2764                 5.6832
 Frc consts  --      2.8241                 9.7240                 9.2396
 IR Inten    --     34.1078                 0.3536                 1.9066

                     70                     71                     72
                      A                      A                      A
 Frequencies --   3035.7108              3038.3663              3046.0654
 Red. masses --      1.0813                 1.0371                 1.0594
 Frc consts  --      5.8711                 5.6408                 5.7913
 IR Inten    --      8.1633                27.1444                35.1605

                     73                     74                     75
                      A                      A                      A
 Frequencies --   3048.1804              3048.8052              3065.7520
 Red. masses --      1.0405                 1.0352                 1.0584
 Frc consts  --      5.6962                 5.6691                 5.8611
 IR Inten    --     13.4330                43.4009                23.5514

                     76                     77                     78
                      A                      A                      A
 Frequencies --   3080.8704              3101.7040              3106.4408
 Red. masses --      1.1038                 1.1017                 1.1026
 Frc consts  --      6.1731                 6.2450                 6.2690
 IR Inten    --      9.1119                10.9499                24.0930

                     79                     80                     81
                      A                      A                      A
 Frequencies --   3114.2351              3116.1022              3119.4791
 Red. masses --      1.1019                 1.1046                 1.1029
 Frc consts  --      6.2964                 6.3192                 6.3232
 IR Inten    --     49.1179                46.7016                49.7339

                     82                     83                     84
                      A                      A                      A
 Frequencies --   3123.1094              3148.2389              3175.0100
 Red. masses --      1.1035                 1.0979                 1.0879
 Frc consts  --      6.3416                 6.4111                 6.4617
 IR Inten    --     33.7637                18.3574                16.1682

                     85                     86                     87
                      A                      A                      A
 Frequencies --   3177.5843              3202.3626              3206.0479
 Red. masses --      1.0883                 1.0927                 1.0934
 Frc consts  --      6.4743                 6.6025                 6.6215
 IR Inten    --     18.1076                14.8091                 4.5945

 - Thermochemistry -
 -------------------
 Temperature   298.150 Kelvin.  Pressure   1.00000 Atm.
 Atom     1 has atomic number  6 and mass  12.00000

 Molecular mass:   194.11292 amu.
 Principal axes and moments of inertia in atomic units:
                           1         2         3
     Eigenvalues --  1456.573745149.223025783.85155
           X            0.99997   0.00737   0.00348
           Y           -0.00736   0.99997  -0.00301
           Z           -0.00350   0.00298   0.99999
 This molecule is an asymmetric top.
 Rotational symmetry number  1.
 Warning -- assumption of classical behavior for rotation
           may cause significant error
 Rotational temperatures (Kelvin)      0.05946     0.01682     0.01498
 Rotational constants (GHZ):           1.23903     0.35049     0.31203
 Zero-point vibrational energy     714978.9 (Joules/Mol)
                                  170.88406 (Kcal/Mol)
 Warning -- explicit consideration of  20 degrees of freedom as
           vibrations may cause significant error
 Vibrational temperatures:     39.30    51.05    61.67    74.73   137.56
          (Kelvin)            243.75   293.58   312.91   321.34   341.94
                              381.26   391.61   496.37   535.45   555.35
                              568.21   600.03   602.88   638.90   797.87
                              909.37   941.62  1040.98  1065.14  1152.21
                             1154.81  1187.60  1209.68  1224.62  1248.77
                             1354.88  1384.09  1386.64  1391.45  1410.47
                             1412.22  1495.66  1552.40  1572.97  1602.92
                             1609.30  1641.67  1659.02  1734.12  1754.67
                             1784.56  1824.37  1849.91  1868.55  1918.29
                             1960.39  1971.49  1974.91  2003.80  2057.92
                             2065.51  2084.68  2091.35  2140.73  2183.37
                             2184.38  2191.82  2195.43  2206.74  2212.82
                             2217.08  2224.65  2333.11  2390.01  4367.71
                             4371.53  4382.61  4385.65  4386.55  4410.93
                             4432.69  4462.66  4469.48  4480.69  4483.38
                             4488.23  4493.46  4529.61  4568.13  4571.84
                             4607.49  4612.79

 Zero-point correction=                           0.272321 (Hartree/Particle)
 Thermal correction to Energy=                    0.286875
 Thermal correction to Enthalpy=                  0.287819
 Thermal correction to Gibbs Free Energy=         0.229095
 Sum of electronic and zero-point Energies=           -866.109091
 Sum of electronic and thermal Energies=              -866.094537
 Sum of electronic and thermal Enthalpies=            -866.093593
 Sum of electronic and thermal Free Energies=         -866.152316

                     E (Thermal)             CV                S
                      KCal/Mol        Cal/Mol-Kelvin    Cal/Mol-Kelvin
 Total                  180.017             54.055            123.594
 Electronic               0.000              0.000              0.000
 Translational            0.889              2.981             41.695
 Rotational               0.889              2.981             32.139
 Vibrational            178.239             48.093             49.759
 Vibration     1          0.593              1.984              6.015
 Vibration     2          0.594              1.982              5.497
 Vibration     3          0.595              1.980              5.122
 Vibration     4          0.596              1.977              4.742
 Vibration     5          0.603              1.952              3.542
 Vibration     6          0.625              1.880              2.442
 Vibration     7          0.640              1.834              2.096
 Vibration     8          0.646              1.814              1.980
 Vibration     9          0.649              1.806              1.932
 Vibration    10          0.656              1.783              1.820
 Vibration    11          0.671              1.737              1.629
 Vibration    12          0.675              1.725              1.582
 Vibration    13          0.723              1.585              1.189
 Vibration    14          0.744              1.529              1.071
 Vibration    15          0.755              1.500              1.016
 Vibration    16          0.762              1.481              0.981
 Vibration    17          0.780              1.433              0.902
 Vibration    18          0.782              1.429              0.895
 Vibration    19          0.804              1.374              0.814
 Vibration    20          0.910              1.130              0.535

 Optimization completed.
    -- Stationary point found.
 Normal termination of Gaussian 16 at Wed Dec  9 22:30:05 2020.

 ----------------------------------------------------------------------
 # B3LYP/6-311++G(d,p) empiricaldispersion=gd3bj scf=xqc pop=npa geom=c
 heck
 ----------------------------------------------------------------------

 ---------------------------------------
 CID_144703094_JID_3034_Energie_neutraal
 ---------------------------------------
 Structure from the checkpoint file:  "JID_3034.chk"
 Charge =  0 Multiplicity = 1

 SCF Done:  E(RB3LYP) =  -866.532139591     A.U. after   15 cycles
 Normal termination of Gaussian 16 at Wed Dec  9 22:33:22 2020.

 ----------------------------------------------------------------------
 # B3LYP/6-311++G(d,p) empiricaldispersion=gd3bj scf=xqc pop=npa geom=c
 heck
 ----------------------------------------------------------------------

 -------------------------------------
 CID_144703094_JID_3034_Energie_kation
 -------------------------------------
 Structure from the checkpoint file:  "JID_3034.chk"
 Charge =  1 Multiplicity = 2

 SCF Done:  E(UB3LYP) =  -866.249741100     A.U. after   21 cycles
 Normal termination of Gaussian 16 at Wed Dec  9 22:39:35 2020.
 Gaussian 16:  ES64L-G16RevA.03 25-Dec-2016

 ----------------------------------------------------------------------
 # B3LYP/6-311++G(d,p) empiricaldispersion=gd3bj scf=xqc pop=npa geom=c
 heck
 ----------------------------------------------------------------------

 ------------------------------------
 CID_144703094_JID_3034_Energie_anion
 ------------------------------------
 Structure from the checkpoint file:  "JID_3034.chk"
 Charge = -1 Multiplicity = 2

                         Standard orientation:
 ---------------------------------------------------------------------
 Center     Atomic      Atomic             Coordinates (Angstroms)
 Number     Number       Type             X           Y           Z
 ---------------------------------------------------------------------
      1          6           0       -4.139767    1.825877   -0.087261
      2          6           0       -4.074968    0.314296    0.187939
      3          6           0       -2.660940   -0.214462    0.131208
      4          6           0       -2.114944   -0.688006   -1.066584
      5          6           0       -0.788844   -1.111617   -1.138055
      6          6           0        0.022184   -1.088048    0.002069
      7          6           0       -0.522539   -0.642410    1.212472
      8          6           0       -1.840857   -0.198091    1.266805
      9         16           0        1.700826   -1.699423   -0.111278
     10          6           0        2.689161   -0.320249    0.605421
     11          6           0        3.052277    0.819662   -0.356485
     12          6           0        1.824562    1.593048   -0.847754
     13          6           0        4.049287    1.760177    0.336796
     14          1           0       -3.546314    2.380466    0.648061
     15          1           0       -5.171686    2.191730   -0.041105
     16          1           0       -3.737672    2.057363   -1.079747
     17          1           0       -4.507297    0.106849    1.174673
     18          1           0       -4.696441   -0.214915   -0.544722
     19          1           0       -2.732659   -0.713652   -1.961459
     20          1           0       -0.373911   -1.454678   -2.080980
     21          1           0        0.081269   -0.652185    2.114920
     22          1           0       -2.247965    0.151813    2.212942
     23          1           0        2.161669    0.068371    1.483194
     24          1           0        3.600542   -0.807146    0.969120
     25          1           0        3.549109    0.370349   -1.227244
     26          1           0        1.258554    2.005659   -0.003031
     27          1           0        2.128821    2.428109   -1.489167
     28          1           0        1.146523    0.954851   -1.419092
     29          1           0        4.948016    1.225072    0.665394
     30          1           0        4.362943    2.562700   -0.340233
     31          1           0        3.595609    2.228953    1.219503
 ---------------------------------------------------------------------

 SCF Done:  E(UB3LYP) =  -866.519679128     A.U. after   33 cycles
 SCF Done:  E(UB3LYP) =  -866.519679128     a.u. after    1 cycles

 The electronic state is 2-A.
 Alpha  occ. eigenvalues --  -88.74133 -10.09798 -10.09696 -10.08314 -10.07625
 Alpha  occ. eigenvalues --  -10.07525 -10.07414 -10.07280 -10.07168 -10.07111
 Alpha  occ. eigenvalues --  -10.06542 -10.06093 -10.05866  -7.82727  -5.79122
 Alpha  occ. eigenvalues --   -5.78749  -5.78116  -0.76529  -0.72569  -0.69588
 Alpha  occ. eigenvalues --   -0.65657  -0.64829  -0.61433  -0.58971  -0.55558
 Alpha  occ. eigenvalues --   -0.51595  -0.51123  -0.47583  -0.46410  -0.40021
 Alpha  occ. eigenvalues --   -0.37539  -0.37299  -0.35396  -0.34579  -0.33326
 Alpha  occ. eigenvalues --   -0.32910  -0.32680  -0.31895  -0.30465  -0.29145
 Alpha  occ. eigenvalues --   -0.28605  -0.27078  -0.26135  -0.25747  -0.25647
 Alpha  occ. eigenvalues --   -0.24401  -0.23745  -0.23559  -0.23011  -0.21361
 Alpha  occ. eigenvalues --   -0.16236  -0.15775  -0.11685   0.04246
 Alpha virt. eigenvalues --    0.05885   0.07268   0.07471   0.07937   0.08112
 Alpha virt. eigenvalues --    0.08434   0.08735   0.08853   0.10050   0.10560
 Alpha virt. eigenvalues --    0.10739   0.11156   0.11722   0.12144   0.12554

  Beta  occ. eigenvalues --  -88.74130 -10.09750 -10.09622 -10.08308 -10.07631
  Beta  occ. eigenvalues --  -10.07445 -10.07372 -10.07279 -10.07157 -10.07072
  Beta  occ. eigenvalues --  -10.06504 -10.06049 -10.05855  -7.82724  -5.79117
  Beta  occ. eigenvalues --   -5.78744  -5.78112  -0.76420  -0.72510  -0.69480
  Beta  occ. eigenvalues --   -0.65585  -0.64744  -0.61335  -0.58924  -0.55454
  Beta  occ. eigenvalues --   -0.51532  -0.51070  -0.47495  -0.46344  -0.39953
  Beta  occ. eigenvalues --   -0.37486  -0.37233  -0.35322  -0.34535  -0.33255
  Beta  occ. eigenvalues --   -0.32843  -0.32641  -0.31855  -0.30388  -0.29113
  Beta  occ. eigenvalues --   -0.28473  -0.26996  -0.26015  -0.25698  -0.25600
  Beta  occ. eigenvalues --   -0.24347  -0.23708  -0.23519  -0.22945  -0.21260
  Beta  occ. eigenvalues --   -0.15980  -0.15588  -0.11495
  Beta virt. eigenvalues --    0.06347   0.06922   0.07713   0.07910   0.08214
  Beta virt. eigenvalues --    0.08318   0.09012   0.09058   0.09234   0.10336
  Beta virt. eigenvalues --    0.10909   0.11001   0.11402   0.11828   0.12434

 Mulliken charges and spin densities:
               1          2
     1  C    1.109000  -1.724048
     2  C   -0.658079   0.256664
     3  C    0.691396   0.201917
     4  C   -0.614775   0.080803
     5  C   -0.707358  -0.013929
     6  C    1.870759  -0.551496
     7  C   -0.124471  -0.315483
     8  C   -0.865880   0.289128
     9  S    0.156504  -0.391495
    10  C    0.571873  -1.030157
    11  C   -1.135965   1.465204
    12  C   -0.213808  -0.426079
    13  C    0.667953  -1.309782
    14  H   -0.123927   0.259488
    15  H   -0.476553   0.613489
    16  H   -0.025699   0.158776
    17  H   -0.197821   0.342340
    18  H   -0.294394   0.437978
    19  H   -0.091795   0.252163
    20  H    0.067792   0.106060
    21  H   -0.281060   0.442700
    22  H   -0.200822   0.373001
    23  H    0.172282  -0.037221
    24  H   -0.004830   0.225759
    25  H    0.045982   0.096039
    26  H    0.157860  -0.023316
    27  H    0.012191   0.130722
    28  H    0.192922  -0.010654
    29  H   -0.274579   0.402261
    30  H   -0.271303   0.407957
    31  H   -0.153395   0.291212
 Sum of Mulliken charges =  -1.00000   1.00000

 Dipole moment (field-independent basis, Debye):
    X=              2.3792    Y=             -2.4226    Z=             -1.5967  Tot=              3.7522
 Quadrupole moment (field-independent basis, Debye-Ang):
   XX=           -194.6846   YY=           -130.4338   ZZ=           -116.8703
   XY=              3.6486   XZ=             -1.6194   YZ=              0.8977

 Summary of Natural Population Analysis:

                                       Natural Population
                Natural  -----------------------------------------------
    Atom  No    Charge         Core      Valence    Rydberg      Total
 -----------------------------------------------------------------------
      C    1   -0.27869      0.99966     2.27408    0.00495     3.27869
      C    2   -0.19895      0.99961     2.18960    0.00974     3.19895
      C    3   -0.00107      0.99951     1.99136    0.01020     3.00107
      C    4   -0.09511      0.99951     2.08614    0.00946     3.09511
      C    5   -0.10640      0.99949     2.09713    0.00977     3.10640
      C    6   -0.08343      0.99940     2.07146    0.01258     3.08343
      C    7   -0.09796      0.99949     2.08854    0.00993     3.09796
      C    8   -0.09943      0.99951     2.09063    0.00930     3.09943
      S    9    0.10286      4.99955     2.87972    0.01787     7.89714
      C   10   -0.24139      0.99955     2.22981    0.01203     3.24139
      C   11   -0.12059      0.99960     2.11117    0.00982     3.12059
      C   12   -0.28742      0.99964     2.28198    0.00580     3.28742
      C   13   -0.28450      0.99965     2.27882    0.00603     3.28450
      H   14    0.09698      0.00000     0.40196    0.00106     0.40302
      H   15    0.09944      0.00000     0.39840    0.00216     0.40056
      H   16    0.09603      0.00000     0.40294    0.00103     0.40397
      H   17    0.09993      0.00000     0.39850    0.00157     0.40007
      H   18    0.09929      0.00000     0.39920    0.00151     0.40071
      H   19    0.09873      0.00000     0.40037    0.00090     0.40127
      H   20    0.10205      0.00000     0.39694    0.00101     0.39795
      H   21    0.10049      0.00000     0.39798    0.00153     0.39951
      H   22    0.10007      0.00000     0.39893    0.00100     0.39993
      H   23    0.10135      0.00000     0.39715    0.00150     0.39865
      H   24    0.10613      0.00000     0.39261    0.00127     0.39387
      H   25    0.09302      0.00000     0.40506    0.00191     0.40698
      H   26    0.09834      0.00000     0.40071    0.00095     0.40166
      H   27    0.09706      0.00000     0.40222    0.00072     0.40294
      H   28    0.10615      0.00000     0.39270    0.00115     0.39385
      H   29    0.09939      0.00000     0.39942    0.00119     0.40061
      H   30    0.10068      0.00000     0.39814    0.00118     0.39932
      H   31    0.09696      0.00000     0.40199    0.00104     0.40304
 =======================================================================
   * Total *   -0.00000     16.99416    35.85569    0.15015    53.00000

 Normal termination of Gaussian 16 at Wed Dec  9 22:49:04 2020.
