 Gaussian 16, Revision A.03,

 -----------------------------------------------------------
 # opt freq B3LYP/6-31G(d) empiricaldispersion=gd3bj scf=xqc
 -----------------------------------------------------------

 -------------------------------
 CID_131164925_JID_4433_neutraal
 -------------------------------
 Symbolic Z-matrix:
 Charge =  0 Multiplicity = 1

 SCF Done:  E(RB3LYP) =  -1035.37258749     A.U. after   15 cycles
 SCF Done:  E(RB3LYP) =  -1035.38004421     A.U. after   13 cycles
 SCF Done:  E(RB3LYP) =  -1035.38167500     A.U. after   12 cycles
 SCF Done:  E(RB3LYP) =  -1035.38270043     A.U. after   12 cycles
 SCF Done:  E(RB3LYP) =  -1035.38328755     A.U. after   12 cycles
 SCF Done:  E(RB3LYP) =  -1035.38349402     A.U. after   11 cycles
 SCF Done:  E(RB3LYP) =  -1035.38353311     A.U. after   11 cycles
 SCF Done:  E(RB3LYP) =  -1035.38362425     A.U. after   10 cycles
 SCF Done:  E(RB3LYP) =  -1035.38384864     A.U. after   11 cycles
 SCF Done:  E(RB3LYP) =  -1035.38402686     A.U. after   14 cycles
 SCF Done:  E(RB3LYP) =  -1035.38446751     A.U. after   10 cycles
 SCF Done:  E(RB3LYP) =  -1035.38446938     A.U. after   10 cycles
 SCF Done:  E(RB3LYP) =  -1035.38446823     A.U. after   10 cycles
 SCF Done:  E(RB3LYP) =  -1035.38447072     A.U. after    9 cycles
 SCF Done:  E(RB3LYP) =  -1035.38447082     A.U. after    7 cycles
 Optimization completed.
    -- Stationary point found.
 Normal termination of Gaussian 16 at Thu Dec 10 09:46:29 2020.

 --------------------------------------------------------------------
 #N Geom=AllCheck Guess=TCheck SCRF=Check GenChk RB3LYP/6-31G(d) Freq
 --------------------------------------------------------------------

 Structure from the checkpoint file:  "JID_4433.chk"
 -------------------------------
 CID_131164925_JID_4433_neutraal
 -------------------------------
 Charge =  0 Multiplicity = 1

 SCF Done:  E(RB3LYP) =  -1035.38447082     A.U. after    1 cycles

  Exact polarizability: 119.789   2.618 147.610   1.983   3.640  75.635
 Approx polarizability: 173.156   7.632 262.934  -1.265   7.059 127.270

                      1                      2                      3
                      A                      A                      A
 Frequencies --     24.8914                63.4430                84.7019
 Red. masses --      6.0618                 6.7966                 6.0785
 Frc consts  --      0.0022                 0.0161                 0.0257
 IR Inten    --      1.7781                 3.2129                 0.8691

                      4                      5                      6
                      A                      A                      A
 Frequencies --    121.3128               127.5674               173.2101
 Red. masses --      1.1226                 8.6071                 5.2805
 Frc consts  --      0.0097                 0.0825                 0.0933
 IR Inten    --      1.3878                 9.0986                 4.4026

                      7                      8                      9
                      A                      A                      A
 Frequencies --    201.1211               232.7087               260.7373
 Red. masses --      4.5943                 4.1871                 6.5358
 Frc consts  --      0.1095                 0.1336                 0.2618
 IR Inten    --      8.3368                 2.3963                 8.6265

                     10                     11                     12
                      A                      A                      A
 Frequencies --    298.0724               329.6960               374.9407
 Red. masses --      4.1349                 2.4605                 5.3555
 Frc consts  --      0.2164                 0.1576                 0.4436
 IR Inten    --      1.3936                 3.2523                 2.4492

                     13                     14                     15
                      A                      A                      A
 Frequencies --    430.7816               493.5921               564.1278
 Red. masses --      3.4604                 6.4309                 3.5582
 Frc consts  --      0.3784                 0.9231                 0.6672
 IR Inten    --      2.6184                34.3360                41.8550

                     16                     17                     18
                      A                      A                      A
 Frequencies --    583.3198               615.8653               644.1667
 Red. masses --      1.9160                 3.8495                 5.4677
 Frc consts  --      0.3841                 0.8603                 1.3368
 IR Inten    --     74.9208                36.9235                 2.7326

                     19                     20                     21
                      A                      A                      A
 Frequencies --    680.5815               706.9698               710.4539
 Red. masses --      3.9358                 6.1041                 4.4855
 Frc consts  --      1.0741                 1.7975                 1.3339
 IR Inten    --    117.3142                44.9197                53.4763

                     22                     23                     24
                      A                      A                      A
 Frequencies --    734.9619               777.8050               791.8519
 Red. masses --      6.6998                 3.6725                 4.3501
 Frc consts  --      2.1323                 1.3090                 1.6071
 IR Inten    --     35.4863                48.8587                73.0990

                     25                     26                     27
                      A                      A                      A
 Frequencies --    817.8420               863.8199               919.8676
 Red. masses --      3.3242                 1.3914                 2.4114
 Frc consts  --      1.3100                 0.6117                 1.2022
 IR Inten    --     70.8070                14.3151                30.2080

                     28                     29                     30
                      A                      A                      A
 Frequencies --    991.6674              1039.6647              1054.2272
 Red. masses --      4.0173                 3.0098                 2.8752
 Frc consts  --      2.3277                 1.9168                 1.8827
 IR Inten    --      5.1966                23.5025                 3.0913

                     31                     32                     33
                      A                      A                      A
 Frequencies --   1117.1516              1150.3414              1164.8839
 Red. masses --      3.6386                 1.8687                 1.3144
 Frc consts  --      2.6755                 1.4569                 1.0509
 IR Inten    --      5.8959                14.1673                 0.9335

                     34                     35                     36
                      A                      A                      A
 Frequencies --   1174.8932              1209.8753              1246.5442
 Red. masses --      4.6428                 3.0386                 3.3721
 Frc consts  --      3.7760                 2.6207                 3.0872
 IR Inten    --     20.6568                10.4725                 6.6014

                     37                     38                     39
                      A                      A                      A
 Frequencies --   1268.2190              1287.6096              1315.1438
 Red. masses --      2.6906                 2.7874                 5.1343
 Frc consts  --      2.5497                 2.7228                 5.2322
 IR Inten    --     30.4217               160.9049                21.2908

                     40                     41                     42
                      A                      A                      A
 Frequencies --   1351.9716              1376.1077              1398.0897
 Red. masses --      3.0437                 1.4914                 1.7525
 Frc consts  --      3.2778                 1.6640                 2.0183
 IR Inten    --     32.0470                16.2095                86.5649

                     43                     44                     45
                      A                      A                      A
 Frequencies --   1400.7940              1450.8739              1466.4694
 Red. masses --      1.7579                 2.7415                 1.3929
 Frc consts  --      2.0323                 3.4001                 1.7648
 IR Inten    --    117.7441               100.1732                10.4325

                     46                     47                     48
                      A                      A                      A
 Frequencies --   1485.4500              1505.1658              1511.8812
 Red. masses --      1.5205                 1.3933                 2.3477
 Frc consts  --      1.9767                 1.8599                 3.1617
 IR Inten    --    162.6256               145.8638                 5.3761

                     49                     50                     51
                      A                      A                      A
 Frequencies --   1519.3748              1534.3459              1594.9514
 Red. masses --      1.2211                 1.1230                 5.0318
 Frc consts  --      1.6608                 1.5577                 7.5417
 IR Inten    --     13.8666                10.5234                 2.5771

                     52                     53                     54
                      A                      A                      A
 Frequencies --   1869.7554              3071.4675              3107.0421
 Red. masses --     11.4659                 1.0366                 1.0593
 Frc consts  --     23.6172                 5.7618                 6.0251
 IR Inten    --    419.9034                28.8316                 5.8728

                     55                     56                     57
                      A                      A                      A
 Frequencies --   3146.6099              3159.3274              3190.7925
 Red. masses --      1.1026                 1.1068                 1.1039
 Frc consts  --      6.4323                 6.5090                 6.6217
 IR Inten    --      5.9184                 0.2748                 0.6362

                     58                     59                     60
                      A                      A                      A
 Frequencies --   3292.0294              3556.9407              3582.4876
 Red. masses --      1.0987                 1.0778                 1.0791
 Frc consts  --      7.0154                 8.0339                 8.1598
 IR Inten    --      0.1925                55.5047                67.3901

 - Thermochemistry -
 -------------------
 Temperature   298.150 Kelvin.  Pressure   1.00000 Atm.
 Atom     1 has atomic number  6 and mass  12.00000

 Molecular mass:   212.04803 amu.
 Principal axes and moments of inertia in atomic units:
                           1         2         3
     Eigenvalues --  1987.841533516.842084967.91862
           X            0.99928   0.03595   0.01212
           Y           -0.03606   0.99931   0.00877
           Z           -0.01180  -0.00920   0.99989
 This molecule is an asymmetric top.
 Rotational symmetry number  1.
 Warning -- assumption of classical behavior for rotation
           may cause significant error
 Rotational temperatures (Kelvin)      0.04357     0.02463     0.01743
 Rotational constants (GHZ):           0.90789     0.51317     0.36328
 Zero-point vibrational energy     431974.9 (Joules/Mol)
                                  103.24447 (Kcal/Mol)
 Warning -- explicit consideration of  17 degrees of freedom as
           vibrations may cause significant error
 Vibrational temperatures:     35.81    91.28   121.87   174.54   183.54
          (Kelvin)            249.21   289.37   334.82   375.14   428.86
                              474.36   539.46   619.80   710.17   811.65
                              839.27   886.09   926.81   979.21  1017.17
                             1022.18  1057.45  1119.09  1139.30  1176.69
                             1242.84  1323.48  1426.79  1495.85  1516.80
                             1607.33  1655.08  1676.01  1690.41  1740.74
                             1793.50  1824.68  1852.58  1892.20  1945.19
                             1979.91  2011.54  2015.43  2087.48  2109.92
                             2137.23  2165.60  2175.26  2186.04  2207.58
                             2294.78  2690.16  4419.16  4470.34  4527.27
                             4545.57  4590.84  4736.50  5117.64  5154.40

 Zero-point correction=                           0.164531 (Hartree/Particle)
 Thermal correction to Energy=                    0.176744
 Thermal correction to Enthalpy=                  0.177688
 Thermal correction to Gibbs Free Energy=         0.124341
 Sum of electronic and zero-point Energies=          -1035.219940
 Sum of electronic and thermal Energies=             -1035.207727
 Sum of electronic and thermal Enthalpies=           -1035.206783
 Sum of electronic and thermal Free Energies=        -1035.260130

                     E (Thermal)             CV                S
                      KCal/Mol        Cal/Mol-Kelvin    Cal/Mol-Kelvin
 Total                  110.908             44.730            112.278
 Electronic               0.000              0.000              0.000
 Translational            0.889              2.981             41.959
 Rotational               0.889              2.981             31.918
 Vibrational            109.131             38.769             38.401
 Vibration     1          0.593              1.985              6.200
 Vibration     2          0.597              1.972              4.347
 Vibration     3          0.601              1.960              3.779
 Vibration     4          0.609              1.931              3.079
 Vibration     5          0.611              1.926              2.982
 Vibration     6          0.627              1.875              2.400
 Vibration     7          0.638              1.838              2.123
 Vibration     8          0.653              1.791              1.858
 Vibration     9          0.669              1.745              1.657
 Vibration    10          0.691              1.677              1.428
 Vibration    11          0.712              1.616              1.262
 Vibration    12          0.746              1.523              1.060
 Vibration    13          0.792              1.403              0.856
 Vibration    14          0.849              1.264              0.674
 Vibration    15          0.920              1.109              0.516
 Vibration    16          0.940              1.067              0.479
 Vibration    17          0.975              0.998              0.423

 Optimization completed.
    -- Stationary point found.
 Normal termination of Gaussian 16 at Thu Dec 10 09:52:08 2020.

 ----------------------------------------------------------------------
 # B3LYP/6-311++G(d,p) empiricaldispersion=gd3bj scf=xqc pop=npa geom=c
 heck
 ----------------------------------------------------------------------

 ---------------------------------------
 CID_131164925_JID_4433_Energie_neutraal
 ---------------------------------------
 Structure from the checkpoint file:  "JID_4433.chk"
 Charge =  0 Multiplicity = 1

 SCF Done:  E(RB3LYP) =  -1035.58897047     A.U. after   15 cycles
 Normal termination of Gaussian 16 at Thu Dec 10 09:54:02 2020.

 ----------------------------------------------------------------------
 # B3LYP/6-311++G(d,p) empiricaldispersion=gd3bj scf=xqc pop=npa geom=c
 heck
 ----------------------------------------------------------------------

 -------------------------------------
 CID_131164925_JID_4433_Energie_kation
 -------------------------------------
 Structure from the checkpoint file:  "JID_4433.chk"
 Charge =  1 Multiplicity = 2

 SCF Done:  E(UB3LYP) =  -1035.26071912     A.U. after   33 cycles
 SCF Done:  E(UB3LYP) =  -1035.26075379     a.u. after    4 cycles
 Normal termination of Gaussian 16 at Thu Dec 10 10:17:38 2020.
 Gaussian 16:  ES64L-G16RevA.03 25-Dec-2016

 ----------------------------------------------------------------------
 # B3LYP/6-311++G(d,p) empiricaldispersion=gd3bj scf=xqc pop=npa geom=c
 heck
 ----------------------------------------------------------------------

 ------------------------------------
 CID_131164925_JID_4433_Energie_anion
 ------------------------------------
 Structure from the checkpoint file:  "JID_4433.chk"
 Charge = -1 Multiplicity = 2

                         Standard orientation:
 ---------------------------------------------------------------------
 Center     Atomic      Atomic             Coordinates (Angstroms)
 Number     Number       Type             X           Y           Z
 ---------------------------------------------------------------------
      1          6           0        2.340757    1.958042    0.252848
      2          7           0        2.300338    0.530189   -0.017282
      3          6           0        1.422498   -0.415033    0.421092
      4          6           0        1.911955   -1.592332   -0.110908
      5          7           0        3.034404   -1.319425   -0.827588
      6          7           0        3.274026   -0.034737   -0.765626
      7          6           0        0.210107   -0.142251    1.253127
      8          7           0       -1.029078   -0.260858    0.483621
      9          6           0       -1.613664   -1.504940    0.222264
     10          8           0       -1.203447   -2.592420    0.560181
     11          7           0       -2.773888   -1.213896   -0.506796
     12          7           0       -2.680352    0.146714   -0.898451
     13          6           0       -1.699311    0.761302   -0.146424
     14         16           0       -1.444807    2.393536   -0.033119
     15          1           0        3.112680    2.377669   -0.391957
     16          1           0        1.372253    2.410491    0.028877
     17          1           0        2.601273    2.143885    1.299733
     18          1           0        1.508208   -2.589851   -0.020001
     19          1           0        0.138985   -0.873299    2.061288
     20          1           0        0.220600    0.861910    1.680748
     21          1           0       -2.953685   -1.847652   -1.280901
     22          1           0       -3.568043    0.634989   -0.956473
 ---------------------------------------------------------------------

 SCF Done:  E(UB3LYP) =  -1035.59296511     A.U. after   32 cycles

 The electronic state is 2-A.
 Alpha  occ. eigenvalues --  -88.66089 -18.98634 -14.30757 -14.26768 -14.25166
 Alpha  occ. eigenvalues --  -14.25154 -14.24077 -14.23340 -10.18488 -10.13175
 Alpha  occ. eigenvalues --  -10.12289 -10.12103 -10.12051 -10.09250  -7.74835
 Alpha  occ. eigenvalues --   -5.71223  -5.70643  -5.70445  -0.99911  -0.97174
 Alpha  occ. eigenvalues --   -0.91156  -0.83324  -0.81841  -0.72704  -0.71752
 Alpha  occ. eigenvalues --   -0.64471  -0.63538  -0.59851  -0.53244  -0.51072
 Alpha  occ. eigenvalues --   -0.49526  -0.47768  -0.43077  -0.42305  -0.40290
 Alpha  occ. eigenvalues --   -0.39943  -0.37211  -0.36080  -0.35874  -0.33369
 Alpha  occ. eigenvalues --   -0.32567  -0.32145  -0.31783  -0.30369  -0.26439
 Alpha  occ. eigenvalues --   -0.25296  -0.23763  -0.21802  -0.19425  -0.17747
 Alpha  occ. eigenvalues --   -0.17359  -0.16289  -0.14639  -0.09748  -0.09376
 Alpha  occ. eigenvalues --    0.04862
 Alpha virt. eigenvalues --    0.07320   0.07574   0.08795   0.09364   0.09949
 Alpha virt. eigenvalues --    0.10950   0.11945   0.12170   0.12588   0.13568
 Alpha virt. eigenvalues --    0.14267   0.14583   0.15019   0.16059   0.16657

  Beta  occ. eigenvalues --  -88.66069 -18.98552 -14.30752 -14.26757 -14.25197
  Beta  occ. eigenvalues --  -14.25050 -14.23890 -14.23338 -10.18366 -10.13177
  Beta  occ. eigenvalues --  -10.12281 -10.12099 -10.11324 -10.09252  -7.74817
  Beta  occ. eigenvalues --   -5.71240  -5.70553  -5.70430  -0.99900  -0.96919
  Beta  occ. eigenvalues --   -0.90908  -0.83200  -0.81800  -0.72299  -0.71591
  Beta  occ. eigenvalues --   -0.64422  -0.63420  -0.59361  -0.53214  -0.50930
  Beta  occ. eigenvalues --   -0.49172  -0.47688  -0.42993  -0.42026  -0.40110
  Beta  occ. eigenvalues --   -0.39734  -0.36979  -0.36006  -0.35748  -0.33204
  Beta  occ. eigenvalues --   -0.32329  -0.32067  -0.31674  -0.30207  -0.25338
  Beta  occ. eigenvalues --   -0.24451  -0.23664  -0.20920  -0.19385  -0.17701
  Beta  occ. eigenvalues --   -0.17255  -0.16195  -0.13874  -0.09332  -0.08834
  Beta virt. eigenvalues --    0.07289   0.08260   0.08917   0.09430   0.10429
  Beta virt. eigenvalues --    0.11308   0.11651   0.12113   0.12196   0.12585
  Beta virt. eigenvalues --    0.13646   0.14279   0.14752   0.15768   0.15963

 Mulliken charges and spin densities:
               1          2
     1  C   -0.183787  -0.042037
     2  N    0.240299   0.009121
     3  C    0.173950   0.024834
     4  C   -0.236357   0.000656
     5  N   -0.206510   0.000855
     6  N   -0.000622  -0.004702
     7  C   -0.967824  -0.085099
     8  N    0.245292  -0.064525
     9  C    0.302209  -0.046489
    10  O   -0.411405   0.037998
    11  N   -0.031335  -0.078786
    12  N    0.015569   0.026673
    13  C    0.082979   0.144032
    14  S   -0.630816   0.066655
    15  H    0.148604   0.012379
    16  H    0.144897   0.015720
    17  H    0.135396   0.015013
    18  H    0.196480   0.010756
    19  H    0.214739  -0.007144
    20  H    0.115795   0.007938
    21  H   -0.130369   0.437065
    22  H   -0.217182   0.519087
 Sum of Mulliken charges =  -1.00000   1.00000

 Dipole moment (field-independent basis, Debye):
    X=              4.9333    Y=              0.4154    Z=              3.8998  Tot=              6.3022
 Quadrupole moment (field-independent basis, Debye-Ang):
   XX=           -145.2144   YY=           -125.2711   ZZ=           -102.2907
   XY=             12.0575   XZ=              3.5281   YZ=              0.2162

 Summary of Natural Population Analysis:

                                       Natural Population
                Natural  -----------------------------------------------
    Atom  No    Charge         Core      Valence    Rydberg      Total
 -----------------------------------------------------------------------
      C    1   -0.18645      0.99964     2.18049    0.00632     3.18645
      N    2   -0.10337      0.99962     2.58812    0.01563     3.60337
      C    3    0.06372      0.99952     1.92564    0.01111     2.93628
      C    4   -0.03984      0.99955     2.02705    0.01325     3.03984
      N    5   -0.14125      0.99976     2.62551    0.01598     3.64125
      N    6   -0.05061      0.99978     2.53522    0.01561     3.55061
      C    7   -0.10460      0.99959     2.09515    0.00986     3.10460
      N    8   -0.25780      0.99957     2.74735    0.01088     3.75780
      C    9    0.41830      0.99970     1.55729    0.02471     2.58170
      O   10   -0.32246      0.99987     3.31720    0.00539     4.32246
      N   11   -0.22697      0.99969     2.71463    0.01264     3.72697
      N   12   -0.20409      0.99965     2.68958    0.01486     3.70409
      C   13    0.24621      0.99965     1.73471    0.01943     2.75379
      S   14   -0.15584      4.99958     3.14104    0.01522     8.15584
      H   15    0.10771      0.00000     0.39140    0.00089     0.39229
      H   16    0.12267      0.00000     0.37601    0.00133     0.37733
      H   17    0.09355      0.00000     0.40554    0.00091     0.40645
      H   18    0.11207      0.00000     0.38699    0.00094     0.38793
      H   19    0.11395      0.00000     0.38506    0.00099     0.38605
      H   20    0.11954      0.00000     0.37918    0.00128     0.38046
      H   21    0.19529      0.00000     0.29817    0.00654     0.30471
      H   22    0.20030      0.00000     0.29172    0.00798     0.29970
 =======================================================================
   * Total *    0.00000     17.99516    36.79307    0.21176    55.00000

 Normal termination of Gaussian 16 at Thu Dec 10 10:22:56 2020.
