 Gaussian 16, Revision A.03,

 -----------------------------------------------------------
 # opt freq B3LYP/6-31G(d) empiricaldispersion=gd3bj scf=xqc
 -----------------------------------------------------------

 ------------------------------
 CID_118209543_JID_835_neutraal
 ------------------------------
 Symbolic Z-matrix:
 Charge =  0 Multiplicity = 1

 SCF Done:  E(RB3LYP) =  -463.705339631     A.U. after   13 cycles
 SCF Done:  E(RB3LYP) =  -463.708808196     A.U. after   11 cycles
 SCF Done:  E(RB3LYP) =  -463.709247372     A.U. after   10 cycles
 SCF Done:  E(RB3LYP) =  -463.709457088     A.U. after   10 cycles
 SCF Done:  E(RB3LYP) =  -463.709516601     A.U. after   10 cycles
 SCF Done:  E(RB3LYP) =  -463.709553001     A.U. after   10 cycles
 SCF Done:  E(RB3LYP) =  -463.709562050     A.U. after   10 cycles
 SCF Done:  E(RB3LYP) =  -463.709565024     A.U. after    9 cycles
 SCF Done:  E(RB3LYP) =  -463.709567082     A.U. after    9 cycles
 SCF Done:  E(RB3LYP) =  -463.709568442     A.U. after    9 cycles
 SCF Done:  E(RB3LYP) =  -463.709568480     A.U. after    7 cycles
 Optimization completed.
    -- Stationary point found.

 1\1\GINC-NODE106\FOpt\RB3LYP\6-31G(d)\C8H14O2\VSC10255\08-Dec-2020\0\\
 # opt freq B3LYP/6-31G(d) empiricaldispersion=gd3bj scf=xqc\\CID_11820
 9543_JID_835_neutraal\\0,1\C,-1.5217980351,0.7377615491,0.1224291858\C
 ,-1.6269908204,-0.7561538828,-0.2044129722\C,-0.4368812069,-1.59240595
 94,0.2614767196\O,0.7126826924,-1.296224722,-0.522566014\C,1.618213956
 9,-0.3538754825,0.01480101\C,1.0195846197,0.9729887948,0.5195108067\C,
 -0.2057006808,1.4237593714,-0.2867811426\C,0.8935811732,1.0945599262,2
 .0637025698\O,2.0586546605,1.9385966578,2.1523567991\C,2.1483584161,2.

 Normal termination of Gaussian 16 at Tue Dec  8 12:43:33 2020.

 --------------------------------------------------------------------
 #N Geom=AllCheck Guess=TCheck SCRF=Check GenChk RB3LYP/6-31G(d) Freq
 --------------------------------------------------------------------

 Structure from the checkpoint file:  "JID_835.chk"
 ------------------------------
 CID_118209543_JID_835_neutraal
 ------------------------------
 Charge =  0 Multiplicity = 1

 SCF Done:  E(RB3LYP) =  -463.709568480     A.U. after    1 cycles

  Exact polarizability:  93.896  -3.069  81.040  -5.378   0.138  79.473
 Approx polarizability: 121.412  -2.350 112.951  -3.160   2.784 120.352

                      1                      2                      3
                      A                      A                      A
 Frequencies --     52.5979               101.9873               154.3232
 Red. masses --      3.9959                 2.7600                 2.6844
 Frc consts  --      0.0065                 0.0169                 0.0377
 IR Inten    --      5.7520                 1.4539                 2.3064

                      4                      5                      6
                      A                      A                      A
 Frequencies --    224.3732               259.9870               320.9374
 Red. masses --      2.8355                 2.2833                 2.6203
 Frc consts  --      0.0841                 0.0909                 0.1590
 IR Inten    --      1.5393                 0.3271                 1.2542

                      7                      8                      9
                      A                      A                      A
 Frequencies --    332.7670               369.3654               388.1895
 Red. masses --      2.3524                 2.1928                 2.2291
 Frc consts  --      0.1535                 0.1763                 0.1979
 IR Inten    --      1.0078                 1.1115                 1.6062

                     10                     11                     12
                      A                      A                      A
 Frequencies --    442.5328               490.1923               519.7715
 Red. masses --      2.9301                 3.4729                 1.6086
 Frc consts  --      0.3381                 0.4917                 0.2561
 IR Inten    --      1.4103                 1.9077                 4.6007

                     13                     14                     15
                      A                      A                      A
 Frequencies --    701.0052               813.6166               842.2400
 Red. masses --      2.8541                 3.1974                 2.5995
 Frc consts  --      0.8263                 1.2471                 1.0864
 IR Inten    --      4.7100                 4.4690                11.5955

                     16                     17                     18
                      A                      A                      A
 Frequencies --    851.4181               873.6088               913.3719
 Red. masses --      2.2049                 1.9016                 1.8691
 Frc consts  --      0.9417                 0.8551                 0.9187
 IR Inten    --      7.3741                 3.6624                 2.2463

                     19                     20                     21
                      A                      A                      A
 Frequencies --    941.2804               952.3224               966.6669
 Red. masses --      1.5809                 2.2766                 2.3700
 Frc consts  --      0.8253                 1.2165                 1.3049
 IR Inten    --      1.3772                 7.9629                 6.7730

                     22                     23                     24
                      A                      A                      A
 Frequencies --    991.0024              1007.5416              1032.4509
 Red. masses --      1.4248                 3.7167                 2.4834
 Frc consts  --      0.8244                 2.2230                 1.5597
 IR Inten    --      4.1760                13.8062                13.0907

                     25                     26                     27
                      A                      A                      A
 Frequencies --   1053.5771              1093.0067              1106.1551
 Red. masses --     10.3025                 1.6559                 2.6278
 Frc consts  --      6.7379                 1.1655                 1.8944
 IR Inten    --     69.9147                 5.1539                 9.2301

                     28                     29                     30
                      A                      A                      A
 Frequencies --   1120.9754              1167.0009              1173.8489
 Red. masses --      2.2100                 1.3923                 1.4598
 Frc consts  --      1.6362                 1.1172                 1.1852
 IR Inten    --     33.0992                 7.9177                 8.9360

                     31                     32                     33
                      A                      A                      A
 Frequencies --   1182.5412              1187.4292              1229.6221
 Red. masses --      3.7432                 1.2359                 1.7604
 Frc consts  --      3.0841                 1.0267                 1.5683
 IR Inten    --     85.4209                 6.7195                20.1230

                     34                     35                     36
                      A                      A                      A
 Frequencies --   1271.9477              1286.5646              1315.9182
 Red. masses --      1.6178                 1.3921                 1.4107
 Frc consts  --      1.5421                 1.3577                 1.4393
 IR Inten    --      9.3339                 3.0758                 8.4924

                     37                     38                     39
                      A                      A                      A
 Frequencies --   1323.5476              1345.9711              1348.6296
 Red. masses --      1.2670                 1.2192                 1.3600
 Frc consts  --      1.3077                 1.3014                 1.4574
 IR Inten    --      1.6404                 2.0515                 7.7346

                     40                     41                     42
                      A                      A                      A
 Frequencies --   1388.9527              1400.7551              1404.7127
 Red. masses --      1.3410                 1.4138                 1.4918
 Frc consts  --      1.5243                 1.6344                 1.7344
 IR Inten    --      0.1885                 2.9576                 4.9184

                     43                     44                     45
                      A                      A                      A
 Frequencies --   1417.2711              1425.4442              1443.8763
 Red. masses --      1.4181                 1.3392                 1.3117
 Frc consts  --      1.6783                 1.6032                 1.6112
 IR Inten    --      4.6794                14.9393                 5.6993

                     46                     47                     48
                      A                      A                      A
 Frequencies --   1503.6876              1514.2524              1524.3756
 Red. masses --      1.0913                 1.0848                 1.0877
 Frc consts  --      1.4538                 1.4655                 1.4892
 IR Inten    --      2.5559                 4.6645                 2.1050

                     49                     50                     51
                      A                      A                      A
 Frequencies --   1525.3635              1535.3562              1541.8887
 Red. masses --      1.0897                 1.0887                 1.0839
 Frc consts  --      1.4939                 1.5121                 1.5182
 IR Inten    --      3.0669                 4.1324                 0.8716

                     52                     53                     54
                      A                      A                      A
 Frequencies --   1565.8199              2983.4903              3014.4300
 Red. masses --      1.1116                 1.0707                 1.0624
 Frc consts  --      1.6057                 5.6155                 5.6878
 IR Inten    --      2.2701                56.6733                20.7008

                     55                     56                     57
                      A                      A                      A
 Frequencies --   3017.2994              3028.9934              3033.3013
 Red. masses --      1.0565                 1.0599                 1.0615
 Frc consts  --      5.6671                 5.7295                 5.7545
 IR Inten    --    113.5478                 7.4642                20.2701

                     58                     59                     60
                      A                      A                      A
 Frequencies --   3037.7239              3040.7539              3063.0662
 Red. masses --      1.0608                 1.0644                 1.1094
 Frc consts  --      5.7674                 5.7983                 6.1328
 IR Inten    --     40.2368                17.7018                22.0161

                     61                     62                     63
                      A                      A                      A
 Frequencies --   3069.0357              3071.2711              3076.7840
 Red. masses --      1.1043                 1.1023                 1.1012
 Frc consts  --      6.1284                 6.1262                 6.1419
 IR Inten    --    107.0606                 4.0381                69.6396

                     64                     65                     66
                      A                      A                      A
 Frequencies --   3079.5995              3082.6139              3088.4165
 Red. masses --      1.0960                 1.1002                 1.1025
 Frc consts  --      6.1240                 6.1596                 6.1957
 IR Inten    --     35.5426                17.8057                93.7091

 - Thermochemistry -
 -------------------
 Temperature   298.150 Kelvin.  Pressure   1.00000 Atm.
 Atom     1 has atomic number  6 and mass  12.00000

 Molecular mass:   142.09938 amu.
 Principal axes and moments of inertia in atomic units:
                           1         2         3
     Eigenvalues --   774.223121732.880072000.36205
           X            0.99950  -0.02300  -0.02191
           Y            0.02251   0.99949  -0.02247
           Z            0.02242   0.02197   0.99951
 This molecule is an asymmetric top.
 Rotational symmetry number  1.
 Warning -- assumption of classical behavior for rotation
           may cause significant error
 Rotational temperatures (Kelvin)      0.11187     0.04998     0.04330
 Rotational constants (GHZ):           2.33104     1.04147     0.90221
 Zero-point vibrational energy     566006.0 (Joules/Mol)
                                  135.27869 (Kcal/Mol)
 Warning -- explicit consideration of  12 degrees of freedom as
           vibrations may cause significant error
 Vibrational temperatures:     75.68   146.74   222.04   322.82   374.06
          (Kelvin)            461.76   478.78   531.43   558.52   636.71
                              705.28   747.84  1008.59  1170.61  1211.80
                             1225.00  1256.93  1314.14  1354.29  1370.18
                             1390.82  1425.83  1449.63  1485.47  1515.86
                             1572.59  1591.51  1612.83  1679.05  1688.91
                             1701.41  1708.45  1769.15  1830.05  1851.08
                             1893.31  1904.29  1936.55  1940.38  1998.39
                             2015.37  2021.07  2039.14  2050.90  2077.42
                             2163.47  2178.67  2193.24  2194.66  2209.04
                             2218.43  2252.87  4292.58  4337.09  4341.22
                             4358.05  4364.24  4370.61  4374.97  4407.07
                             4415.66  4418.87  4426.81  4430.86  4435.19
                             4443.54

 Zero-point correction=                           0.215580 (Hartree/Particle)
 Thermal correction to Energy=                    0.224749
 Thermal correction to Enthalpy=                  0.225693
 Thermal correction to Gibbs Free Energy=         0.181136
 Sum of electronic and zero-point Energies=           -463.493988
 Sum of electronic and thermal Energies=              -463.484819
 Sum of electronic and thermal Enthalpies=            -463.483875
 Sum of electronic and thermal Free Energies=         -463.528432

                     E (Thermal)             CV                S
                      KCal/Mol        Cal/Mol-Kelvin    Cal/Mol-Kelvin
 Total                  141.032             35.625             93.778
 Electronic               0.000              0.000              0.000
 Translational            0.889              2.981             40.765
 Rotational               0.889              2.981             29.374
 Vibrational            139.255             29.664             23.638
 Vibration     1          0.596              1.977              4.717
 Vibration     2          0.604              1.948              3.416
 Vibration     3          0.620              1.898              2.618
 Vibration     4          0.649              1.804              1.924
 Vibration     5          0.668              1.746              1.662
 Vibration     6          0.706              1.633              1.305
 Vibration     7          0.715              1.610              1.247
 Vibration     8          0.742              1.535              1.082
 Vibration     9          0.756              1.495              1.007
 Vibration    10          0.802              1.377              0.819
 Vibration    11          0.846              1.272              0.683
 Vibration    12          0.875              1.206              0.610

 Optimization completed.
    -- Stationary point found.

 1\1\GINC-NODE106\Freq\RB3LYP\6-31G(d)\C8H14O2\VSC10255\08-Dec-2020\0\\
 #N Geom=AllCheck Guess=TCheck SCRF=Check GenChk RB3LYP/6-31G(d) Freq\\
 CID_118209543_JID_835_neutraal\\0,1\C,-1.5217980351,0.7377615491,0.122
 4291858\C,-1.6269908204,-0.7561538828,-0.2044129722\C,-0.4368812069,-1
 .5924059594,0.2614767196\O,0.7126826924,-1.296224722,-0.522566014\C,1.
 6182139569,-0.3538754825,0.01480101\C,1.0195846197,0.9729887948,0.5195
 108067\C,-0.2057006808,1.4237593714,-0.2867811426\C,0.8935811732,1.094
 5599262,2.0637025698\O,2.0586546605,1.9385966578,2.1523567991\C,2.1483

 Normal termination of Gaussian 16 at Tue Dec  8 13:04:22 2020.

 ----------------------------------------------------------------------
 # B3LYP/6-311++G(d,p) empiricaldispersion=gd3bj scf=xqc pop=npa geom=c
 heck
 ----------------------------------------------------------------------

 --------------------------------------
 CID_118209543_JID_835_Energie_neutraal
 --------------------------------------
 Structure from the checkpoint file:  "JID_835.chk"
 Charge =  0 Multiplicity = 1

 SCF Done:  E(RB3LYP) =  -463.841961553     A.U. after   13 cycles
 Normal termination of Gaussian 16 at Tue Dec  8 13:08:41 2020.

 ----------------------------------------------------------------------
 # B3LYP/6-311++G(d,p) empiricaldispersion=gd3bj scf=xqc pop=npa geom=c
 heck
 ----------------------------------------------------------------------

 ------------------------------------
 CID_118209543_JID_835_Energie_kation
 ------------------------------------
 Structure from the checkpoint file:  "JID_835.chk"
 Charge =  1 Multiplicity = 2

 SCF Done:  E(UB3LYP) =  -463.513564988     A.U. after   21 cycles
 Normal termination of Gaussian 16 at Tue Dec  8 13:17:16 2020.
 Gaussian 16:  ES64L-G16RevA.03 25-Dec-2016

 -----------------------------------
 CID_118209543_JID_835_Energie_anion
 -----------------------------------
 Structure from the checkpoint file:  "JID_835.chk"
 Charge = -1 Multiplicity = 2

                         Standard orientation:
 ---------------------------------------------------------------------
 Center     Atomic      Atomic             Coordinates (Angstroms)
 Number     Number       Type             X           Y           Z
 ---------------------------------------------------------------------
      1          6           0       -1.255845    1.587323   -0.064736
      2          6           0       -2.394759    0.589754    0.174859
      3          6           0       -1.941398   -0.785161    0.661482
      4          8           0       -1.278064   -1.485715   -0.384059
      5          6           0        0.133287   -1.416763   -0.394447
      6          6           0        0.759654   -0.014156   -0.276065
      7          6           0       -0.090834    1.080442   -0.934207
      8          6           0        1.341289    0.332479    1.122767
      9          8           0        2.694332    0.098347    0.684464
     10          6           0        2.257343   -0.069876   -0.678694
     11          1           0       -0.855380    1.912790    0.905102
     12          1           0       -1.671525    2.488581   -0.532278
     13          1           0       -3.101877    1.015060    0.900283
     14          1           0       -2.951993    0.430015   -0.756978
     15          1           0       -2.813360   -1.390796    0.933866
     16          1           0       -1.303960   -0.708215    1.555552
     17          1           0        0.415183   -1.841636   -1.364674
     18          1           0        0.561651   -2.068838    0.385702
     19          1           0       -0.472948    0.719680   -1.898096
     20          1           0        0.561872    1.935305   -1.152896
     21          1           0        1.196096    1.375551    1.434003
     22          1           0        1.057721   -0.329621    1.951250
     23          1           0        2.586402    0.755794   -1.325163
     24          1           0        2.609551   -1.018987   -1.104674
 ---------------------------------------------------------------------

 SCF Done:  E(UB3LYP) =  -463.824989447     A.U. after   30 cycles

 The electronic state is 2-A.
 Alpha  occ. eigenvalues --  -19.01921 -19.01772 -10.11771 -10.11571 -10.11457
 Alpha  occ. eigenvalues --  -10.10777 -10.08636 -10.06314 -10.05838 -10.05614
 Alpha  occ. eigenvalues --   -0.94631  -0.93168  -0.70689  -0.68214  -0.59983
 Alpha  occ. eigenvalues --   -0.59447  -0.57575  -0.51341  -0.47160  -0.44013
 Alpha  occ. eigenvalues --   -0.40754  -0.39941  -0.37295  -0.35706  -0.34909
 Alpha  occ. eigenvalues --   -0.33981  -0.32411  -0.30490  -0.29853  -0.29762
 Alpha  occ. eigenvalues --   -0.27487  -0.24249  -0.23920  -0.21750  -0.21472
 Alpha  occ. eigenvalues --   -0.20942  -0.19253  -0.15925  -0.14989   0.04846
 Alpha virt. eigenvalues --    0.07232   0.07712   0.08297   0.09484   0.09776
 Alpha virt. eigenvalues --    0.10457   0.10770   0.10991   0.12317   0.13411
 Alpha virt. eigenvalues --    0.13610   0.13715   0.14613   0.15345   0.16319

  Beta  occ. eigenvalues --  -19.01919 -19.01765 -10.11750 -10.11555 -10.11432
  Beta  occ. eigenvalues --  -10.10752 -10.08638 -10.06291 -10.05810 -10.05590
  Beta  occ. eigenvalues --   -0.94622  -0.93153  -0.70659  -0.68174  -0.59942
  Beta  occ. eigenvalues --   -0.59397  -0.57526  -0.51281  -0.47085  -0.43948
  Beta  occ. eigenvalues --   -0.40728  -0.39890  -0.37265  -0.35674  -0.34887
  Beta  occ. eigenvalues --   -0.33927  -0.32370  -0.30455  -0.29818  -0.29719
  Beta  occ. eigenvalues --   -0.27455  -0.24201  -0.23887  -0.21717  -0.21425
  Beta  occ. eigenvalues --   -0.20902  -0.19227  -0.15899  -0.14958
  Beta virt. eigenvalues --    0.07263   0.08264   0.08711   0.08917   0.10170
  Beta virt. eigenvalues --    0.10571   0.10975   0.11339   0.11366   0.13062
  Beta virt. eigenvalues --    0.13918   0.14040   0.14197   0.15007   0.15742

 Mulliken charges and spin densities:
               1          2
     1  C   -0.211791   0.125377
     2  C    1.542596  -2.024369
     3  C   -0.128504  -0.038154
     4  O   -0.145487   0.058863
     5  C    0.834662  -1.587554
     6  C   -2.152100   2.666978
     7  C    0.281782  -0.594122
     8  C    0.986223  -1.293998
     9  O   -0.243565   0.059093
    10  C    1.601749  -1.969106
    11  H   -0.006974   0.124362
    12  H   -0.857810   1.046454
    13  H   -0.673188   0.821633
    14  H    0.267131  -0.117719
    15  H   -0.592008   0.803056
    16  H   -0.052199   0.145708
    17  H   -0.247990   0.414675
    18  H    0.008553   0.173011
    19  H   -0.251463   0.422684
    20  H   -0.278252   0.438207
    21  H   -0.117296   0.282457
    22  H   -0.198047   0.369869
    23  H   -0.279031   0.437198
    24  H   -0.086989   0.235394
 Sum of Mulliken charges =  -1.00000   1.00000

 Dipole moment (field-independent basis, Debye):
    X=              2.5317    Y=             -2.7487    Z=             -0.4134  Tot=              3.7598
 Quadrupole moment (field-independent basis, Debye-Ang):
   XX=           -118.8554   YY=           -107.2296   ZZ=            -97.7160
   XY=              1.9931   XZ=              4.4799   YZ=              1.8721

 Summary of Natural Population Analysis:

                                       Natural Population
                Natural  -----------------------------------------------
    Atom  No    Charge         Core      Valence    Rydberg      Total
 -----------------------------------------------------------------------
      C    1   -0.18967      0.99962     2.18045    0.00960     3.18967
      C    2   -0.19905      0.99962     2.19061    0.00882     3.19905
      C    3   -0.01220      0.99957     1.99936    0.01326     3.01220
      O    4   -0.30395      0.99989     3.29415    0.00991     4.30395
      C    5    0.00045      0.99951     1.98679    0.01325     2.99955
      C    6   -0.07955      0.99955     2.06737    0.01263     3.07955
      C    7   -0.19171      0.99959     2.18063    0.01150     3.19171
      C    8   -0.00016      0.99958     1.98776    0.01282     3.00016
      O    9   -0.30812      0.99991     3.29949    0.00872     4.30812
      C   10    0.00683      0.99958     1.98054    0.01305     2.99317
      H   11    0.09377      0.00000     0.40417    0.00206     0.40623
      H   12    0.10324      0.00000     0.39468    0.00209     0.39676
      H   13    0.10174      0.00000     0.39591    0.00235     0.39826
      H   14    0.09670      0.00000     0.40182    0.00148     0.40330
      H   15    0.09044      0.00000     0.40784    0.00172     0.40956
      H   16    0.07870      0.00000     0.41936    0.00194     0.42130
      H   17    0.09105      0.00000     0.40732    0.00163     0.40895
      H   18    0.08037      0.00000     0.41816    0.00147     0.41963
      H   19    0.10175      0.00000     0.39660    0.00165     0.39825
      H   20    0.10337      0.00000     0.39450    0.00213     0.39663
      H   21    0.08557      0.00000     0.41256    0.00188     0.41443
      H   22    0.08407      0.00000     0.41406    0.00187     0.41593
      H   23    0.08446      0.00000     0.41368    0.00186     0.41554
      H   24    0.08188      0.00000     0.41643    0.00169     0.41812
 =======================================================================
   * Total *   -0.00000      9.99641    28.86423    0.13937    39.00000

 Normal termination of Gaussian 16 at Tue Dec  8 13:32:52 2020.
