 Gaussian 16, Revision A.03,

 -----------------------------------------------------------
 # opt freq B3LYP/6-31G(d) empiricaldispersion=gd3bj scf=xqc
 -----------------------------------------------------------

 -------------------------------
 CID_102041040_JID_9094_neutraal
 -------------------------------
 Symbolic Z-matrix:
 Charge =  0 Multiplicity = 1

 SCF Done:  E(RB3LYP) =  -1109.86691671     A.U. after   16 cycles
 SCF Done:  E(RB3LYP) =  -1109.87482202     A.U. after   14 cycles
 SCF Done:  E(RB3LYP) =  -1109.87539063     A.U. after   13 cycles
 SCF Done:  E(RB3LYP) =  -1109.87683180     A.U. after   12 cycles
 SCF Done:  E(RB3LYP) =  -1109.87704629     A.U. after   11 cycles
 SCF Done:  E(RB3LYP) =  -1109.87702105     A.U. after   12 cycles
 SCF Done:  E(RB3LYP) =  -1109.87705092     A.U. after   11 cycles
 SCF Done:  E(RB3LYP) =  -1109.87711681     A.U. after   11 cycles
 SCF Done:  E(RB3LYP) =  -1109.87711988     A.U. after   10 cycles
 SCF Done:  E(RB3LYP) =  -1109.87712035     A.U. after    8 cycles
 SCF Done:  E(RB3LYP) =  -1109.87712062     A.U. after    8 cycles
 SCF Done:  E(RB3LYP) =  -1109.87712076     A.U. after    8 cycles
 SCF Done:  E(RB3LYP) =  -1109.87712079     A.U. after    7 cycles
 Optimization completed.
    -- Stationary point found.
 Normal termination of Gaussian 16 at Sun Dec 13 20:11:44 2020.

 --------------------------------------------------------------------
 #N Geom=AllCheck Guess=TCheck SCRF=Check GenChk RB3LYP/6-31G(d) Freq
 --------------------------------------------------------------------

 Structure from the checkpoint file:  "JID_9094.chk"
 -------------------------------
 CID_102041040_JID_9094_neutraal
 -------------------------------
 Charge =  0 Multiplicity = 1

 SCF Done:  E(RB3LYP) =  -1109.87712079     A.U. after    1 cycles

  Exact polarizability: 341.157  11.007 223.343  -2.012  10.732  93.525
 Approx polarizability: 515.830  25.251 373.699  -2.702  26.994 154.843

                      1                      2                      3
                      A                      A                      A
 Frequencies --     32.5699                35.8091                50.1492
 Red. masses --      1.0524                 6.2077                 3.7812
 Frc consts  --      0.0007                 0.0047                 0.0056
 IR Inten    --      0.1775                 2.1040                 0.3264

                      4                      5                      6
                      A                      A                      A
 Frequencies --     56.1957                73.7868                98.9761
 Red. masses --      3.6441                 4.3895                 4.2557
 Frc consts  --      0.0068                 0.0141                 0.0246
 IR Inten    --      0.7710                 0.3613                 0.1783

                      7                      8                      9
                      A                      A                      A
 Frequencies --    155.1461               191.4555               216.9325
 Red. masses --      4.2877                 6.0250                 1.8983
 Frc consts  --      0.0608                 0.1301                 0.0526
 IR Inten    --      0.7277                 0.8260                 2.0723

                     10                     11                     12
                      A                      A                      A
 Frequencies --    232.0821               241.0447               251.6809
 Red. masses --      2.7044                 7.2377                 2.0252
 Frc consts  --      0.0858                 0.2478                 0.0756
 IR Inten    --      0.4384                 0.6271                 0.0908

                     13                     14                     15
                      A                      A                      A
 Frequencies --    301.3845               350.3999               361.8527
 Red. masses --      4.2341                 3.4860                 4.6071
 Frc consts  --      0.2266                 0.2522                 0.3554
 IR Inten    --      0.3264                 0.9742                 2.6043

                     16                     17                     18
                      A                      A                      A
 Frequencies --    385.6565               416.5414               421.4163
 Red. masses --      3.5285                 4.2080                 3.2065
 Frc consts  --      0.3092                 0.4302                 0.3355
 IR Inten    --      3.5482                 0.0398                 0.4398

                     19                     20                     21
                      A                      A                      A
 Frequencies --    437.1060               504.0287               515.8900
 Red. masses --      3.2397                 3.2865                 5.5280
 Frc consts  --      0.3647                 0.4919                 0.8668
 IR Inten    --      4.2227                 2.8355                 0.6968

                     22                     23                     24
                      A                      A                      A
 Frequencies --    523.1566               573.8583               605.7675
 Red. masses --      3.3315                 5.7087                 4.5308
 Frc consts  --      0.5372                 1.1076                 0.9796
 IR Inten    --      2.9213                13.8760                 0.2725

                     25                     26                     27
                      A                      A                      A
 Frequencies --    608.9265               625.8038               637.2214
 Red. masses --      5.4703                 4.3662                 3.2772
 Frc consts  --      1.1951                 1.0075                 0.7840
 IR Inten    --      0.8332                14.4327                 1.1231

                     28                     29                     30
                      A                      A                      A
 Frequencies --    665.0431               713.8737               733.8091
 Red. masses --      5.3131                 5.6855                 3.2922
 Frc consts  --      1.3845                 1.7071                 1.0445
 IR Inten    --      0.4498                13.1758                 1.7152

                     31                     32                     33
                      A                      A                      A
 Frequencies --    767.1506               779.0718               787.5227
 Red. masses --      1.2507                 3.9956                 2.4763
 Frc consts  --      0.4337                 1.4289                 0.9049
 IR Inten    --     70.7872                 2.2713                 5.4044

                     34                     35                     36
                      A                      A                      A
 Frequencies --    796.6430               819.8362               846.5350
 Red. masses --      2.4448                 4.9929                 1.6262
 Frc consts  --      0.9142                 1.9772                 0.6866
 IR Inten    --      7.1235                 0.2108                19.0358

                     37                     38                     39
                      A                      A                      A
 Frequencies --    859.6908               866.2776               889.2322
 Red. masses --      1.2613                 3.0865                 1.4087
 Frc consts  --      0.5492                 1.3647                 0.6563
 IR Inten    --      1.5561                50.8086                 0.0388

                     40                     41                     42
                      A                      A                      A
 Frequencies --    952.1475               964.7461               968.2492
 Red. masses --      1.3516                 1.5478                 3.0955
 Frc consts  --      0.7219                 0.8488                 1.7098
 IR Inten    --      1.6992                 3.7342                 6.8344

                     43                     44                     45
                      A                      A                      A
 Frequencies --    975.4289               988.9589              1021.0523
 Red. masses --      1.3295                 1.2497                 1.4101
 Frc consts  --      0.7453                 0.7202                 0.8661
 IR Inten    --      0.4283                 0.3281                 0.1722

                     46                     47                     48
                      A                      A                      A
 Frequencies --   1043.1448              1045.3736              1057.6367
 Red. masses --      2.8556                 1.5020                 2.5668
 Frc consts  --      1.8308                 0.9671                 1.6917
 IR Inten    --     10.8564                 0.4298                12.2337

                     49                     50                     51
                      A                      A                      A
 Frequencies --   1061.8150              1075.5722              1125.4432
 Red. masses --      1.9112                 1.5245                 2.7387
 Frc consts  --      1.2696                 1.0391                 2.0438
 IR Inten    --      6.8744                16.6246                 0.1585

                     52                     53                     54
                      A                      A                      A
 Frequencies --   1153.0222              1162.2577              1182.4193
 Red. masses --      1.3259                 2.3987                 1.8208
 Frc consts  --      1.0386                 1.9091                 1.4999
 IR Inten    --      5.6145                27.7626                13.0931

                     55                     56                     57
                      A                      A                      A
 Frequencies --   1188.5173              1217.1310              1224.0377
 Red. masses --      1.4654                 2.0194                 1.2512
 Frc consts  --      1.2196                 1.7626                 1.1045
 IR Inten    --     11.5079                 1.8421                 8.8882

                     58                     59                     60
                      A                      A                      A
 Frequencies --   1247.4955              1273.6991              1288.4717
 Red. masses --      3.0987                 2.8452                 1.9861
 Frc consts  --      2.8413                 2.7196                 1.9427
 IR Inten    --      6.5428               125.8234               153.9549

                     61                     62                     63
                      A                      A                      A
 Frequencies --   1333.1408              1345.0217              1353.7947
 Red. masses --      2.6626                 2.2551                 1.8042
 Frc consts  --      2.7881                 2.4036                 1.9482
 IR Inten    --      1.6760                55.2041                 1.1393

                     64                     65                     66
                      A                      A                      A
 Frequencies --   1381.7871              1396.0317              1424.7612
 Red. masses --      4.3328                 3.9529                 1.2634
 Frc consts  --      4.8742                 4.5389                 1.5110
 IR Inten    --     45.3962               167.6251                 8.9653

                     67                     68                     69
                      A                      A                      A
 Frequencies --   1429.4453              1443.1037              1460.4106
 Red. masses --      5.3363                 1.2487                 2.7181
 Frc consts  --      6.4243                 1.5322                 3.4155
 IR Inten    --    389.0619                 0.2301                 2.9473

                     70                     71                     72
                      A                      A                      A
 Frequencies --   1495.0379              1514.5854              1517.7378
 Red. masses --      2.4582                 1.2120                 1.0504
 Frc consts  --      3.2372                 1.6380                 1.4256
 IR Inten    --    147.8046                 7.6908                 5.9806

                     73                     74                     75
                      A                      A                      A
 Frequencies --   1520.0456              1520.7532              1525.7215
 Red. masses --      1.0463                 1.1432                 2.0461
 Frc consts  --      1.4244                 1.5577                 2.8062
 IR Inten    --     11.0114                12.0432                10.6991

                     76                     77                     78
                      A                      A                      A
 Frequencies --   1564.0871              1619.1761              1631.4885
 Red. masses --      2.6141                 5.4179                 5.9473
 Frc consts  --      3.7679                 8.3690                 9.3269
 IR Inten    --      9.5503                 2.1259                13.1275

                     79                     80                     81
                      A                      A                      A
 Frequencies --   1653.6603              1664.4580              1677.5636
 Red. masses --      7.1669                 6.5634                 5.8731
 Frc consts  --     11.5472                10.7133                 9.7382
 IR Inten    --      5.2675                 0.7113                 0.9614

                     82                     83                     84
                      A                      A                      A
 Frequencies --   3042.0767              3046.3572              3099.5908
 Red. masses --      1.0407                 1.0416                 1.0954
 Frc consts  --      5.6744                 5.6950                 6.2003
 IR Inten    --     40.7907                 7.9157                21.4617

                     85                     86                     87
                      A                      A                      A
 Frequencies --   3103.9756              3126.9871              3178.0117
 Red. masses --      1.1009                 1.1028                 1.0874
 Frc consts  --      6.2492                 6.3533                 6.4706
 IR Inten    --      9.4251                15.5670                17.8918

                     88                     89                     90
                      A                      A                      A
 Frequencies --   3181.1793              3191.6695              3194.2995
 Red. masses --      1.0886                 1.0865                 1.0970
 Frc consts  --      6.4907                 6.5210                 6.5950
 IR Inten    --     23.8790                 4.6585                 2.7146

                     91                     92                     93
                      A                      A                      A
 Frequencies --   3198.4731              3206.5585              3211.4003
 Red. masses --      1.0937                 1.0918                 1.0935
 Frc consts  --      6.5925                 6.6144                 6.6447
 IR Inten    --     16.3302                26.6062                 3.3378

                     94                     95                     96
                      A                      A                      A
 Frequencies --   3221.7695              3287.3990              3325.3263
 Red. masses --      1.0938                 1.0922                 1.0953
 Frc consts  --      6.6894                 6.9541                 7.1361
 IR Inten    --     16.6838                 3.3437                 4.8073

 - Thermochemistry -
 -------------------
 Temperature   298.150 Kelvin.  Pressure   1.00000 Atm.
 Atom     1 has atomic number  6 and mass  12.00000

 Molecular mass:   265.09252 amu.
 Principal axes and moments of inertia in atomic units:
                           1         2         3
     Eigenvalues --  2730.507599490.50103**********
           X            1.00000  -0.00308   0.00062
           Y            0.00307   0.99998   0.00520
           Z           -0.00063  -0.00520   0.99999
 This molecule is an asymmetric top.
 Rotational symmetry number  1.
 Warning -- assumption of classical behavior for rotation
           may cause significant error
 Rotational temperatures (Kelvin)      0.03172     0.00913     0.00724
 Rotational constants (GHZ):           0.66095     0.19016     0.15090
 Zero-point vibrational energy     722143.9 (Joules/Mol)
                                  172.59653 (Kcal/Mol)
 Warning -- explicit consideration of  25 degrees of freedom as
           vibrations may cause significant error
 Vibrational temperatures:     46.86    51.52    72.15    80.85   106.16
          (Kelvin)            142.40   223.22   275.46   312.12   333.91
                              346.81   362.11   433.63   504.15   520.63
                              554.87   599.31   606.32   628.90   725.18
                              742.25   752.71   825.65   871.56   876.11
                              900.39   916.82   956.85  1027.10  1055.79
                             1103.76  1120.91  1133.07  1146.19  1179.56
                             1217.98  1236.90  1246.38  1279.41  1369.93
                             1388.05  1393.09  1403.42  1422.89  1469.07
                             1500.85  1504.06  1521.70  1527.71  1547.51
                             1619.26  1658.94  1672.23  1701.24  1710.01
                             1751.18  1761.12  1794.87  1832.57  1853.82
                             1918.09  1935.19  1947.81  1988.08  2008.58
                             2049.91  2056.65  2076.30  2101.21  2151.03
                             2179.15  2183.69  2187.01  2188.02  2195.17
                             2250.37  2329.63  2347.35  2379.25  2394.78
                             2413.64  4376.87  4383.03  4459.62  4465.93
                             4499.04  4572.45  4577.01  4592.10  4595.88
                             4601.89  4613.52  4620.49  4635.41  4729.83
                             4784.40

 Zero-point correction=                           0.275050 (Hartree/Particle)
 Thermal correction to Energy=                    0.291419
 Thermal correction to Enthalpy=                  0.292363
 Thermal correction to Gibbs Free Energy=         0.229342
 Sum of electronic and zero-point Energies=          -1109.602071
 Sum of electronic and thermal Energies=             -1109.585702
 Sum of electronic and thermal Enthalpies=           -1109.584758
 Sum of electronic and thermal Free Energies=        -1109.647779

                     E (Thermal)             CV                S
                      KCal/Mol        Cal/Mol-Kelvin    Cal/Mol-Kelvin
 Total                  182.868             63.664            132.640
 Electronic               0.000              0.000              0.000
 Translational            0.889              2.981             42.624
 Rotational               0.889              2.981             34.093
 Vibrational            181.091             57.702             55.923
 Vibration     1          0.594              1.983              5.666
 Vibration     2          0.594              1.982              5.478
 Vibration     3          0.595              1.978              4.811
 Vibration     4          0.596              1.975              4.587
 Vibration     5          0.599              1.966              4.050
 Vibration     6          0.604              1.950              3.474
 Vibration     7          0.620              1.897              2.608
 Vibration     8          0.634              1.852              2.214
 Vibration     9          0.646              1.815              1.985
 Vibration    10          0.653              1.792              1.863
 Vibration    11          0.658              1.778              1.795
 Vibration    12          0.664              1.760              1.719
 Vibration    13          0.693              1.671              1.409
 Vibration    14          0.727              1.574              1.164
 Vibration    15          0.736              1.551              1.114
 Vibration    16          0.754              1.501              1.017
 Vibration    17          0.780              1.434              0.904
 Vibration    18          0.784              1.424              0.887
 Vibration    19          0.797              1.389              0.836
 Vibration    20          0.859              1.241              0.648
 Vibration    21          0.871              1.215              0.620
 Vibration    22          0.878              1.199              0.603
 Vibration    23          0.930              1.088              0.497
 Vibration    24          0.964              1.020              0.440
 Vibration    25          0.968              1.013              0.435

                           ! Non-Optimized Parameters !
 Normal termination of Gaussian 16 at Sun Dec 13 20:27:37 2020.

 ----------------------------------------------------------------------
 # B3LYP/6-311++G(d,p) empiricaldispersion=gd3bj scf=xqc pop=npa geom=c
 heck
 ----------------------------------------------------------------------

 ---------------------------------------
 CID_102041040_JID_9094_Energie_neutraal
 ---------------------------------------
 Structure from the checkpoint file:  "JID_9094.chk"
 Charge =  0 Multiplicity = 1

 SCF Done:  E(RB3LYP) =  -1110.07732171     A.U. after   16 cycles
 Normal termination of Gaussian 16 at Sun Dec 13 20:35:12 2020.

 ----------------------------------------------------------------------
 # B3LYP/6-311++G(d,p) empiricaldispersion=gd3bj scf=xqc pop=npa geom=c
 heck
 ----------------------------------------------------------------------

 -------------------------------------
 CID_102041040_JID_9094_Energie_kation
 -------------------------------------
 Structure from the checkpoint file:  "JID_9094.chk"
 Charge =  1 Multiplicity = 2

 SCF Done:  E(UB3LYP) =  -1109.80608402     A.U. after   33 cycles
 SCF Done:  E(UB3LYP) =  -1109.80608413     a.u. after    4 cycles
 Normal termination of Gaussian 16 at Sun Dec 13 21:51:40 2020.
 Gaussian 16:  ES64L-G16RevA.03 25-Dec-2016

 ----------------------------------------------------------------------
 # B3LYP/6-311++G(d,p) empiricaldispersion=gd3bj scf=xqc pop=npa geom=c
 heck
 ----------------------------------------------------------------------

 ------------------------------------
 CID_102041040_JID_9094_Energie_anion
 ------------------------------------
 Structure from the checkpoint file:  "JID_9094.chk"
 Charge = -1 Multiplicity = 2

                         Standard orientation:
 ---------------------------------------------------------------------
 Center     Atomic      Atomic             Coordinates (Angstroms)
 Number     Number       Type             X           Y           Z
 ---------------------------------------------------------------------
      1          6           0        6.165177   -0.476373    0.038393
      2          6           0        4.659234   -0.387894    0.044150
      3          6           0        3.879564   -1.311258   -0.664174
      4          6           0        2.492449   -1.210323   -0.692454
      5          6           0        1.830058   -0.183726   -0.000590
      6          6           0        2.609454    0.738373    0.715829
      7          6           0        3.997581    0.634166    0.735034
      8          6           0        0.365284   -0.098480   -0.005842
      9          6           0       -0.494466   -1.150964    0.049625
     10          7           0       -1.838792   -0.713607    0.037415
     11          6           0       -1.812564    0.708522   -0.037077
     12          6           0       -2.839642    1.650676   -0.101219
     13          6           0       -2.480026    2.995845   -0.202510
     14          6           0       -1.139445    3.397819   -0.251976
     15          6           0       -0.117056    2.454880   -0.189976
     16          6           0       -0.452142    1.103988   -0.067851
     17          6           0       -2.916595   -1.571237    0.100588
     18         16           0       -4.506604   -1.107434    0.138448
     19          6           0       -2.561486   -3.043224    0.138426
     20          1           0        6.505000   -1.515184   -0.029424
     21          1           0        6.590626    0.061423   -0.819273
     22          1           0        6.594973   -0.036202    0.944021
     23          1           0        4.368425   -2.114805   -1.209947
     24          1           0        1.909615   -1.921111   -1.271672
     25          1           0        2.120647    1.520395    1.287889
     26          1           0        4.578544    1.355163    1.305122
     27          1           0       -0.260457   -2.197209    0.138214
     28          1           0       -3.875302    1.350674   -0.075321
     29          1           0       -3.266520    3.743090   -0.250809
     30          1           0       -0.895472    4.452026   -0.345093
     31          1           0        0.922927    2.757393   -0.249306
     32          1           0       -1.972835   -3.334052   -0.740071
     33          1           0       -1.974785   -3.286502    1.032859
     34          1           0       -3.480456   -3.625647    0.155498
 ---------------------------------------------------------------------

 SCF Done:  E(UB3LYP) =  -1110.10666068     A.U. after   23 cycles

 The electronic state is 2-A.
 Alpha  occ. eigenvalues --  -88.64240 -14.24916 -10.08800 -10.08712 -10.08332
 Alpha  occ. eigenvalues --  -10.08164 -10.07650 -10.07550 -10.07507 -10.06938
 Alpha  occ. eigenvalues --  -10.06928 -10.06908 -10.05523 -10.05457 -10.05360
 Alpha  occ. eigenvalues --  -10.04982 -10.04874 -10.04696 -10.04568  -7.73057
 Alpha  occ. eigenvalues --   -5.69376  -5.69072  -5.68575  -0.86338  -0.76267
 Alpha  occ. eigenvalues --   -0.73504  -0.70128  -0.67565  -0.64790  -0.64220
 Alpha  occ. eigenvalues --   -0.61357  -0.61029  -0.58777  -0.55375  -0.51262
 Alpha  occ. eigenvalues --   -0.50893  -0.49678  -0.48151  -0.45273  -0.43325
 Alpha  occ. eigenvalues --   -0.39719  -0.37642  -0.36668  -0.36389  -0.35284
 Alpha  occ. eigenvalues --   -0.33992  -0.33648  -0.32773  -0.32464  -0.31896
 Alpha  occ. eigenvalues --   -0.30801  -0.30300  -0.30202  -0.28754  -0.27688
 Alpha  occ. eigenvalues --   -0.27540  -0.26085  -0.25548  -0.24660  -0.23861
 Alpha  occ. eigenvalues --   -0.22917  -0.22159  -0.20877  -0.18749  -0.15836
 Alpha  occ. eigenvalues --   -0.14355  -0.13749  -0.11259  -0.08469  -0.06580
 Alpha  occ. eigenvalues --    0.02157
 Alpha virt. eigenvalues --    0.06040   0.07697   0.07934   0.08055   0.08147
 Alpha virt. eigenvalues --    0.08902   0.09457   0.09669   0.10084   0.10707
 Alpha virt. eigenvalues --    0.11316   0.11850   0.12173   0.12552   0.12920

  Beta  occ. eigenvalues --  -88.64137 -14.25077 -10.08807 -10.08252 -10.08071
  Beta  occ. eigenvalues --  -10.08025 -10.07624 -10.07573 -10.07522 -10.06882
  Beta  occ. eigenvalues --  -10.06873 -10.06686 -10.05508 -10.05453 -10.05325
  Beta  occ. eigenvalues --  -10.04939 -10.04873 -10.04743 -10.04481  -7.72965
  Beta  occ. eigenvalues --   -5.69342  -5.68728  -5.68517  -0.86205  -0.76165
  Beta  occ. eigenvalues --   -0.73309  -0.69874  -0.67209  -0.64726  -0.64002
  Beta  occ. eigenvalues --   -0.61262  -0.60780  -0.58675  -0.55056  -0.51187
  Beta  occ. eigenvalues --   -0.50787  -0.49452  -0.47884  -0.45139  -0.43172
  Beta  occ. eigenvalues --   -0.39569  -0.37583  -0.36525  -0.36305  -0.35195
  Beta  occ. eigenvalues --   -0.33863  -0.33354  -0.32435  -0.32109  -0.31758
  Beta  occ. eigenvalues --   -0.30668  -0.30206  -0.30094  -0.28483  -0.27531
  Beta  occ. eigenvalues --   -0.27451  -0.25931  -0.25463  -0.24615  -0.23801
  Beta  occ. eigenvalues --   -0.22614  -0.22021  -0.20351  -0.17958  -0.15676
  Beta  occ. eigenvalues --   -0.13849  -0.12690  -0.10174  -0.07582  -0.06349
  Beta virt. eigenvalues --    0.06008   0.07205   0.07881   0.08061   0.08166
  Beta virt. eigenvalues --    0.08795   0.08947   0.09443   0.10241   0.10370
  Beta virt. eigenvalues --    0.10693   0.11342   0.11847   0.12187   0.12549

 Mulliken charges and spin densities:
               1          2
     1  C   -0.570157  -0.008669
     2  C    0.537120   0.051691
     3  C   -0.528794  -0.012455
     4  C   -0.409910   0.040097
     5  C    0.726839   0.006126
     6  C   -0.393166   0.038784
     7  C   -0.532723  -0.006137
     8  C    0.511454   0.045816
     9  C   -0.422039   0.201811
    10  N    0.483283  -0.066495
    11  C    0.093489   0.042362
    12  C   -0.290926  -0.027467
    13  C   -0.382508   0.063115
    14  C   -0.474401  -0.009769
    15  C   -0.875608   0.023449
    16  C    0.579388   0.018569
    17  C    0.408417   0.312185
    18  S   -0.820481   0.256959
    19  C   -0.527205  -0.040362
    20  H    0.128401   0.001931
    21  H    0.141499   0.008023
    22  H    0.128088   0.002393
    23  H    0.133088   0.001375
    24  H    0.142907   0.000351
    25  H    0.158277  -0.000183
    26  H    0.129508   0.001389
    27  H    0.144680  -0.011328
    28  H    0.089862  -0.013255
    29  H    0.139103  -0.004699
    30  H    0.118786  -0.000104
    31  H    0.094863  -0.000219
    32  H    0.112979   0.039456
    33  H    0.112745   0.048347
    34  H    0.113143  -0.003088
 Sum of Mulliken charges =  -1.00000   1.00000

 Dipole moment (field-independent basis, Debye):
    X=              9.7142    Y=              1.0744    Z=             -0.2458  Tot=              9.7765
 Quadrupole moment (field-independent basis, Debye-Ang):
   XX=           -193.9534   YY=           -135.1714   ZZ=           -132.1960
   XY=            -10.2693   XZ=              1.6468   YZ=              3.0490

 Summary of Natural Population Analysis:

                                       Natural Population
                Natural  -----------------------------------------------
    Atom  No    Charge         Core      Valence    Rydberg      Total
 -----------------------------------------------------------------------
      C    1   -0.29111      0.99965     2.28690    0.00456     3.29111
      C    2   -0.01618      0.99952     2.00864    0.00802     3.01618
      C    3   -0.11185      0.99954     2.10360    0.00870     3.11185
      C    4   -0.07764      0.99945     2.06997    0.00822     3.07764
      C    5   -0.01814      0.99952     2.00943    0.00920     3.01814
      C    6   -0.08730      0.99954     2.07988    0.00788     3.08730
      C    7   -0.10758      0.99952     2.09972    0.00833     3.10758
      C    8   -0.04704      0.99938     2.03526    0.01240     3.04704
      C    9    0.06333      0.99945     1.92566    0.01156     2.93667
      N   10   -0.23546      0.99959     2.72431    0.01156     3.73546
      C   11    0.09765      0.99946     1.89011    0.01278     2.90235
      C   12   -0.11366      0.99944     2.10573    0.00849     3.11366
      C   13   -0.09972      0.99960     2.09051    0.00961     3.09972
      C   14   -0.12099      0.99959     2.11174    0.00965     3.12099
      C   15   -0.09608      0.99945     2.08849    0.00814     3.09608
      C   16   -0.02264      0.99940     2.01527    0.00797     3.02264
      C   17    0.16750      0.99966     1.81815    0.01469     2.83250
      S   18   -0.06694      4.99951     3.05260    0.01483     8.06694
      C   19   -0.31974      0.99963     2.31493    0.00519     3.31974
      H   20    0.09844      0.00000     0.40065    0.00091     0.40156
      H   21    0.09998      0.00000     0.39900    0.00102     0.40002
      H   22    0.09840      0.00000     0.40068    0.00091     0.40160
      H   23    0.09331      0.00000     0.40564    0.00105     0.40669
      H   24    0.09946      0.00000     0.39888    0.00166     0.40054
      H   25    0.10186      0.00000     0.39671    0.00142     0.39814
      H   26    0.09317      0.00000     0.40580    0.00103     0.40683
      H   27    0.09847      0.00000     0.40052    0.00101     0.40153
      H   28    0.12278      0.00000     0.37574    0.00148     0.37722
      H   29    0.09232      0.00000     0.40668    0.00100     0.40768
      H   30    0.09198      0.00000     0.40693    0.00109     0.40802
      H   31    0.09764      0.00000     0.40053    0.00183     0.40236
      H   32    0.10195      0.00000     0.39681    0.00124     0.39805
      H   33    0.10301      0.00000     0.39578    0.00121     0.39699
      H   34    0.11084      0.00000     0.38791    0.00125     0.38916
 =======================================================================
   * Total *    0.00004     22.99088    46.80918    0.19989    69.99996

 Normal termination of Gaussian 16 at Sun Dec 13 22:06:05 2020.
