 Gaussian 16, Revision A.03,

 -----------------------------------------------------------
 # opt freq B3LYP/6-31G(d) empiricaldispersion=gd3bj scf=xqc
 -----------------------------------------------------------

 ------------------------------
 CID_79795971_JID_6581_neutraal
 ------------------------------
 Symbolic Z-matrix:
 Charge =  0 Multiplicity = 1

 SCF Done:  E(RB3LYP) =  -699.599884535     A.U. after   15 cycles
 SCF Done:  E(RB3LYP) =  -699.604093988     A.U. after   12 cycles
 SCF Done:  E(RB3LYP) =  -699.604457069     A.U. after   11 cycles
 SCF Done:  E(RB3LYP) =  -699.604502616     A.U. after    9 cycles
 SCF Done:  E(RB3LYP) =  -699.604508071     A.U. after    8 cycles
 SCF Done:  E(RB3LYP) =  -699.604510034     A.U. after    8 cycles
 SCF Done:  E(RB3LYP) =  -699.604511753     A.U. after    8 cycles
 SCF Done:  E(RB3LYP) =  -699.604515459     A.U. after    9 cycles
 SCF Done:  E(RB3LYP) =  -699.604521257     A.U. after    9 cycles
 SCF Done:  E(RB3LYP) =  -699.604526440     A.U. after   10 cycles
 SCF Done:  E(RB3LYP) =  -699.604581422     A.U. after    7 cycles
 SCF Done:  E(RB3LYP) =  -699.604581679     A.U. after    7 cycles
 SCF Done:  E(RB3LYP) =  -699.604581848     A.U. after    7 cycles
 SCF Done:  E(RB3LYP) =  -699.604581953     A.U. after    7 cycles
 SCF Done:  E(RB3LYP) =  -699.604582021     A.U. after    7 cycles
 Optimization completed.
    -- Stationary point found.
 Normal termination of Gaussian 16 at Thu Dec 10 23:43:23 2020.

 --------------------------------------------------------------------
 #N Geom=AllCheck Guess=TCheck SCRF=Check GenChk RB3LYP/6-31G(d) Freq
 --------------------------------------------------------------------

 Structure from the checkpoint file:  "JID_6581.chk"
 ------------------------------
 CID_79795971_JID_6581_neutraal
 ------------------------------
 Charge =  0 Multiplicity = 1

 SCF Done:  E(RB3LYP) =  -699.604582021     A.U. after    1 cycles

  Exact polarizability: 277.865  -0.121 134.844  -0.009   0.002  62.102
 Approx polarizability: 375.996  -9.681 254.683  -0.002   0.006  96.234

                      1                      2                      3
                      A                      A                      A
 Frequencies --     10.6049                28.7245                35.5627
 Red. masses --      1.1216                 1.2205                 2.3952
 Frc consts  --      0.0001                 0.0006                 0.0018
 IR Inten    --      0.3598                 2.2892                 8.0087

                      4                      5                      6
                      A                      A                      A
 Frequencies --     59.6750                78.7747               139.4520
 Red. masses --      5.2576                 4.6111                 3.8533
 Frc consts  --      0.0110                 0.0169                 0.0442
 IR Inten    --      2.2727                 3.4123                 0.0001

                      7                      8                      9
                      A                      A                      A
 Frequencies --    199.6223               244.1758               258.4641
 Red. masses --      3.3300                 3.7739                 4.6409
 Frc consts  --      0.0782                 0.1326                 0.1827
 IR Inten    --      0.0175                 0.6536                 7.7580

                     10                     11                     12
                      A                      A                      A
 Frequencies --    295.4807               303.8706               341.8727
 Red. masses --      5.3307                 5.7112                 3.2353
 Frc consts  --      0.2742                 0.3107                 0.2228
 IR Inten    --      2.2610                 1.7465                 1.0728

                     13                     14                     15
                      A                      A                      A
 Frequencies --    398.5454               410.2207               427.2955
 Red. masses --      1.9637                 2.2651                 3.4675
 Frc consts  --      0.1838                 0.2246                 0.3730
 IR Inten    --     70.5564                25.5379                 6.7104

                     16                     17                     18
                      A                      A                      A
 Frequencies --    447.4545               524.0943               562.6263
 Red. masses --      3.6976                 5.8814                 4.8161
 Frc consts  --      0.4362                 0.9518                 0.8982
 IR Inten    --      1.0955                 0.1470                 3.0629

                     19                     20                     21
                      A                      A                      A
 Frequencies --    617.6626               633.1374               656.2710
 Red. masses --      3.4777                 3.9188                 7.0123
 Frc consts  --      0.7817                 0.9256                 1.7794
 IR Inten    --      0.5367                 5.7549                 0.4184

                     22                     23                     24
                      A                      A                      A
 Frequencies --    665.6435               718.1175               734.8893
 Red. masses --      4.4371                 4.7244                 4.9456
 Frc consts  --      1.1583                 1.4354                 1.5737
 IR Inten    --      9.9011                14.4266                 6.2162

                     25                     26                     27
                      A                      A                      A
 Frequencies --    761.5683               792.2711               821.7298
 Red. masses --      7.0777                 9.7238                 1.3329
 Frc consts  --      2.4186                 3.5961                 0.5303
 IR Inten    --      2.9044                 3.8605                 2.4350

                     28                     29                     30
                      A                      A                      A
 Frequencies --    852.5563               852.9553               882.3322
 Red. masses --      1.4914                 5.5670                 1.3417
 Frc consts  --      0.6387                 2.3863                 0.6154
 IR Inten    --     22.7508                 0.3757                15.8084

                     31                     32                     33
                      A                      A                      A
 Frequencies --    931.5297               945.0080              1000.2726
 Red. masses --      1.3533                 8.5193                 3.6054
 Frc consts  --      0.6919                 4.4826                 2.1254
 IR Inten    --      0.4333                 5.4563                 4.9701

                     34                     35                     36
                      A                      A                      A
 Frequencies --   1006.5347              1032.0154              1034.7141
 Red. masses --      3.6986                 1.5090                 4.9647
 Frc consts  --      2.2077                 0.9469                 3.1317
 IR Inten    --     31.7605                 2.6582                36.1326

                     37                     38                     39
                      A                      A                      A
 Frequencies --   1075.6471              1084.0418              1120.4769
 Red. masses --      1.4844                 1.5398                 1.8653
 Frc consts  --      1.0119                 1.0661                 1.3797
 IR Inten    --      3.8566                35.1303                12.0662

                     40                     41                     42
                      A                      A                      A
 Frequencies --   1162.5234              1186.5532              1226.5617
 Red. masses --      1.3089                 1.8526                 1.9065
 Frc consts  --      1.0423                 1.5368                 1.6899
 IR Inten    --      0.0222                 2.9484                 1.0167

                     43                     44                     45
                      A                      A                      A
 Frequencies --   1243.6102              1251.9969              1318.1317
 Red. masses --      2.8668                 1.8993                 5.1163
 Frc consts  --      2.6123                 1.7541                 5.2375
 IR Inten    --      3.2870                 0.0336                47.2164

                     46                     47                     48
                      A                      A                      A
 Frequencies --   1329.9431              1358.0848              1366.4359
 Red. masses --      4.2905                 2.4477                 2.8448
 Frc consts  --      4.4712                 2.6598                 3.1296
 IR Inten    --     32.7657                87.6403                28.0638

                     49                     50                     51
                      A                      A                      A
 Frequencies --   1382.6710              1406.7694              1426.2020
 Red. masses --      7.7771                 2.6558                 4.7154
 Frc consts  --      8.7600                 3.0966                 5.6510
 IR Inten    --     85.2576                36.4847                59.5049

                     52                     53                     54
                      A                      A                      A
 Frequencies --   1445.5653              1449.4062              1474.9652
 Red. masses --      1.2462                 4.2841                 1.5488
 Frc consts  --      1.5343                 5.3026                 1.9852
 IR Inten    --      1.9155                60.7768                50.5886

                     55                     56                     57
                      A                      A                      A
 Frequencies --   1502.7254              1503.8191              1516.0958
 Red. masses --      2.0884                 1.0426                 1.0442
 Frc consts  --      2.7786                 1.3892                 1.4141
 IR Inten    --      6.8662                 7.5954                 5.7798

                     58                     59                     60
                      A                      A                      A
 Frequencies --   1522.8546              1541.0083              1552.0560
 Red. masses --      1.1591                 2.8409                 1.4182
 Frc consts  --      1.5838                 3.9748                 2.0129
 IR Inten    --     11.1427                20.3522                10.2918

                     61                     62                     63
                      A                      A                      A
 Frequencies --   1573.3212              1607.8571              1661.0042
 Red. masses --      4.2339                 6.0357                 7.3340
 Frc consts  --      6.1749                 9.1933                11.9216
 IR Inten    --     12.1811                64.3390               150.2442

                     64                     65                     66
                      A                      A                      A
 Frequencies --   1687.0143              3042.2092              3078.1168
 Red. masses --      7.0062                 1.0377                 1.0321
 Frc consts  --     11.7481                 5.6584                 5.7614
 IR Inten    --     19.6835                52.4704                49.7382

                     67                     68                     69
                      A                      A                      A
 Frequencies --   3092.7467              3126.2058              3148.3520
 Red. masses --      1.1013                 1.1001                 1.1064
 Frc consts  --      6.2063                 6.3345                 6.4616
 IR Inten    --     22.3776                13.1375                11.8922

                     70                     71                     72
                      A                      A                      A
 Frequencies --   3160.1302              3174.0748              3183.3723
 Red. masses --      1.0897                 1.1052                 1.0915
 Frc consts  --      6.4119                 6.5602                 6.5172
 IR Inten    --     46.8627                 7.3470                15.3338

                     73                     74                     75
                      A                      A                      A
 Frequencies --   3245.9384              3298.3734              3655.9440
 Red. masses --      1.0956                 1.0986                 1.0800
 Frc consts  --      6.8008                 7.0417                 8.5049
 IR Inten    --      6.3513                 1.5790                31.8258

 - Thermochemistry -
 -------------------
 Temperature   298.150 Kelvin.  Pressure   1.00000 Atm.
 Atom     1 has atomic number  6 and mass  12.00000

 Molecular mass:   213.10145 amu.
 Principal axes and moments of inertia in atomic units:
                           1         2         3
     Eigenvalues --   780.005698046.317088803.68296
           X            0.99992   0.01284  -0.00000
           Y           -0.01284   0.99992   0.00001
           Z            0.00000  -0.00001   1.00000
 This molecule is an asymmetric top.
 Rotational symmetry number  1.
 Warning -- assumption of classical behavior for rotation
           may cause significant error
 Rotational temperatures (Kelvin)      0.11104     0.01076     0.00984
 Rotational constants (GHZ):           2.31375     0.22429     0.20500
 Zero-point vibrational energy     561578.1 (Joules/Mol)
                                  134.22039 (Kcal/Mol)
 Warning -- explicit consideration of  19 degrees of freedom as
           vibrations may cause significant error
 Vibrational temperatures:     15.26    41.33    51.17    85.86   113.34
          (Kelvin)            200.64   287.21   351.31   371.87   425.13
                              437.20   491.88   573.42   590.22   614.78
                              643.79   754.05   809.49   888.68   910.94
                              944.23   957.71  1033.21  1057.34  1095.73
                             1139.90  1182.29  1226.64  1227.21  1269.48
                             1340.26  1359.66  1439.17  1448.18  1484.84
                             1488.72  1547.62  1559.69  1612.12  1672.61
                             1707.19  1764.75  1789.28  1801.34  1896.50
                             1913.49  1953.98  1966.00  1989.36  2024.03
                             2051.99  2079.85  2085.37  2122.15  2162.09
                             2163.66  2181.32  2191.05  2217.17  2233.06
                             2263.66  2313.35  2389.81  2427.24  4377.06
                             4428.72  4449.77  4497.91  4529.78  4546.72
                             4566.79  4580.16  4670.18  4745.62  5260.09

 Zero-point correction=                           0.213894 (Hartree/Particle)
 Thermal correction to Energy=                    0.227626
 Thermal correction to Enthalpy=                  0.228570
 Thermal correction to Gibbs Free Energy=         0.169830
 Sum of electronic and zero-point Energies=           -699.390688
 Sum of electronic and thermal Energies=              -699.376956
 Sum of electronic and thermal Enthalpies=            -699.376012
 Sum of electronic and thermal Free Energies=         -699.434752

                     E (Thermal)             CV                S
                      KCal/Mol        Cal/Mol-Kelvin    Cal/Mol-Kelvin
 Total                  142.838             50.925            123.630
 Electronic               0.000              0.000              0.000
 Translational            0.889              2.981             41.973
 Rotational               0.889              2.981             32.380
 Vibrational            141.060             44.963             49.277
 Vibration     1          0.593              1.987              7.894
 Vibration     2          0.593              1.984              5.916
 Vibration     3          0.594              1.982              5.492
 Vibration     4          0.597              1.974              4.468
 Vibration     5          0.600              1.963              3.921
 Vibration     6          0.615              1.914              2.811
 Vibration     7          0.638              1.840              2.137
 Vibration     8          0.660              1.772              1.772
 Vibration     9          0.667              1.748              1.672
 Vibration    10          0.690              1.682              1.442
 Vibration    11          0.695              1.666              1.395
 Vibration    12          0.721              1.592              1.203
 Vibration    13          0.765              1.473              0.968
 Vibration    14          0.774              1.448              0.926
 Vibration    15          0.789              1.411              0.868
 Vibration    16          0.807              1.367              0.804
 Vibration    17          0.879              1.197              0.601
 Vibration    18          0.918              1.112              0.519
 Vibration    19          0.977              0.995              0.420

                           ! Non-Optimized Parameters !
 Normal termination of Gaussian 16 at Thu Dec 10 23:50:03 2020.

 ----------------------------------------------------------------------
 # B3LYP/6-311++G(d,p) empiricaldispersion=gd3bj scf=xqc pop=npa geom=c
 heck
 ----------------------------------------------------------------------

 --------------------------------------
 CID_79795971_JID_6581_Energie_neutraal
 --------------------------------------
 Structure from the checkpoint file:  "JID_6581.chk"
 Charge =  0 Multiplicity = 1

 SCF Done:  E(RB3LYP) =  -699.784474736     A.U. after   15 cycles
 Normal termination of Gaussian 16 at Thu Dec 10 23:52:40 2020.

 ----------------------------------------------------------------------
 # B3LYP/6-311++G(d,p) empiricaldispersion=gd3bj scf=xqc pop=npa geom=c
 heck
 ----------------------------------------------------------------------

 ------------------------------------
 CID_79795971_JID_6581_Energie_kation
 ------------------------------------
 Structure from the checkpoint file:  "JID_6581.chk"
 Charge =  1 Multiplicity = 2

 SCF Done:  E(UB3LYP) =  -699.506490764     A.U. after   22 cycles
 Normal termination of Gaussian 16 at Thu Dec 10 23:57:42 2020.
 Gaussian 16:  ES64L-G16RevA.03 25-Dec-2016

 ----------------------------------------------------------------------
 # B3LYP/6-311++G(d,p) empiricaldispersion=gd3bj scf=xqc pop=npa geom=c
 heck
 ----------------------------------------------------------------------

 -----------------------------------
 CID_79795971_JID_6581_Energie_anion
 -----------------------------------
 Structure from the checkpoint file:  "JID_6581.chk"
 Charge = -1 Multiplicity = 2

                         Standard orientation:
 ---------------------------------------------------------------------
 Center     Atomic      Atomic             Coordinates (Angstroms)
 Number     Number       Type             X           Y           Z
 ---------------------------------------------------------------------
      1          6           0       -5.421471   -0.627824    0.000148
      2          6           0       -3.984542   -0.169632    0.000245
      3          6           0       -2.932311   -1.092928    0.000457
      4          6           0       -1.650719   -0.563430    0.000136
      5          6           0       -1.444831    0.845177   -0.000333
      6          7           0       -2.443411    1.730445   -0.000503
      7          6           0       -3.672239    1.206506   -0.000218
      8          7           0       -0.091541    1.133277   -0.000481
      9          6           0        0.513395   -0.038050   -0.000134
     10          7           0       -0.379543   -1.101443    0.000252
     11          6           0        1.945535   -0.232301   -0.000127
     12          6           0        2.897846    0.780474    0.000998
     13          7           0        4.108265    0.178325    0.000929
     14          7           0        4.019920   -1.174434   -0.000385
     15          6           0        2.713374   -1.425576   -0.000953
     16          6           0        5.416526    0.803860   -0.000160
     17          1           0       -5.651118   -1.234197   -0.884794
     18          1           0       -6.106372    0.225589    0.004141
     19          1           0       -5.649096   -1.241018    0.880857
     20          1           0       -3.122394   -2.163626    0.000872
     21          1           0       -4.491479    1.924627   -0.000286
     22          1           0       -0.137993   -2.080806    0.000914
     23          1           0        2.772013    1.852448    0.001894
     24          1           0        2.373702   -2.453626   -0.001828
     25          1           0        5.976942    0.494000    0.885644
     26          1           0        5.969634    0.508390   -0.895540
     27          1           0        5.286963    1.887351    0.009079
 ---------------------------------------------------------------------

 SCF Done:  E(UB3LYP) =  -699.781943287     A.U. after   33 cycles
 SCF Done:  E(UB3LYP) =  -699.781943287     a.u. after    1 cycles

 The electronic state is 2-A.
 Alpha  occ. eigenvalues --  -14.27079 -14.21978 -14.21338 -14.13609 -14.13380
 Alpha  occ. eigenvalues --  -10.11947 -10.07972 -10.07443 -10.07059 -10.06546
 Alpha  occ. eigenvalues --  -10.06218 -10.04892 -10.04602 -10.04333 -10.03058
 Alpha  occ. eigenvalues --  -10.02567  -0.93444  -0.87090  -0.77883  -0.73400
 Alpha  occ. eigenvalues --   -0.72798  -0.67315  -0.66244  -0.62306  -0.59686
 Alpha  occ. eigenvalues --   -0.55568  -0.51379  -0.49019  -0.46800  -0.45491
 Alpha  occ. eigenvalues --   -0.44354  -0.41821  -0.38400  -0.37577  -0.35952
 Alpha  occ. eigenvalues --   -0.35025  -0.33381  -0.31538  -0.31179  -0.30363
 Alpha  occ. eigenvalues --   -0.29799  -0.28652  -0.28150  -0.27422  -0.26067
 Alpha  occ. eigenvalues --   -0.25899  -0.23265  -0.22033  -0.18416  -0.17727
 Alpha  occ. eigenvalues --   -0.14709  -0.13839  -0.13783  -0.10559  -0.09930
 Alpha  occ. eigenvalues --   -0.07397   0.05532
 Alpha virt. eigenvalues --    0.06714   0.08055   0.08810   0.09580   0.10282
 Alpha virt. eigenvalues --    0.10652   0.11295   0.11578   0.12256   0.12458
 Alpha virt. eigenvalues --    0.12928   0.13603   0.14423   0.15401   0.15514

  Beta  occ. eigenvalues --  -14.26959 -14.21939 -14.21421 -14.13558 -14.12965
  Beta  occ. eigenvalues --  -10.11953 -10.07595 -10.07382 -10.06764 -10.06611
  Beta  occ. eigenvalues --  -10.06206 -10.04902 -10.04623 -10.04332 -10.02954
  Beta  occ. eigenvalues --  -10.02287  -0.93306  -0.86848  -0.77376  -0.73321
  Beta  occ. eigenvalues --   -0.72574  -0.67011  -0.65835  -0.62040  -0.59553
  Beta  occ. eigenvalues --   -0.55328  -0.51014  -0.48867  -0.46631  -0.45197
  Beta  occ. eigenvalues --   -0.44192  -0.41585  -0.38243  -0.37312  -0.35729
  Beta  occ. eigenvalues --   -0.34867  -0.33273  -0.31493  -0.30562  -0.30228
  Beta  occ. eigenvalues --   -0.29521  -0.28356  -0.28002  -0.27332  -0.25945
  Beta  occ. eigenvalues --   -0.25713  -0.23134  -0.20837  -0.18467  -0.16829
  Beta  occ. eigenvalues --   -0.14062  -0.13639  -0.12941  -0.09556  -0.09286
  Beta  occ. eigenvalues --   -0.06365
  Beta virt. eigenvalues --    0.06630   0.07986   0.08729   0.09644   0.10155
  Beta virt. eigenvalues --    0.10592   0.10620   0.11516   0.11784   0.12365
  Beta virt. eigenvalues --    0.12606   0.13529   0.13918   0.14321   0.15399

 Mulliken charges and spin densities:
               1          2
     1  C   -0.568806  -0.025431
     2  C    0.337504   0.044726
     3  C   -0.351539   0.275425
     4  C    0.696047  -0.058189
     5  C   -0.069985   0.014736
     6  N   -0.120743   0.194680
     7  C   -0.596270  -0.005635
     8  N   -0.173618   0.023606
     9  C   -0.436602   0.223180
    10  N   -0.222981   0.010836
    11  C   -0.194589  -0.067397
    12  C   -0.342808   0.291895
    13  N    0.268293   0.006078
    14  N   -0.326765  -0.046825
    15  C   -0.085648   0.071077
    16  C   -0.317609  -0.005582
    17  H    0.096065   0.033144
    18  H    0.123774  -0.000720
    19  H    0.097077   0.031705
    20  H    0.107658  -0.021587
    21  H    0.121894  -0.002456
    22  H    0.252370   0.000059
    23  H    0.177852  -0.020645
    24  H    0.120204  -0.003539
    25  H    0.138026   0.018631
    26  H    0.138383   0.018474
    27  H    0.132814  -0.000243
 Sum of Mulliken charges =  -1.00000   1.00000

 Dipole moment (field-independent basis, Debye):
    X=              3.6807    Y=             -3.2379    Z=              0.0035  Tot=              4.9022
 Quadrupole moment (field-independent basis, Debye-Ang):
   XX=           -141.6499   YY=           -108.2503   ZZ=           -104.5304
   XY=             15.4025   XZ=             -0.0343   YZ=             -0.0141

 Summary of Natural Population Analysis:

                                       Natural Population
                Natural  -----------------------------------------------
    Atom  No    Charge         Core      Valence    Rydberg      Total
 -----------------------------------------------------------------------
      C    1   -0.28778      0.99965     2.28348    0.00465     3.28778
      C    2   -0.03384      0.99953     2.02643    0.00788     3.03384
      C    3   -0.06602      0.99949     2.05822    0.00831     3.06602
      C    4    0.03877      0.99947     1.95136    0.01041     2.96123
      C    5    0.16398      0.99948     1.81830    0.01824     2.83602
      N    6   -0.18423      0.99967     2.66922    0.01534     3.68423
      C    7    0.00907      0.99956     1.97732    0.01405     2.99093
      N    8   -0.26227      0.99968     2.75028    0.01230     3.76227
      C    9    0.25700      0.99960     1.72850    0.01490     2.74300
      N   10   -0.28077      0.99964     2.77374    0.00739     3.78077
      C   11   -0.09660      0.99940     2.08791    0.00930     3.09660
      C   12    0.07113      0.99950     1.91592    0.01345     2.92887
      N   13   -0.10108      0.99967     2.58719    0.01423     3.60108
      N   14   -0.18600      0.99973     2.67312    0.01315     3.68600
      C   15   -0.00081      0.99964     1.98703    0.01414     3.00081
      C   16   -0.17087      0.99962     2.16328    0.00797     3.17087
      H   17    0.09523      0.00000     0.40359    0.00119     0.40477
      H   18    0.09551      0.00000     0.40339    0.00110     0.40449
      H   19    0.09520      0.00000     0.40362    0.00118     0.40480
      H   20    0.08708      0.00000     0.41131    0.00160     0.41292
      H   21    0.07550      0.00000     0.42300    0.00150     0.42450
      H   22    0.19234      0.00000     0.30606    0.00160     0.30766
      H   23    0.10564      0.00000     0.39366    0.00070     0.39436
      H   24    0.08940      0.00000     0.40972    0.00089     0.41060
      H   25    0.09805      0.00000     0.40133    0.00062     0.40195
      H   26    0.09786      0.00000     0.40152    0.00062     0.40214
      H   27    0.09874      0.00000     0.40033    0.00093     0.40126
 =======================================================================
   * Total *    0.00021     15.99332    39.80883    0.19764    55.99979

 Normal termination of Gaussian 16 at Fri Dec 11 00:05:42 2020.
