 Gaussian 16, Revision A.03,

 -----------------------------------------------------------
 # opt freq B3LYP/6-31G(d) empiricaldispersion=gd3bj scf=xqc
 -----------------------------------------------------------

 -------------------------------
 CID_130865481_JID_1011_neutraal
 -------------------------------
 Symbolic Z-matrix:
 Charge =  0 Multiplicity = 1

 SCF Done:  E(RB3LYP) =  -448.492414912     A.U. after   12 cycles
 SCF Done:  E(RB3LYP) =  -448.495933070     A.U. after   10 cycles
 SCF Done:  E(RB3LYP) =  -448.496573673     A.U. after   10 cycles
 SCF Done:  E(RB3LYP) =  -448.496746849     A.U. after   10 cycles
 SCF Done:  E(RB3LYP) =  -448.496751826     A.U. after    9 cycles
 SCF Done:  E(RB3LYP) =  -448.496782944     A.U. after    9 cycles
 SCF Done:  E(RB3LYP) =  -448.496785048     A.U. after    8 cycles
 SCF Done:  E(RB3LYP) =  -448.496785548     A.U. after    7 cycles
 SCF Done:  E(RB3LYP) =  -448.496785722     A.U. after    7 cycles
 SCF Done:  E(RB3LYP) =  -448.496785740     A.U. after    6 cycles
 Optimization completed.
    -- Stationary point found.
 Normal termination of Gaussian 16 at Tue Dec  8 19:11:08 2020.

 --------------------------------------------------------------------
 #N Geom=AllCheck Guess=TCheck SCRF=Check GenChk RB3LYP/6-31G(d) Freq
 --------------------------------------------------------------------

 Structure from the checkpoint file:  "JID_1011.chk"
 -------------------------------
 CID_130865481_JID_1011_neutraal
 -------------------------------
 Charge =  0 Multiplicity = 1

 SCF Done:  E(RB3LYP) =  -448.496785740     A.U. after    1 cycles

  Exact polarizability: 128.704   1.171 104.586  -0.528  -0.541  97.869
 Approx polarizability: 151.797   0.841 149.763  -0.482  -0.463 151.525

                      1                      2                      3
                      A                      A                      A
 Frequencies --     52.8857                65.0657                73.9070
 Red. masses --      2.7653                 2.8743                 2.7759
 Frc consts  --      0.0046                 0.0072                 0.0089
 IR Inten    --      0.0631                 0.2112                 0.1076

                      4                      5                      6
                      A                      A                      A
 Frequencies --    145.1496               219.1513               225.3613
 Red. masses --      2.9624                 1.5535                 1.0730
 Frc consts  --      0.0368                 0.0440                 0.0321
 IR Inten    --      0.2276                 1.7645                 0.1084

                      7                      8                      9
                      A                      A                      A
 Frequencies --    232.6935               245.5092               264.2141
 Red. masses --      1.1214                 2.2209                 1.0848
 Frc consts  --      0.0358                 0.0789                 0.0446
 IR Inten    --      0.0119                 9.1669                 0.3787

                     10                     11                     12
                      A                      A                      A
 Frequencies --    268.1827               299.5273               314.3487
 Red. masses --      1.2680                 1.6462                 1.7843
 Frc consts  --      0.0537                 0.0870                 0.1039
 IR Inten    --     18.6127                 2.7587                 0.6699

                     13                     14                     15
                      A                      A                      A
 Frequencies --    336.3513               368.8598               388.6293
 Red. masses --      2.5454                 2.2603                 2.1352
 Frc consts  --      0.1697                 0.1812                 0.1900
 IR Inten    --      4.5726                 1.6423                 3.9515

                     16                     17                     18
                      A                      A                      A
 Frequencies --    405.1153               414.4307               453.0142
 Red. masses --      2.3003                 2.0221                 2.4059
 Frc consts  --      0.2224                 0.2046                 0.2909
 IR Inten    --      0.6168                 2.6612                 1.1767

                     19                     20                     21
                      A                      A                      A
 Frequencies --    475.9995               565.3158               632.6244
 Red. masses --      2.5024                 2.3322                 2.8967
 Frc consts  --      0.3341                 0.4391                 0.6830
 IR Inten    --      7.6644                 7.5578                 6.7349

                     22                     23                     24
                      A                      A                      A
 Frequencies --    744.9608               817.2667               854.9781
 Red. masses --      2.6246                 1.9587                 1.4968
 Frc consts  --      0.8582                 0.7708                 0.6446
 IR Inten    --      7.2564                 6.7661                 2.4127

                     25                     26                     27
                      A                      A                      A
 Frequencies --    874.7772               889.1580               911.3601
 Red. masses --      2.9190                 2.0414                 1.7150
 Frc consts  --      1.3161                 0.9509                 0.8393
 IR Inten    --     66.9160                 0.0875               117.7448

                     28                     29                     30
                      A                      A                      A
 Frequencies --    932.5563               946.2215               954.6580
 Red. masses --      1.9028                 1.2787                 1.9394
 Frc consts  --      0.9750                 0.6746                 1.0414
 IR Inten    --      2.6336                 0.1686                16.2532

                     31                     32                     33
                      A                      A                      A
 Frequencies --    974.0357               982.6283               991.9138
 Red. masses --      1.4388                 1.4822                 1.7306
 Frc consts  --      0.8043                 0.8432                 1.0032
 IR Inten    --      3.0847                 2.1186                 2.0064

                     34                     35                     36
                      A                      A                      A
 Frequencies --   1005.3309              1030.2770              1054.2048
 Red. masses --      1.6175                 1.6638                 1.6590
 Frc consts  --      0.9632                 1.0405                 1.0863
 IR Inten    --     12.7679                 1.1654                15.6298

                     37                     38                     39
                      A                      A                      A
 Frequencies --   1080.1375              1111.1294              1113.6098
 Red. masses --      1.2472                 1.1756                 2.7491
 Frc consts  --      0.8573                 0.8551                 2.0087
 IR Inten    --      0.4749                 0.8926                 2.2099

                     40                     41                     42
                      A                      A                      A
 Frequencies --   1161.6834              1186.3087              1207.5819
 Red. masses --      2.1228                 2.0107                 1.7046
 Frc consts  --      1.6878                 1.6672                 1.4645
 IR Inten    --      6.8263                 7.7297                 2.3456

                     43                     44                     45
                      A                      A                      A
 Frequencies --   1229.6999              1238.6493              1250.1038
 Red. masses --      2.3018                 1.6851                 1.4059
 Frc consts  --      2.0507                 1.5232                 1.2945
 IR Inten    --      0.8228                 2.5435                 0.4052

                     46                     47                     48
                      A                      A                      A
 Frequencies --   1259.6795              1297.5384              1315.3026
 Red. masses --      1.7954                 1.2614                 2.2539
 Frc consts  --      1.6786                 1.2512                 2.2974
 IR Inten    --      2.1526                 1.9570                 4.1572

                     49                     50                     51
                      A                      A                      A
 Frequencies --   1328.9415              1341.4351              1367.8467
 Red. masses --      2.0863                 1.4357                 1.4255
 Frc consts  --      2.1709                 1.5222                 1.5714
 IR Inten    --     12.7835                 9.6418                 1.6000

                     52                     53                     54
                      A                      A                      A
 Frequencies --   1379.6421              1392.9175              1422.6987
 Red. masses --      1.4298                 1.3666                 1.2718
 Frc consts  --      1.6035                 1.5622                 1.5167
 IR Inten    --      0.3515                 3.8224                 5.9103

                     55                     56                     57
                      A                      A                      A
 Frequencies --   1430.2989              1432.6973              1446.1681
 Red. masses --      1.3000                 1.3251                 1.2358
 Frc consts  --      1.5670                 1.6026                 1.5227
 IR Inten    --      6.7063                 2.7854                 0.4850

                     58                     59                     60
                      A                      A                      A
 Frequencies --   1447.6270              1500.3521              1515.2009
 Red. masses --      1.2392                 1.0888                 1.0458
 Frc consts  --      1.5300                 1.4441                 1.4147
 IR Inten    --      8.6010                 3.1752                 0.0585

                     61                     62                     63
                      A                      A                      A
 Frequencies --   1515.5203              1518.9900              1523.6367
 Red. masses --      1.0699                 1.0502                 1.0489
 Frc consts  --      1.4478                 1.4277                 1.4347
 IR Inten    --      1.5387                 3.5060                 1.1313

                     64                     65                     66
                      A                      A                      A
 Frequencies --   1528.8902              1532.5798              1536.5109
 Red. masses --      1.1116                 1.0570                 1.0493
 Frc consts  --      1.5309                 1.4627                 1.4596
 IR Inten    --      4.1674                 1.4975                 4.2524

                     67                     68                     69
                      A                      A                      A
 Frequencies --   1537.2631              1547.1989              1691.1039
 Red. masses --      1.0523                 1.0500                 1.0927
 Frc consts  --      1.4652                 1.4810                 1.8411
 IR Inten    --      2.4140                10.3892                19.5625

                     70                     71                     72
                      A                      A                      A
 Frequencies --   2993.1483              3013.8362              3030.6653
 Red. masses --      1.0810                 1.0846                 1.0349
 Frc consts  --      5.7058                 5.8045                 5.6005
 IR Inten    --      4.9112                44.0439                28.4307

                     73                     74                     75
                      A                      A                      A
 Frequencies --   3036.8621              3038.4996              3044.1630
 Red. masses --      1.0365                 1.0398                 1.0405
 Frc consts  --      5.6320                 5.6560                 5.6809
 IR Inten    --     38.0748                20.4139                42.0875

                     76                     77                     78
                      A                      A                      A
 Frequencies --   3047.1629              3056.9700              3077.7268
 Red. masses --      1.0578                 1.0581                 1.0876
 Frc consts  --      5.7869                 5.8260                 6.0700
 IR Inten    --     47.8291                21.9553                10.2163

                     79                     80                     81
                      A                      A                      A
 Frequencies --   3094.9553              3096.8210              3098.0678
 Red. masses --      1.1027                 1.1004                 1.1031
 Frc consts  --      6.2230                 6.2175                 6.2380
 IR Inten    --      9.4667                12.5966                 6.2548

                     82                     83                     84
                      A                      A                      A
 Frequencies --   3100.5810              3103.1503              3105.4811
 Red. masses --      1.1046                 1.1024                 1.0993
 Frc consts  --      6.2566                 6.2543                 6.2466
 IR Inten    --      9.5859                57.7012                74.4165

                     85                     86                     87
                      A                      A                      A
 Frequencies --   3106.3686              3109.7959              3123.7285
 Red. masses --      1.1027                 1.1027                 1.1001
 Frc consts  --      6.2693                 6.2831                 6.3245
 IR Inten    --     51.5817                81.7353                43.7131

                     88                     89                     90
                      A                      A                      A
 Frequencies --   3154.9088              3461.4547              3556.2122
 Red. masses --      1.0979                 1.0496                 1.0912
 Frc consts  --      6.4382                 7.4098                 8.1308
 IR Inten    --     14.0196                 3.4280                 1.0428

 - Thermochemistry -
 -------------------
 Temperature   298.150 Kelvin.  Pressure   1.00000 Atm.
 Atom     1 has atomic number  6 and mass  12.00000

 Molecular mass:   155.16740 amu.
 Principal axes and moments of inertia in atomic units:
                           1         2         3
     Eigenvalues --   858.819373082.961693484.18740
           X            0.99998   0.00638   0.00051
           Y           -0.00639   0.99990   0.01244
           Z           -0.00043  -0.01244   0.99992
 This molecule is an asymmetric top.
 Rotational symmetry number  1.
 Warning -- assumption of classical behavior for rotation
           may cause significant error
 Rotational temperatures (Kelvin)      0.10085     0.02809     0.02486
 Rotational constants (GHZ):           2.10142     0.58539     0.51798
 Zero-point vibrational energy     785050.3 (Joules/Mol)
                                  187.63153 (Kcal/Mol)
 Warning -- explicit consideration of  20 degrees of freedom as
           vibrations may cause significant error
 Vibrational temperatures:     76.09    93.62   106.34   208.84   315.31
          (Kelvin)            324.24   334.79   353.23   380.15   385.86
                              430.95   452.28   483.93   530.71   559.15
                              582.87   596.27   651.79   684.86   813.36
                              910.21  1071.83  1175.86  1230.12  1258.61
                             1279.30  1311.24  1341.74  1361.40  1373.54
                             1401.42  1413.78  1427.14  1446.45  1482.34
                             1516.77  1554.08  1598.67  1602.24  1671.40
                             1706.83  1737.44  1769.26  1782.14  1798.62
                             1812.40  1866.87  1892.43  1912.05  1930.03
                             1968.03  1985.00  2004.10  2046.95  2057.88
                             2061.33  2080.71  2082.81  2158.67  2180.04
                             2180.50  2185.49  2192.17  2199.73  2205.04
                             2210.70  2211.78  2226.07  2433.12  4306.47
                             4336.24  4360.45  4369.37  4371.72  4379.87
                             4384.19  4398.30  4428.16  4452.95  4455.63
                             4457.43  4461.04  4464.74  4468.09  4469.37
                             4474.30  4494.35  4539.21  4980.26  5116.60

 Zero-point correction=                           0.299010 (Hartree/Particle)
 Thermal correction to Energy=                    0.312269
 Thermal correction to Enthalpy=                  0.313213
 Thermal correction to Gibbs Free Energy=         0.260347
 Sum of electronic and zero-point Energies=           -448.197776
 Sum of electronic and thermal Energies=              -448.184517
 Sum of electronic and thermal Enthalpies=            -448.183573
 Sum of electronic and thermal Free Energies=         -448.236438

                     E (Thermal)             CV                S
                      KCal/Mol        Cal/Mol-Kelvin    Cal/Mol-Kelvin
 Total                  195.952             51.310            111.265
 Electronic               0.000              0.000              0.000
 Translational            0.889              2.981             41.028
 Rotational               0.889              2.981             30.601
 Vibrational            194.174             45.349             39.636
 Vibration     1          0.596              1.976              4.706
 Vibration     2          0.597              1.971              4.297
 Vibration     3          0.599              1.966              4.047
 Vibration     4          0.617              1.908              2.735
 Vibration     5          0.647              1.812              1.966
 Vibration     6          0.650              1.802              1.916
 Vibration     7          0.653              1.791              1.858
 Vibration     8          0.660              1.770              1.763
 Vibration     9          0.671              1.739              1.634
 Vibration    10          0.673              1.732              1.608
 Vibration    11          0.692              1.675              1.420
 Vibration    12          0.702              1.646              1.339
 Vibration    13          0.717              1.603              1.229
 Vibration    14          0.741              1.536              1.085
 Vibration    15          0.757              1.494              1.005
 Vibration    16          0.770              1.459              0.944
 Vibration    17          0.778              1.439              0.911
 Vibration    18          0.812              1.354              0.787
 Vibration    19          0.833              1.303              0.721
 Vibration    20          0.921              1.106              0.513

 Optimization completed.
    -- Stationary point found.
 Normal termination of Gaussian 16 at Tue Dec  8 19:18:17 2020.

 ----------------------------------------------------------------------
 # B3LYP/6-311++G(d,p) empiricaldispersion=gd3bj scf=xqc pop=npa geom=c
 heck
 ----------------------------------------------------------------------

 ---------------------------------------
 CID_130865481_JID_1011_Energie_neutraal
 ---------------------------------------
 Structure from the checkpoint file:  "JID_1011.chk"
 Charge =  0 Multiplicity = 1

 SCF Done:  E(RB3LYP) =  -448.627692527     A.U. after   14 cycles
 Normal termination of Gaussian 16 at Tue Dec  8 19:21:19 2020.

 ----------------------------------------------------------------------
 # B3LYP/6-311++G(d,p) empiricaldispersion=gd3bj scf=xqc pop=npa geom=c
 heck
 ----------------------------------------------------------------------

 -------------------------------------
 CID_130865481_JID_1011_Energie_kation
 -------------------------------------
 Structure from the checkpoint file:  "JID_1011.chk"
 Charge =  1 Multiplicity = 2

 SCF Done:  E(UB3LYP) =  -448.307110435     A.U. after   21 cycles
 Normal termination of Gaussian 16 at Tue Dec  8 19:27:02 2020.
 Gaussian 16:  ES64L-G16RevA.03 25-Dec-2016

 ----------------------------------------------------------------------
 # B3LYP/6-311++G(d,p) empiricaldispersion=gd3bj scf=xqc pop=npa geom=c
 heck
 ----------------------------------------------------------------------

 ------------------------------------
 CID_130865481_JID_1011_Energie_anion
 ------------------------------------
 Structure from the checkpoint file:  "JID_1011.chk"
 Charge = -1 Multiplicity = 2

                         Standard orientation:
 ---------------------------------------------------------------------
 Center     Atomic      Atomic             Coordinates (Angstroms)
 Number     Number       Type             X           Y           Z
 ---------------------------------------------------------------------
      1          6           0        2.337062    1.777036   -0.073510
      2          6           0        2.276848    0.271374   -0.364534
      3          6           0        3.665991   -0.357307   -0.196057
      4          6           0        1.226971   -0.466564    0.500284
      5          6           0       -0.140923    0.240080    0.482965
      6          6           0       -1.381917   -0.456549    1.101641
      7          6           0       -2.244847    0.068215   -0.088312
      8          6           0       -0.917459    0.355296   -0.855352
      9          6           0       -3.185355   -0.945044   -0.731683
     10          6           0       -2.990380    1.356076    0.267095
     11          7           0        1.199933   -1.878445    0.091334
     12          1           0        2.529725    1.962602    0.991341
     13          1           0        1.411824    2.294585   -0.344665
     14          1           0        3.152433    2.240899   -0.639886
     15          1           0        1.969823    0.144627   -1.415353
     16          1           0        4.035071   -0.199935    0.826184
     17          1           0        3.631467   -1.433237   -0.378235
     18          1           0        4.387229    0.100236   -0.883391
     19          1           0        1.587814   -0.458199    1.540338
     20          1           0       -0.027652    1.231051    0.932620
     21          1           0       -1.681222   -0.151955    2.110423
     22          1           0       -1.301256   -1.549203    1.077759
     23          1           0       -0.672238   -0.461217   -1.545569
     24          1           0       -0.848071    1.301056   -1.403729
     25          1           0       -3.627152   -0.544604   -1.653084
     26          1           0       -2.654457   -1.869570   -0.988552
     27          1           0       -4.007536   -1.207550   -0.053753
     28          1           0       -2.323439    2.093755    0.728307
     29          1           0       -3.427182    1.814422   -0.628840
     30          1           0       -3.804657    1.153710    0.973855
     31          1           0        0.588129   -2.411006    0.705835
     32          1           0        0.805861   -1.957024   -0.846173
 ---------------------------------------------------------------------

 SCF Done:  E(UB3LYP) =  -448.611837084     A.U. after   30 cycles

 The electronic state is 2-A.
 Alpha  occ. eigenvalues --  -14.18715 -10.09231 -10.07441 -10.07193 -10.06234
 Alpha  occ. eigenvalues --  -10.05776 -10.05463 -10.05460 -10.05280 -10.04989
 Alpha  occ. eigenvalues --  -10.04934  -0.79032  -0.74355  -0.68961  -0.63804
 Alpha  occ. eigenvalues --   -0.58226  -0.57927  -0.56624  -0.55555  -0.48710
 Alpha  occ. eigenvalues --   -0.45137  -0.41690  -0.38513  -0.37380  -0.36332
 Alpha  occ. eigenvalues --   -0.35556  -0.33274  -0.32745  -0.31312  -0.30157
 Alpha  occ. eigenvalues --   -0.29361  -0.28524  -0.28196  -0.27623  -0.26144
 Alpha  occ. eigenvalues --   -0.25190  -0.24463  -0.23468  -0.23055  -0.20951
 Alpha  occ. eigenvalues --   -0.20367  -0.18809  -0.18407  -0.13980   0.04632
 Alpha virt. eigenvalues --    0.06833   0.07416   0.07924   0.08906   0.09339
 Alpha virt. eigenvalues --    0.09448   0.10104   0.10353   0.11246   0.11486
 Alpha virt. eigenvalues --    0.12093   0.12294   0.12783   0.13756   0.14069

  Beta  occ. eigenvalues --  -14.18688 -10.09223 -10.07441 -10.07185 -10.06225
  Beta  occ. eigenvalues --  -10.05755 -10.05439 -10.05435 -10.05267 -10.04950
  Beta  occ. eigenvalues --  -10.04898  -0.78991  -0.74334  -0.68930  -0.63766
  Beta  occ. eigenvalues --   -0.58190  -0.57855  -0.56576  -0.55498  -0.48666
  Beta  occ. eigenvalues --   -0.45093  -0.41614  -0.38471  -0.37341  -0.36286
  Beta  occ. eigenvalues --   -0.35519  -0.33246  -0.32712  -0.31278  -0.30122
  Beta  occ. eigenvalues --   -0.29329  -0.28501  -0.28160  -0.27594  -0.26108
  Beta  occ. eigenvalues --   -0.25156  -0.24432  -0.23434  -0.23022  -0.20915
  Beta  occ. eigenvalues --   -0.20342  -0.18778  -0.18377  -0.13953
  Beta virt. eigenvalues --    0.06748   0.07497   0.08139   0.08478   0.09421
  Beta virt. eigenvalues --    0.09699   0.09931   0.10637   0.10884   0.11672
  Beta virt. eigenvalues --    0.11883   0.12326   0.12604   0.13017   0.14276

 Mulliken charges and spin densities:
               1          2
     1  C    0.611959  -1.393955
     2  C   -1.183662   1.911498
     3  C   -0.065250  -0.571831
     4  C    2.164872  -3.113534
     5  C   -1.825107   2.542573
     6  C    1.322590  -2.356934
     7  C   -2.519133   3.800130
     8  C    1.571359  -2.667733
     9  C    0.190138  -0.794706
    10  C    1.142640  -1.782291
    11  N   -0.318162   0.042452
    12  H   -0.131327   0.274826
    13  H   -0.132236   0.289499
    14  H   -0.105768   0.242214
    15  H   -0.013109   0.177285
    16  H    0.043999   0.068116
    17  H    0.058077   0.108321
    18  H   -0.080554   0.204574
    19  H   -0.015285   0.208229
    20  H    0.375173  -0.178351
    21  H   -0.296560   0.463407
    22  H   -0.087654   0.203490
    23  H   -0.114079   0.262509
    24  H   -0.110366   0.281663
    25  H   -0.191772   0.323058
    26  H   -0.298646   0.442335
    27  H   -0.234229   0.370390
    28  H   -0.546170   0.691147
    29  H   -0.149151   0.284970
    30  H   -0.154483   0.294744
    31  H    0.080361   0.148804
    32  H    0.011535   0.223100
 Sum of Mulliken charges =  -1.00000   1.00000

 Dipole moment (field-independent basis, Debye):
    X=              3.4361    Y=             -0.5539    Z=              0.4249  Tot=              3.5063
 Quadrupole moment (field-independent basis, Debye-Ang):
   XX=           -141.7576   YY=           -118.9492   ZZ=           -107.2577
   XY=              1.2674   XZ=              1.2883   YZ=             -0.5759

 Summary of Natural Population Analysis:

                                       Natural Population
                Natural  -----------------------------------------------
    Atom  No    Charge         Core      Valence    Rydberg      Total
 -----------------------------------------------------------------------
      C    1   -0.28574      0.99965     2.27992    0.00617     3.28574
      C    2   -0.11405      0.99960     2.10406    0.01039     3.11405
      C    3   -0.28340      0.99965     2.27873    0.00502     3.28340
      C    4   -0.00620      0.99955     1.99425    0.01240     3.00620
      C    5   -0.11715      0.99958     2.10655    0.01102     3.11715
      C    6   -0.18069      0.99958     2.17193    0.00918     3.18069
      C    7   -0.04712      0.99959     2.03448    0.01305     3.04712
      C    8   -0.18533      0.99958     2.17653    0.00921     3.18533
      C    9   -0.28216      0.99961     2.27614    0.00641     3.28216
      C   10   -0.28122      0.99962     2.27485    0.00676     3.28122
      N   11   -0.42488      0.99977     2.91517    0.00994     3.92488
      H   12    0.09547      0.00000     0.40359    0.00094     0.40453
      H   13    0.10297      0.00000     0.39598    0.00105     0.39703
      H   14    0.09788      0.00000     0.40131    0.00080     0.40212
      H   15    0.09235      0.00000     0.40593    0.00172     0.40765
      H   16    0.09260      0.00000     0.40640    0.00100     0.40740
      H   17    0.11019      0.00000     0.38861    0.00120     0.38981
      H   18    0.09364      0.00000     0.40542    0.00094     0.40636
      H   19    0.08824      0.00000     0.41021    0.00156     0.41176
      H   20    0.10123      0.00000     0.39684    0.00193     0.39877
      H   21    0.09856      0.00000     0.40023    0.00121     0.40144
      H   22    0.09460      0.00000     0.40362    0.00178     0.40540
      H   23    0.09480      0.00000     0.40324    0.00196     0.40520
      H   24    0.10007      0.00000     0.39858    0.00135     0.39993
      H   25    0.09932      0.00000     0.39951    0.00116     0.40068
      H   26    0.09913      0.00000     0.39928    0.00159     0.40087
      H   27    0.09943      0.00000     0.39938    0.00119     0.40057
      H   28    0.09987      0.00000     0.39862    0.00151     0.40013
      H   29    0.09939      0.00000     0.39941    0.00121     0.40061
      H   30    0.09923      0.00000     0.39954    0.00123     0.40077
      H   31    0.17634      0.00000     0.32183    0.00183     0.32366
      H   32    0.17263      0.00000     0.32516    0.00221     0.32737
 =======================================================================
   * Total *    0.00000     10.99578    32.87530    0.12892    44.00000

 Normal termination of Gaussian 16 at Tue Dec  8 19:35:10 2020.
