 Gaussian 16, Revision A.03,

 -----------------------------------------------------------
 # opt freq B3LYP/6-31G(d) empiricaldispersion=gd3bj scf=xqc
 -----------------------------------------------------------

 ------------------------------
 CID_147487846_JID_518_neutraal
 ------------------------------
 Symbolic Z-matrix:
 Charge =  0 Multiplicity = 1

 SCF Done:  E(RB3LYP) =  -461.071497465     A.U. after   13 cycles
 SCF Done:  E(RB3LYP) =  -461.079881456     A.U. after   11 cycles
 SCF Done:  E(RB3LYP) =  -461.080907951     A.U. after   11 cycles
 SCF Done:  E(RB3LYP) =  -461.081403202     A.U. after   10 cycles
 SCF Done:  E(RB3LYP) =  -461.081918895     A.U. after   11 cycles
 SCF Done:  E(RB3LYP) =  -461.082574475     A.U. after   11 cycles
 SCF Done:  E(RB3LYP) =  -460.976013319     A.U. after   13 cycles
 SCF Done:  E(RB3LYP) =  -461.080898827     A.U. after   11 cycles
 SCF Done:  E(RB3LYP) =  -461.082832540     A.U. after    9 cycles
 SCF Done:  E(RB3LYP) =  -461.084498232     A.U. after   11 cycles
 SCF Done:  E(RB3LYP) =  -461.092193017     A.U. after   10 cycles
 SCF Done:  E(RB3LYP) =  -461.092197417     A.U. after    9 cycles
 SCF Done:  E(RB3LYP) =  -461.092201484     A.U. after    7 cycles
 SCF Done:  E(RB3LYP) =  -461.092210835     A.U. after    9 cycles
 SCF Done:  E(RB3LYP) =  -461.092211652     A.U. after    8 cycles
 SCF Done:  E(RB3LYP) =  -461.092211698     A.U. after    6 cycles
 Optimization completed.
    -- Stationary point found.
 Normal termination of Gaussian 16 at Tue Dec  8 12:50:13 2020.

 --------------------------------------------------------------------
 #N Geom=AllCheck Guess=TCheck SCRF=Check GenChk RB3LYP/6-31G(d) Freq
 --------------------------------------------------------------------

 Structure from the checkpoint file:  "JID_518.chk"
 ------------------------------
 CID_147487846_JID_518_neutraal
 ------------------------------
 Charge =  0 Multiplicity = 1

 SCF Done:  E(RB3LYP) =  -461.092211698     A.U. after    1 cycles

  Exact polarizability:  99.074  -0.957  87.260  -0.586  -0.522  83.067
 Approx polarizability: 120.061   0.323 120.710  -0.805  -0.790 122.670

                      1                      2                      3
                      A                      A                      A
 Frequencies --     39.3836                70.6536                89.9175
 Red. masses --      3.0901                 2.7430                 3.2272
 Frc consts  --      0.0028                 0.0081                 0.0154
 IR Inten    --      0.4116                 1.3156                 2.2109

                      4                      5                      6
                      A                      A                      A
 Frequencies --    135.7768               152.8142               217.1711
 Red. masses --      3.1900                 2.0727                 2.3788
 Frc consts  --      0.0346                 0.0285                 0.0661
 IR Inten    --      0.3207                 2.1937                 4.9484

                      7                      8                      9
                      A                      A                      A
 Frequencies --    229.3262               270.8838               309.7212
 Red. masses --      3.2475                 1.4298                 2.7978
 Frc consts  --      0.1006                 0.0618                 0.1581
 IR Inten    --      2.3189                 0.6062                 1.6789

                     10                     11                     12
                      A                      A                      A
 Frequencies --    322.1609               362.5507               407.6050
 Red. masses --      1.7205                 1.2128                 3.6081
 Frc consts  --      0.1052                 0.0939                 0.3532
 IR Inten    --     16.5383                83.7145                15.3326

                     13                     14                     15
                      A                      A                      A
 Frequencies --    479.7150               546.8928               623.3992
 Red. masses --      2.5011                 2.6705                 2.5398
 Frc consts  --      0.3391                 0.4706                 0.5816
 IR Inten    --      0.2187                11.3927                 5.9722

                     16                     17                     18
                      A                      A                      A
 Frequencies --    697.8920               761.9169               799.4249
 Red. masses --      2.0825                 1.4054                 1.1514
 Frc consts  --      0.5976                 0.4807                 0.4335
 IR Inten    --     77.2698                26.5900                36.2109

                     19                     20                     21
                      A                      A                      A
 Frequencies --    844.9605               870.0371               901.1031
 Red. masses --      2.6408                 1.5236                 2.2851
 Frc consts  --      1.1109                 0.6795                 1.0932
 IR Inten    --      4.9848                 0.1107                 9.1621

                     22                     23                     24
                      A                      A                      A
 Frequencies --    927.8604               946.7068               979.7198
 Red. masses --      1.3701                 2.6346                 1.6898
 Frc consts  --      0.6950                 1.3912                 0.9556
 IR Inten    --      3.6076                24.9639                 1.0071

                     25                     26                     27
                      A                      A                      A
 Frequencies --    987.4441              1018.1941              1042.5171
 Red. masses --      2.1545                 3.1245                 2.0155
 Frc consts  --      1.2377                 1.9085                 1.2907
 IR Inten    --     35.8268                 2.8154                14.0420

                     28                     29                     30
                      A                      A                      A
 Frequencies --   1053.1371              1070.5747              1103.1540
 Red. masses --      2.1326                 2.6700                 2.2653
 Frc consts  --      1.3936                 1.8030                 1.6242
 IR Inten    --     24.9911                73.4690                 8.6991

                     31                     32                     33
                      A                      A                      A
 Frequencies --   1120.7533              1135.1453              1168.0007
 Red. masses --      1.8422                 1.2205                 1.6831
 Frc consts  --      1.3633                 0.9266                 1.3529
 IR Inten    --      9.9876                13.2248                16.9026

                     34                     35                     36
                      A                      A                      A
 Frequencies --   1179.3581              1196.1525              1216.9832
 Red. masses --      2.3250                 1.9652                 1.3433
 Frc consts  --      1.9053                 1.6567                 1.1721
 IR Inten    --     30.8357                17.8296                 2.0005

                     37                     38                     39
                      A                      A                      A
 Frequencies --   1232.9203              1284.6237              1288.6667
 Red. masses --      1.3838                 1.2205                 1.2963
 Frc consts  --      1.2393                 1.1867                 1.2683
 IR Inten    --      6.5414                24.2567                 9.1626

                     40                     41                     42
                      A                      A                      A
 Frequencies --   1300.0536              1319.2919              1353.9734
 Red. masses --      1.3602                 1.2467                 1.4694
 Frc consts  --      1.3545                 1.2785                 1.5871
 IR Inten    --     11.0168                 2.5265                18.3006

                     43                     44                     45
                      A                      A                      A
 Frequencies --   1367.3274              1384.2064              1390.5601
 Red. masses --      1.4485                 1.3650                 1.3767
 Frc consts  --      1.5956                 1.5410                 1.5684
 IR Inten    --      3.9734                13.6367                 9.8757

                     46                     47                     48
                      A                      A                      A
 Frequencies --   1399.1070              1423.6200              1442.3322
 Red. masses --      1.4271                 1.3875                 1.2578
 Frc consts  --      1.6459                 1.6568                 1.5416
 IR Inten    --      5.0462                17.9713                44.6431

                     49                     50                     51
                      A                      A                      A
 Frequencies --   1455.4627              1509.6167              1527.2580
 Red. masses --      1.3008                 1.0799                 1.0651
 Frc consts  --      1.6235                 1.4499                 1.4637
 IR Inten    --     35.8567                 0.9650                 3.0096

                     52                     53                     54
                      A                      A                      A
 Frequencies --   1530.3847              1538.2863              1545.2682
 Red. masses --      1.0843                 1.0872                 1.0796
 Frc consts  --      1.4962                 1.5158                 1.5188
 IR Inten    --      0.0115                25.5626                10.2104

                     55                     56                     57
                      A                      A                      A
 Frequencies --   1557.2092              1571.1846              2930.3442
 Red. masses --      1.1129                 1.2019                 1.0738
 Frc consts  --      1.5900                 1.7481                 5.4326
 IR Inten    --      4.9324               107.6753                67.3662

                     58                     59                     60
                      A                      A                      A
 Frequencies --   2968.8534              3015.8948              3024.2852
 Red. masses --      1.0833                 1.0598                 1.0665
 Frc consts  --      5.6256                 5.6794                 5.7473
 IR Inten    --     74.2526                88.7054                72.4343

                     61                     62                     63
                      A                      A                      A
 Frequencies --   3042.3626              3043.2068              3065.3163
 Red. masses --      1.0488                 1.0489                 1.1054
 Frc consts  --      5.7195                 5.7235                 6.1196
 IR Inten    --     13.3022                39.1611                43.8911

                     64                     65                     66
                      A                      A                      A
 Frequencies --   3078.5732              3085.8752              3097.6233
 Red. masses --      1.1015                 1.0879                 1.0992
 Frc consts  --      6.1509                 6.1036                 6.2143
 IR Inten    --     15.8213                32.0366                29.9924

                     67                     68                     69
                      A                      A                      A
 Frequencies --   3109.4580              3115.6887              3129.0318
 Red. masses --      1.1017                 1.1022                 1.0882
 Frc consts  --      6.2761                 6.3041                 6.2771
 IR Inten    --     53.1975                49.4940                29.0098

                     70                     71                     72
                      A                      A                      A
 Frequencies --   3493.9365              3500.0858              3708.4679
 Red. masses --      1.0759                 1.0760                 1.0646
 Frc consts  --      7.7388                 7.7664                 8.6267
 IR Inten    --     40.7844                 8.1134                11.7798

 - Thermochemistry -
 -------------------
 Temperature   298.150 Kelvin.  Pressure   1.00000 Atm.
 Atom     1 has atomic number  6 and mass  12.00000

 Molecular mass:   144.12626 amu.
 Principal axes and moments of inertia in atomic units:
                           1         2         3
     Eigenvalues --  1017.382892081.623752708.53996
           X            0.99999   0.00410   0.00016
           Y           -0.00410   0.99999   0.00165
           Z           -0.00015  -0.00165   1.00000
 This molecule is an asymmetric top.
 Rotational symmetry number  1.
 Warning -- assumption of classical behavior for rotation
           may cause significant error
 Rotational temperatures (Kelvin)      0.08513     0.04161     0.03198
 Rotational constants (GHZ):           1.77391     0.86699     0.66632
 Zero-point vibrational energy     622712.3 (Joules/Mol)
                                  148.83181 (Kcal/Mol)
 Warning -- explicit consideration of  14 degrees of freedom as
           vibrations may cause significant error
 Vibrational temperatures:     56.66   101.65   129.37   195.35   219.87
          (Kelvin)            312.46   329.95   389.74   445.62   463.52
                              521.63   586.45   690.20   786.86   896.93
                             1004.11  1096.23  1150.19  1215.71  1251.79
                             1296.49  1334.98  1362.10  1409.60  1420.71
                             1464.95  1499.95  1515.23  1540.32  1587.19
                             1612.51  1633.22  1680.49  1696.83  1721.00
                             1750.97  1773.90  1848.29  1854.10  1870.49
                             1898.17  1948.07  1967.28  1991.56  2000.71
                             2013.00  2048.27  2075.19  2094.09  2172.00
                             2197.38  2201.88  2213.25  2223.30  2240.48
                             2260.58  4216.11  4271.52  4339.20  4351.27
                             4377.28  4378.50  4410.31  4429.38  4439.89
                             4456.79  4473.82  4482.78  4501.98  5027.00
                             5035.84  5335.66

 Zero-point correction=                           0.237179 (Hartree/Particle)
 Thermal correction to Energy=                    0.248306
 Thermal correction to Enthalpy=                  0.249250
 Thermal correction to Gibbs Free Energy=         0.199814
 Sum of electronic and zero-point Energies=           -460.855033
 Sum of electronic and thermal Energies=              -460.843905
 Sum of electronic and thermal Enthalpies=            -460.842961
 Sum of electronic and thermal Free Energies=         -460.892397

                     E (Thermal)             CV                S
                      KCal/Mol        Cal/Mol-Kelvin    Cal/Mol-Kelvin
 Total                  155.815             41.293            104.047
 Electronic               0.000              0.000              0.000
 Translational            0.889              2.981             40.808
 Rotational               0.889              2.981             30.129
 Vibrational            154.037             35.331             33.110
 Vibration     1          0.594              1.981              5.290
 Vibration     2          0.598              1.968              4.135
 Vibration     3          0.602              1.956              3.662
 Vibration     4          0.614              1.918              2.863
 Vibration     5          0.619              1.900              2.637
 Vibration     6          0.646              1.815              1.983
 Vibration     7          0.652              1.796              1.884
 Vibration     8          0.675              1.727              1.591
 Vibration     9          0.699              1.655              1.364
 Vibration    10          0.707              1.631              1.299
 Vibration    11          0.736              1.549              1.111
 Vibration    12          0.772              1.454              0.935
 Vibration    13          0.836              1.295              0.711
 Vibration    14          0.902              1.146              0.551

 Optimization completed.
    -- Stationary point found.
 Normal termination of Gaussian 16 at Tue Dec  8 13:07:24 2020.

 ----------------------------------------------------------------------
 # B3LYP/6-311++G(d,p) empiricaldispersion=gd3bj scf=xqc pop=npa geom=c
 heck
 ----------------------------------------------------------------------

 --------------------------------------
 CID_147487846_JID_518_Energie_neutraal
 --------------------------------------
 Structure from the checkpoint file:  "JID_518.chk"
 Charge =  0 Multiplicity = 1

 SCF Done:  E(RB3LYP) =  -461.239704722     A.U. after   13 cycles
 Normal termination of Gaussian 16 at Tue Dec  8 13:17:16 2020.

 ----------------------------------------------------------------------
 # B3LYP/6-311++G(d,p) empiricaldispersion=gd3bj scf=xqc pop=npa geom=c
 heck
 ----------------------------------------------------------------------

 ------------------------------------
 CID_147487846_JID_518_Energie_kation
 ------------------------------------
 Structure from the checkpoint file:  "JID_518.chk"
 Charge =  1 Multiplicity = 2

 SCF Done:  E(UB3LYP) =  -460.935088602     A.U. after   20 cycles
 Normal termination of Gaussian 16 at Tue Dec  8 13:23:56 2020.
 Gaussian 16:  ES64L-G16RevA.03 25-Dec-2016

 ----------------------------------------------------------------------
 # B3LYP/6-311++G(d,p) empiricaldispersion=gd3bj scf=xqc pop=npa geom=c
 heck
 ----------------------------------------------------------------------

 -----------------------------------
 CID_147487846_JID_518_Energie_anion
 -----------------------------------
 Structure from the checkpoint file:  "JID_518.chk"
 Charge = -1 Multiplicity = 2

                         Standard orientation:
 ---------------------------------------------------------------------
 Center     Atomic      Atomic             Coordinates (Angstroms)
 Number     Number       Type             X           Y           Z
 ---------------------------------------------------------------------
      1          6           0       -2.934844   -1.471150   -0.107136
      2          6           0       -2.966864    0.055971   -0.229357
      3          6           0       -1.803939    0.746968    0.484079
      4          7           0       -0.522042    0.366588   -0.098394
      5          6           0        0.617583    1.118393    0.370614
      6          6           0        1.917010    0.320362    0.218360
      7          6           0        1.948735   -1.009995    1.013410
      8          7           0        1.548275   -1.721710   -0.226939
      9          6           0        2.011299   -0.571747   -1.048366
     10          8           0        0.689200    2.359530   -0.328492
     11          1           0       -2.046127   -1.896969   -0.586937
     12          1           0       -3.811405   -1.924181   -0.583115
     13          1           0       -2.928752   -1.781643    0.945456
     14          1           0       -2.948033    0.342975   -1.288169
     15          1           0       -3.907075    0.436489    0.190631
     16          1           0       -1.900026    1.833605    0.382811
     17          1           0       -1.853210    0.522242    1.567691
     18          1           0       -0.347715   -0.634976   -0.038688
     19          1           0        0.526843    1.411417    1.431307
     20          1           0        2.752392    1.001769    0.388749
     21          1           0        2.958543   -1.255039    1.373244
     22          1           0        1.241869   -1.117480    1.846593
     23          1           0        2.018478   -2.607908   -0.399913
     24          1           0        1.352432   -0.328709   -1.888471
     25          1           0        3.045314   -0.663315   -1.410433
     26          1           0        0.415367    2.138525   -1.235120
 ---------------------------------------------------------------------

 SCF Done:  E(UB3LYP) =  -461.224277362     A.U. after   26 cycles

 The electronic state is 2-A.
 Alpha  occ. eigenvalues --  -19.01922 -14.19441 -14.19251 -10.14356 -10.09214
 Alpha  occ. eigenvalues --  -10.08857 -10.08690 -10.07157 -10.06877 -10.05939
 Alpha  occ. eigenvalues --   -0.93059  -0.82850  -0.79484  -0.67866  -0.63467
 Alpha  occ. eigenvalues --   -0.57642  -0.57046  -0.53614  -0.48713  -0.44771
 Alpha  occ. eigenvalues --   -0.42038  -0.40789  -0.39892  -0.36562  -0.35902
 Alpha  occ. eigenvalues --   -0.33141  -0.31688  -0.30661  -0.29989  -0.28048
 Alpha  occ. eigenvalues --   -0.27553  -0.26330  -0.24775  -0.24470  -0.24099
 Alpha  occ. eigenvalues --   -0.23176  -0.21553  -0.17628  -0.14001  -0.12712
 Alpha  occ. eigenvalues --    0.04674
 Alpha virt. eigenvalues --    0.06431   0.07786   0.08025   0.09148   0.09215
 Alpha virt. eigenvalues --    0.09679   0.10745   0.11097   0.12163   0.12274
 Alpha virt. eigenvalues --    0.12642   0.13373   0.14080   0.15496   0.15910

  Beta  occ. eigenvalues --  -19.01917 -14.19428 -14.19216 -10.14353 -10.09205
  Beta  occ. eigenvalues --  -10.08823 -10.08662 -10.07152 -10.06864 -10.05912
  Beta  occ. eigenvalues --   -0.93050  -0.82812  -0.79464  -0.67837  -0.63420
  Beta  occ. eigenvalues --   -0.57594  -0.56973  -0.53564  -0.48660  -0.44712
  Beta  occ. eigenvalues --   -0.41970  -0.40742  -0.39851  -0.36542  -0.35880
  Beta  occ. eigenvalues --   -0.33104  -0.31661  -0.30625  -0.29923  -0.28018
  Beta  occ. eigenvalues --   -0.27521  -0.26301  -0.24739  -0.24432  -0.24075
  Beta  occ. eigenvalues --   -0.23146  -0.21517  -0.17615  -0.13956  -0.12661
  Beta virt. eigenvalues --    0.06866   0.07893   0.08071   0.08420   0.09733
  Beta virt. eigenvalues --    0.09867   0.10237   0.11053   0.11307   0.12597
  Beta virt. eigenvalues --    0.12722   0.13176   0.13647   0.14224   0.15765

 Mulliken charges and spin densities:
               1          2
     1  C    0.174341  -0.613227
     2  C   -0.129128  -0.168446
     3  C   -0.098217  -0.185165
     4  N   -0.229664   0.113444
     5  C   -0.010937  -0.632492
     6  C   -0.439819   0.906666
     7  C    1.003124  -1.537171
     8  N   -0.255122  -0.063902
     9  C    0.717887  -1.120412
    10  O   -0.234882   0.005913
    11  H   -0.174407   0.334926
    12  H   -0.470005   0.617653
    13  H    0.002637   0.121648
    14  H    0.059244   0.069406
    15  H   -0.270647   0.406899
    16  H    0.132808   0.019511
    17  H   -0.037020   0.160340
    18  H    1.319123  -1.070884
    19  H    0.052724   0.101133
    20  H   -0.058875   0.316599
    21  H   -0.998015   1.149447
    22  H   -0.157692   0.310598
    23  H   -0.222808   0.508153
    24  H   -0.035946   0.195673
    25  H   -0.845694   0.995006
    26  H    0.206988   0.058682
 Sum of Mulliken charges =  -1.00000   1.00000

 Dipole moment (field-independent basis, Debye):
    X=             -4.0544    Y=              4.7540    Z=             -0.0641  Tot=              6.2484
 Quadrupole moment (field-independent basis, Debye-Ang):
   XX=           -143.3562   YY=           -108.3892   ZZ=            -91.7557
   XY=              6.6469   XZ=             -0.7868   YZ=             -1.4211

 Summary of Natural Population Analysis:

                                       Natural Population
                Natural  -----------------------------------------------
    Atom  No    Charge         Core      Valence    Rydberg      Total
 -----------------------------------------------------------------------
      C    1   -0.29056      0.99967     2.28547    0.00542     3.29056
      C    2   -0.19421      0.99964     2.18463    0.00994     3.19421
      C    3   -0.08251      0.99963     2.07388    0.00900     3.08251
      N    4   -0.36454      0.99970     2.85458    0.01025     3.86454
      C    5    0.15663      0.99957     1.82854    0.01526     2.84337
      C    6   -0.12802      0.99957     2.11434    0.01411     3.12802
      C    7   -0.08298      0.99964     2.07168    0.01166     3.08298
      N    8   -0.35294      0.99977     2.83905    0.01412     3.85294
      C    9   -0.08475      0.99964     2.07276    0.01235     3.08475
      O   10   -0.37837      0.99990     3.37246    0.00602     4.37837
      H   11    0.10025      0.00000     0.39846    0.00129     0.39975
      H   12    0.09927      0.00000     0.39950    0.00123     0.40073
      H   13    0.09594      0.00000     0.40291    0.00115     0.40406
      H   14    0.09543      0.00000     0.40332    0.00125     0.40457
      H   15    0.09444      0.00000     0.40446    0.00110     0.40556
      H   16    0.09463      0.00000     0.40374    0.00163     0.40537
      H   17    0.07627      0.00000     0.42228    0.00145     0.42373
      H   18    0.19642      0.00000     0.29817    0.00542     0.30358
      H   19    0.07109      0.00000     0.42694    0.00197     0.42891
      H   20    0.10608      0.00000     0.39264    0.00128     0.39392
      H   21    0.09330      0.00000     0.40238    0.00432     0.40670
      H   22    0.08681      0.00000     0.41160    0.00158     0.41319
      H   23    0.18174      0.00000     0.31195    0.00631     0.31826
      H   24    0.09048      0.00000     0.40776    0.00175     0.40952
      H   25    0.09147      0.00000     0.40553    0.00300     0.40853
      H   26    0.22863      0.00000     0.26836    0.00301     0.27137
 =======================================================================
   * Total *    0.00000      9.99672    29.85741    0.14587    40.00000

 Normal termination of Gaussian 16 at Tue Dec  8 13:45:42 2020.
