 Gaussian 16, Revision A.03,

 -----------------------------------------------------------
 # opt freq B3LYP/6-31G(d) empiricaldispersion=gd3bj scf=xqc
 -----------------------------------------------------------

 -------------------------------
 CID_147421580_JID_9644_neutraal
 -------------------------------
 Symbolic Z-matrix:
 Charge =  0 Multiplicity = 1

 SCF Done:  E(RB3LYP) =  -931.519977411     A.U. after   15 cycles
 SCF Done:  E(RB3LYP) =  -931.527020240     A.U. after   13 cycles
 SCF Done:  E(RB3LYP) =  -931.526677800     A.U. after   13 cycles
 SCF Done:  E(RB3LYP) =  -931.528727358     A.U. after   12 cycles
 SCF Done:  E(RB3LYP) =  -931.529761703     A.U. after   12 cycles
 SCF Done:  E(RB3LYP) =  -931.530436737     A.U. after   13 cycles
 SCF Done:  E(RB3LYP) =  -931.530701499     A.U. after   12 cycles
 SCF Done:  E(RB3LYP) =  -931.530912952     A.U. after   11 cycles
 SCF Done:  E(RB3LYP) =  -931.530970070     A.U. after   11 cycles
 SCF Done:  E(RB3LYP) =  -931.531012767     A.U. after   11 cycles
 SCF Done:  E(RB3LYP) =  -931.531112265     A.U. after    9 cycles
 SCF Done:  E(RB3LYP) =  -931.531112653     A.U. after    8 cycles
 SCF Done:  E(RB3LYP) =  -931.531112776     A.U. after    8 cycles
 SCF Done:  E(RB3LYP) =  -931.531112830     A.U. after    7 cycles
 SCF Done:  E(RB3LYP) =  -931.531112861     A.U. after    7 cycles
 Optimization completed.
    -- Stationary point found.
 Normal termination of Gaussian 16 at Sun Dec 13 20:39:07 2020.

 --------------------------------------------------------------------
 #N Geom=AllCheck Guess=TCheck SCRF=Check GenChk RB3LYP/6-31G(d) Freq
 --------------------------------------------------------------------

 Structure from the checkpoint file:  "JID_9644.chk"
 -------------------------------
 CID_147421580_JID_9644_neutraal
 -------------------------------
 Charge =  0 Multiplicity = 1

 SCF Done:  E(RB3LYP) =  -931.531112861     A.U. after    1 cycles

  Exact polarizability: 242.542  -0.063 154.055  -3.601  -6.421  87.728
 Approx polarizability: 318.724   6.477 253.798 -10.111 -19.453 135.283

                      1                      2                      3
                      A                      A                      A
 Frequencies --     21.4927                35.8933                38.8472
 Red. masses --      5.7981                 4.6627                 7.2033
 Frc consts  --      0.0016                 0.0035                 0.0064
 IR Inten    --      2.4377                 2.1739                 5.2577

                      4                      5                      6
                      A                      A                      A
 Frequencies --     56.1491                79.7319                82.6472
 Red. masses --      6.0557                 4.3673                 5.0204
 Frc consts  --      0.0112                 0.0164                 0.0202
 IR Inten    --      2.9527                 1.9045                 0.7091

                      7                      8                      9
                      A                      A                      A
 Frequencies --     89.9467               120.6902               136.4999
 Red. masses --      3.7921                 4.0512                 3.8528
 Frc consts  --      0.0181                 0.0348                 0.0423
 IR Inten    --      5.3231                 4.6715                 6.7635

                     10                     11                     12
                      A                      A                      A
 Frequencies --    188.0957               204.6148               227.9085
 Red. masses --      4.7471                 1.2783                 4.8580
 Frc consts  --      0.0990                 0.0315                 0.1487
 IR Inten    --      1.2315                55.4008                 9.6577

                     13                     14                     15
                      A                      A                      A
 Frequencies --    237.1537               255.3824               287.8383
 Red. masses --      2.7085                 5.0958                 4.8389
 Frc consts  --      0.0897                 0.1958                 0.2362
 IR Inten    --     20.9140                 4.0641                 2.8713

                     16                     17                     18
                      A                      A                      A
 Frequencies --    331.6021               371.9581               386.9764
 Red. masses --      4.4208                 4.5137                 5.8384
 Frc consts  --      0.2864                 0.3679                 0.5151
 IR Inten    --      5.6790                 1.7037                 3.0759

                     19                     20                     21
                      A                      A                      A
 Frequencies --    419.3985               431.9910               438.0384
 Red. masses --      3.9880                 3.6011                 3.3799
 Frc consts  --      0.4133                 0.3959                 0.3821
 IR Inten    --      1.3016                 1.6950                 2.8871

                     22                     23                     24
                      A                      A                      A
 Frequencies --    480.3518               488.4930               522.3820
 Red. masses --      1.6298                 2.1656                 2.5454
 Frc consts  --      0.2216                 0.3045                 0.4092
 IR Inten    --     70.5197                81.9020                26.2248

                     25                     26                     27
                      A                      A                      A
 Frequencies --    554.3403               586.9763               610.3977
 Red. masses --      2.2492                 2.0485                 4.2444
 Frc consts  --      0.4072                 0.4158                 0.9317
 IR Inten    --     17.9534                65.2927                35.4932

                     28                     29                     30
                      A                      A                      A
 Frequencies --    655.4022               688.3299               711.3155
 Red. masses --      5.5154                 4.6557                 4.0213
 Frc consts  --      1.3959                 1.2997                 1.1988
 IR Inten    --      9.8117                 3.3002                 4.8305

                     31                     32                     33
                      A                      A                      A
 Frequencies --    721.3973               731.4871               742.0739
 Red. masses --      4.8885                 4.3629                11.5639
 Frc consts  --      1.4989                 1.3754                 3.7519
 IR Inten    --     34.8131                11.2774                16.5436

                     34                     35                     36
                      A                      A                      A
 Frequencies --    786.8040               837.8732               846.5847
 Red. masses --      6.3836                 1.3192                 2.1601
 Frc consts  --      2.3284                 0.5457                 0.9121
 IR Inten    --      8.6010                 7.3383                13.2840

                     37                     38                     39
                      A                      A                      A
 Frequencies --    862.1946               863.5263               873.8398
 Red. masses --      1.3476                 2.4431                 2.2688
 Frc consts  --      0.5902                 1.0734                 1.0207
 IR Inten    --     97.1190                54.3757                34.2567

                     40                     41                     42
                      A                      A                      A
 Frequencies --    931.9834               967.4486               972.6883
 Red. masses --      4.0716                 1.5190                 1.3070
 Frc consts  --      2.0837                 0.8377                 0.7286
 IR Inten    --      4.1861                 1.3190                 1.1083

                     43                     44                     45
                      A                      A                      A
 Frequencies --    979.0089              1003.7840              1012.8502
 Red. masses --      1.3194                 4.7340                 1.7267
 Frc consts  --      0.7451                 2.8103                 1.0437
 IR Inten    --      7.4476                62.8610                62.7019

                     46                     47                     48
                      A                      A                      A
 Frequencies --   1045.1804              1066.7680              1072.7034
 Red. masses --      2.5090                 1.7161                 5.6232
 Frc consts  --      1.6149                 1.1506                 3.8124
 IR Inten    --      0.5076                 7.2960                56.8200

                     49                     50                     51
                      A                      A                      A
 Frequencies --   1080.5863              1100.3523              1153.6013
 Red. masses --      3.5897                 3.1416                 2.4836
 Frc consts  --      2.4696                 2.2411                 1.9473
 IR Inten    --     44.6486                37.0848               142.3838

                     52                     53                     54
                      A                      A                      A
 Frequencies --   1162.1321              1174.5941              1203.6542
 Red. masses --      1.7183                 2.1865                 1.1737
 Frc consts  --      1.3673                 1.7774                 1.0019
 IR Inten    --     17.4398               110.0977                13.3380

                     55                     56                     57
                      A                      A                      A
 Frequencies --   1208.6792              1232.5425              1241.8017
 Red. masses --      1.3486                 1.2092                 3.2301
 Frc consts  --      1.1608                 1.0823                 2.9347
 IR Inten    --      1.3084                28.4472               251.8072

                     58                     59                     60
                      A                      A                      A
 Frequencies --   1258.1534              1268.8650              1323.2128
 Red. masses --      1.3596                 2.1379                 1.2907
 Frc consts  --      1.2680                 2.0280                 1.3314
 IR Inten    --     11.2706                26.3156                11.3873

                     61                     62                     63
                      A                      A                      A
 Frequencies --   1343.2923              1355.4703              1363.6412
 Red. masses --      2.5953                 3.9055                 1.6367
 Frc consts  --      2.7592                 4.2277                 1.7932
 IR Inten    --     66.9791               134.5889                65.0692

                     64                     65                     66
                      A                      A                      A
 Frequencies --   1365.5272              1369.1610              1378.9781
 Red. masses --      1.3099                 1.3723                 1.5842
 Frc consts  --      1.4391                 1.5157                 1.7749
 IR Inten    --     11.0178                19.0847               186.0405

                     67                     68                     69
                      A                      A                      A
 Frequencies --   1415.8550              1435.1390              1451.5450
 Red. masses --      1.5997                 2.0238                 1.7642
 Frc consts  --      1.8894                 2.4558                 2.1901
 IR Inten    --    173.2508               133.4314                 2.3121

                     70                     71                     72
                      A                      A                      A
 Frequencies --   1453.9781              1467.0935              1502.9830
 Red. masses --      2.0162                 1.5944                 2.7585
 Frc consts  --      2.5113                 2.0219                 3.6714
 IR Inten    --     55.3848                22.6666                23.8842

                     73                     74                     75
                      A                      A                      A
 Frequencies --   1531.7471              1533.5642              1555.7740
 Red. masses --      1.0862                 1.0909                 1.1271
 Frc consts  --      1.5015                 1.5116                 1.6073
 IR Inten    --      7.6953                 8.9771                97.6318

                     76                     77                     78
                      A                      A                      A
 Frequencies --   1572.9394              1633.6500              1678.8652
 Red. masses --      2.4475                 6.4899                 5.6774
 Frc consts  --      3.5678                10.2049                 9.4282
 IR Inten    --    286.4158                 0.0762                 6.1152

                     79                     80                     81
                      A                      A                      A
 Frequencies --   1705.7423              1779.0094              1865.8095
 Red. masses --      1.0891                 8.1592                12.4752
 Frc consts  --      1.8670                15.2143                25.5877
 IR Inten    --     36.9690               529.3196               431.0041

                     82                     83                     84
                      A                      A                      A
 Frequencies --   2987.5609              3005.4460              3035.2560
 Red. masses --      1.0723                 1.0716                 1.0711
 Frc consts  --      5.6390                 5.7029                 5.8142
 IR Inten    --     47.8967                41.7935                45.5001

                     85                     86                     87
                      A                      A                      A
 Frequencies --   3083.2486              3110.2466              3115.9333
 Red. masses --      1.0857                 1.0920                 1.0940
 Frc consts  --      6.0813                 6.2239                 6.2583
 IR Inten    --     20.0368                21.5773                29.2949

                     88                     89                     90
                      A                      A                      A
 Frequencies --   3162.6101              3197.5403              3208.1120
 Red. masses --      1.0939                 1.0909                 1.0904
 Frc consts  --      6.4464                 6.5713                 6.6118
 IR Inten    --     21.9297                12.2212                 2.0168

                     91                     92                     93
                      A                      A                      A
 Frequencies --   3228.8801              3276.3232              3487.6005
 Red. masses --      1.0922                 1.0919                 1.0510
 Frc consts  --      6.7090                 6.9059                 7.5319
 IR Inten    --     10.1144                 5.3365                 0.5148

                     94                     95                     96
                      A                      A                      A
 Frequencies --   3562.4027              3572.9047              3706.7641
 Red. masses --      1.0752                 1.0920                 1.0656
 Frc consts  --      8.0391                 8.2132                 8.6265
 IR Inten    --     23.6829                 0.3441                29.2294

 - Thermochemistry -
 -------------------
 Temperature   298.150 Kelvin.  Pressure   1.00000 Atm.
 Atom     1 has atomic number  6 and mass  12.00000

 Molecular mass:   265.10626 amu.
 Principal axes and moments of inertia in atomic units:
                           1         2         3
     Eigenvalues --  2138.11987********************
           X            0.99991  -0.01303   0.00217
           Y            0.01302   0.99989   0.00778
           Z           -0.00227  -0.00775   0.99997
 This molecule is an asymmetric top.
 Rotational symmetry number  1.
 Warning -- assumption of classical behavior for rotation
           may cause significant error
 Rotational temperatures (Kelvin)      0.04051     0.00718     0.00627
 Rotational constants (GHZ):           0.84408     0.14954     0.13072
 Zero-point vibrational energy     723548.2 (Joules/Mol)
                                  172.93217 (Kcal/Mol)
 Warning -- explicit consideration of  27 degrees of freedom as
           vibrations may cause significant error
 Vibrational temperatures:     30.92    51.64    55.89    80.79   114.72
          (Kelvin)            118.91   129.41   173.65   196.39   270.63
                              294.40   327.91   341.21   367.44   414.14
                              477.10   535.16   556.77   603.42   621.54
                              630.24   691.12   702.83   751.59   797.57
                              844.53   878.23   942.98   990.35  1023.42
                             1037.93  1052.45  1067.68  1132.04  1205.51
                             1218.05  1240.51  1242.42  1257.26  1340.92
                             1391.94  1399.48  1408.58  1444.22  1457.27
                             1503.78  1534.84  1543.38  1554.72  1583.16
                             1659.78  1672.05  1689.98  1731.79  1739.02
                             1773.35  1786.68  1810.20  1825.61  1903.81
                             1932.70  1950.22  1961.98  1964.69  1969.92
                             1984.04  2037.10  2064.84  2088.45  2091.95
                             2110.82  2162.46  2203.84  2206.46  2238.41
                             2263.11  2350.46  2415.51  2454.18  2559.60
                             2684.48  4298.43  4324.17  4367.06  4436.11
                             4474.95  4483.13  4550.29  4600.55  4615.76
                             4645.64  4713.90  5017.88  5125.50  5140.61
                             5333.21

 Zero-point correction=                           0.275585 (Hartree/Particle)
 Thermal correction to Energy=                    0.293374
 Thermal correction to Enthalpy=                  0.294318
 Thermal correction to Gibbs Free Energy=         0.227274
 Sum of electronic and zero-point Energies=           -931.255528
 Sum of electronic and thermal Energies=              -931.237739
 Sum of electronic and thermal Enthalpies=            -931.236795
 Sum of electronic and thermal Free Energies=         -931.303839

                     E (Thermal)             CV                S
                      KCal/Mol        Cal/Mol-Kelvin    Cal/Mol-Kelvin
 Total                  184.095             66.069            141.107
 Electronic               0.000              0.000              0.000
 Translational            0.889              2.981             42.624
 Rotational               0.889              2.981             34.232
 Vibrational            182.318             60.107             64.251
 Vibration     1          0.593              1.985              6.491
 Vibration     2          0.594              1.982              5.474
 Vibration     3          0.594              1.981              5.317
 Vibration     4          0.596              1.975              4.588
 Vibration     5          0.600              1.963              3.897
 Vibration     6          0.600              1.961              3.827
 Vibration     7          0.602              1.956              3.661
 Vibration     8          0.609              1.932              3.089
 Vibration     9          0.614              1.917              2.852
 Vibration    10          0.633              1.856              2.247
 Vibration    11          0.640              1.833              2.091
 Vibration    12          0.651              1.798              1.895
 Vibration    13          0.656              1.784              1.824
 Vibration    14          0.666              1.754              1.693
 Vibration    15          0.685              1.696              1.487
 Vibration    16          0.714              1.612              1.252
 Vibration    17          0.744              1.530              1.072
 Vibration    18          0.755              1.498              1.012
 Vibration    19          0.782              1.428              0.894
 Vibration    20          0.793              1.401              0.852
 Vibration    21          0.798              1.387              0.833
 Vibration    22          0.837              1.294              0.709
 Vibration    23          0.844              1.276              0.688
 Vibration    24          0.877              1.200              0.604
 Vibration    25          0.910              1.130              0.535
 Vibration    26          0.944              1.060              0.473
 Vibration    27          0.969              1.010              0.432

                           ! Non-Optimized Parameters !
 Normal termination of Gaussian 16 at Sun Dec 13 20:53:07 2020.

 ----------------------------------------------------------------------
 # B3LYP/6-311++G(d,p) empiricaldispersion=gd3bj scf=xqc pop=npa geom=c
 heck
 ----------------------------------------------------------------------

 ---------------------------------------
 CID_147421580_JID_9644_Energie_neutraal
 ---------------------------------------
 Structure from the checkpoint file:  "JID_9644.chk"
 Charge =  0 Multiplicity = 1

 SCF Done:  E(RB3LYP) =  -931.814006297     A.U. after   16 cycles
 Normal termination of Gaussian 16 at Sun Dec 13 20:59:31 2020.

 ----------------------------------------------------------------------
 # B3LYP/6-311++G(d,p) empiricaldispersion=gd3bj scf=xqc pop=npa geom=c
 heck
 ----------------------------------------------------------------------

 -------------------------------------
 CID_147421580_JID_9644_Energie_kation
 -------------------------------------
 Structure from the checkpoint file:  "JID_9644.chk"
 Charge =  1 Multiplicity = 2

 SCF Done:  E(UB3LYP) =  -931.522991548     A.U. after   26 cycles
 Normal termination of Gaussian 16 at Sun Dec 13 21:14:32 2020.
 Gaussian 16:  ES64L-G16RevA.03 25-Dec-2016

 ----------------------------------------------------------------------
 # B3LYP/6-311++G(d,p) empiricaldispersion=gd3bj scf=xqc pop=npa geom=c
 heck
 ----------------------------------------------------------------------

 ------------------------------------
 CID_147421580_JID_9644_Energie_anion
 ------------------------------------
 Structure from the checkpoint file:  "JID_9644.chk"
 Charge = -1 Multiplicity = 2

                         Standard orientation:
 ---------------------------------------------------------------------
 Center     Atomic      Atomic             Coordinates (Angstroms)
 Number     Number       Type             X           Y           Z
 ---------------------------------------------------------------------
      1          6           0       -2.574309    0.777217   -0.370422
      2          6           0       -4.045940    0.334362   -0.364645
      3          8           0       -4.026204   -0.958877    0.268098
      4          6           0       -2.757913   -1.460559    0.296274
      5          8           0       -2.506788   -2.579369    0.674084
      6          7           0       -1.882609   -0.485839   -0.167428
      7          6           0       -0.477251   -0.591553   -0.201114
      8          6           0        0.292642    0.563548   -0.404055
      9          6           0        1.681137    0.493128   -0.476723
     10          6           0        2.332290   -0.731742   -0.306388
     11          6           0        1.565353   -1.884182   -0.104056
     12          6           0        0.178242   -1.827639   -0.063589
     13          7           0        3.745205   -0.839318   -0.381050
     14          6           0        4.691814    0.056513    0.044221
     15          8           0        5.847744    0.011498   -0.364371
     16          6           0        4.300493    1.135856    1.050592
     17          8           0        4.344578    2.405090    0.409215
     18          6           0       -4.983515    1.258155    0.399063
     19          7           0       -5.018800    2.561146   -0.269663
     20          1           0       -2.350001    1.480539    0.446398
     21          1           0       -2.292420    1.245627   -1.316674
     22          1           0       -4.412170    0.208956   -1.388854
     23          1           0       -0.181821    1.529946   -0.526132
     24          1           0        2.259129    1.392897   -0.662662
     25          1           0        2.064280   -2.840021    0.028996
     26          1           0       -0.401876   -2.724187    0.098787
     27          1           0        4.125172   -1.552820   -0.994781
     28          1           0        3.295673    1.015074    1.454155
     29          1           0        5.025044    1.074680    1.875005
     30          1           0        5.208134    2.440835   -0.037630
     31          1           0       -5.986693    0.821970    0.374788
     32          1           0       -4.666377    1.284960    1.455242
     33          1           0       -5.855042    3.071364    0.001919
     34          1           0       -4.230502    3.132895    0.027282
 ---------------------------------------------------------------------

 SCF Done:  E(UB3LYP) =  -931.814492832     A.U. after   33 cycles
 SCF Done:  E(UB3LYP) =  -931.814492832     a.u. after    1 cycles

 The electronic state is 2-A.
 Alpha  occ. eigenvalues --  -19.07877 -19.04910 -19.01487 -19.00324 -14.27702
 Alpha  occ. eigenvalues --  -14.26149 -14.20645 -10.23557 -10.18008 -10.15439
 Alpha  occ. eigenvalues --  -10.14029 -10.13477 -10.12995 -10.12190 -10.11292
 Alpha  occ. eigenvalues --  -10.08863 -10.08851 -10.08737 -10.08463  -1.03333
 Alpha  occ. eigenvalues --   -0.96536  -0.94404  -0.93875  -0.87507  -0.85103
 Alpha  occ. eigenvalues --   -0.80112  -0.76060  -0.69257  -0.66861  -0.66275
 Alpha  occ. eigenvalues --   -0.63382  -0.60499  -0.56771  -0.54058  -0.52203
 Alpha  occ. eigenvalues --   -0.50737  -0.48704  -0.45799  -0.45598  -0.43970
 Alpha  occ. eigenvalues --   -0.43754  -0.40787  -0.39492  -0.39129  -0.38013
 Alpha  occ. eigenvalues --   -0.37178  -0.36213  -0.35470  -0.34731  -0.34462
 Alpha  occ. eigenvalues --   -0.33989  -0.33758  -0.33562  -0.32242  -0.31904
 Alpha  occ. eigenvalues --   -0.30953  -0.29430  -0.29045  -0.26990  -0.26671
 Alpha  occ. eigenvalues --   -0.26355  -0.23284  -0.21675  -0.21441  -0.20023
 Alpha  occ. eigenvalues --   -0.18845  -0.17337  -0.17208  -0.16239  -0.12771
 Alpha  occ. eigenvalues --    0.03454
 Alpha virt. eigenvalues --    0.04840   0.06695   0.06832   0.07112   0.07325
 Alpha virt. eigenvalues --    0.07942   0.08499   0.08865   0.09043   0.10027
 Alpha virt. eigenvalues --    0.10304   0.10905   0.11358   0.11838   0.12680

  Beta  occ. eigenvalues --  -19.07871 -19.04885 -19.01469 -19.00199 -14.27711
  Beta  occ. eigenvalues --  -14.26186 -14.20569 -10.23526 -10.17864 -10.15436
  Beta  occ. eigenvalues --  -10.14034 -10.13447 -10.12873 -10.12076 -10.11270
  Beta  occ. eigenvalues --  -10.08848 -10.08812 -10.08724 -10.08481  -1.03303
  Beta  occ. eigenvalues --   -0.96374  -0.94374  -0.93749  -0.87457  -0.85003
  Beta  occ. eigenvalues --   -0.80002  -0.75968  -0.69186  -0.66747  -0.66138
  Beta  occ. eigenvalues --   -0.63268  -0.60419  -0.56655  -0.53979  -0.52137
  Beta  occ. eigenvalues --   -0.50605  -0.48615  -0.45742  -0.45554  -0.43907
  Beta  occ. eigenvalues --   -0.43677  -0.40729  -0.39322  -0.39038  -0.37934
  Beta  occ. eigenvalues --   -0.37096  -0.36153  -0.35389  -0.34677  -0.34383
  Beta  occ. eigenvalues --   -0.33841  -0.33678  -0.33515  -0.32140  -0.31640
  Beta  occ. eigenvalues --   -0.30860  -0.29301  -0.28897  -0.26867  -0.26549
  Beta  occ. eigenvalues --   -0.26314  -0.22899  -0.21618  -0.21380  -0.19999
  Beta  occ. eigenvalues --   -0.18693  -0.17147  -0.17080  -0.16165  -0.12428
  Beta virt. eigenvalues --    0.05965   0.06333   0.06833   0.07091   0.07264
  Beta virt. eigenvalues --    0.07936   0.08199   0.08640   0.09030   0.09402
  Beta virt. eigenvalues --    0.10243   0.10510   0.11199   0.11571   0.11919

 Mulliken charges and spin densities:
               1          2
     1  C    0.194964  -0.470935
     2  C   -0.942072   0.502565
     3  O   -0.059558   0.009519
     4  C    0.365251  -0.001917
     5  O   -0.360478   0.006537
     6  N   -0.019388   0.012457
     7  C   -0.010438  -0.081792
     8  C    0.555467  -0.059228
     9  C    0.298780  -0.169568
    10  C   -0.088906  -0.415898
    11  C   -0.741534   0.321513
    12  C   -0.317205  -0.017087
    13  N   -0.137337  -0.021674
    14  C    0.088640   0.057467
    15  O   -0.384318   0.050747
    16  C   -0.284925  -0.126171
    17  O   -0.227075   0.007387
    18  C    0.863459  -1.264920
    19  N   -0.246715  -0.116602
    20  H   -0.029281   0.244199
    21  H    0.063495   0.140013
    22  H    0.152580   0.060972
    23  H   -0.184950   0.371942
    24  H    0.151630   0.099274
    25  H    0.092177   0.071606
    26  H    0.232989   0.011324
    27  H    0.207164   0.082240
    28  H    0.201611  -0.009787
    29  H    0.089061   0.076462
    30  H    0.227661   0.024774
    31  H   -0.069512   0.250221
    32  H   -0.114905   0.283803
    33  H   -0.316316   0.590513
    34  H   -0.250019   0.480045
 Sum of Mulliken charges =  -1.00000   1.00000

 Dipole moment (field-independent basis, Debye):
    X=              4.3469    Y=             -4.6085    Z=             -0.6492  Tot=              6.3683
 Quadrupole moment (field-independent basis, Debye-Ang):
   XX=           -236.2117   YY=           -166.3923   ZZ=           -130.1205
   XY=             19.0922   XZ=              7.7123   YZ=              1.9880

 Summary of Natural Population Analysis:

                                       Natural Population
                Natural  -----------------------------------------------
    Atom  No    Charge         Core      Valence    Rydberg      Total
 -----------------------------------------------------------------------
      C    1   -0.09403      0.99962     2.08346    0.01095     3.09403
      C    2    0.06265      0.99955     1.92381    0.01399     2.93735
      O    3   -0.27899      0.99986     3.27198    0.00715     4.27899
      C    4    0.47021      0.99969     1.50438    0.02573     2.52979
      O    5   -0.31209      0.99986     3.30674    0.00549     4.31209
      N    6   -0.25136      0.99960     2.74427    0.00748     3.75136
      C    7    0.09683      0.99949     1.89210    0.01158     2.90317
      C    8   -0.12344      0.99957     2.11202    0.01185     3.12344
      C    9   -0.08550      0.99953     2.08065    0.00532     3.08550
      C   10    0.06681      0.99948     1.92128    0.01243     2.93319
      C   11   -0.09569      0.99953     2.08758    0.00858     3.09569
      C   12   -0.11224      0.99954     2.10449    0.00822     3.11224
      N   13   -0.31529      0.99964     2.80548    0.01017     3.81529
      C   14    0.34575      0.99970     1.63206    0.02249     2.65425
      O   15   -0.32065      0.99988     3.31389    0.00688     4.32065
      C   16   -0.05220      0.99958     2.04098    0.01164     3.05220
      O   17   -0.36319      0.99990     3.35660    0.00668     4.36319
      C   18   -0.09657      0.99961     2.08363    0.01333     3.09657
      N   19   -0.42623      0.99977     2.91565    0.01081     3.92623
      H   20    0.09747      0.00000     0.40079    0.00175     0.40253
      H   21    0.10594      0.00000     0.39259    0.00147     0.39406
      H   22    0.09060      0.00000     0.40793    0.00147     0.40940
      H   23    0.10500      0.00000     0.39314    0.00187     0.39500
      H   24    0.10907      0.00000     0.38865    0.00229     0.39093
      H   25    0.10056      0.00000     0.39855    0.00089     0.39944
      H   26    0.12101      0.00000     0.37788    0.00111     0.37899
      H   27    0.19590      0.00000     0.30098    0.00312     0.30410
      H   28    0.09615      0.00000     0.40259    0.00127     0.40385
      H   29    0.08621      0.00000     0.41230    0.00148     0.41379
      H   30    0.23133      0.00000     0.26541    0.00326     0.26867
      H   31    0.09703      0.00000     0.40175    0.00122     0.40297
      H   32    0.08501      0.00000     0.41323    0.00176     0.41499
      H   33    0.18385      0.00000     0.31098    0.00517     0.31615
      H   34    0.18013      0.00000     0.31282    0.00704     0.31987
 =======================================================================
   * Total *    0.00004     18.99340    50.76062    0.24594    69.99996

 Normal termination of Gaussian 16 at Sun Dec 13 21:34:00 2020.
