 Gaussian 16, Revision A.03,

 -----------------------------------------------------------
 # opt freq B3LYP/6-31G(d) empiricaldispersion=gd3bj scf=xqc
 -----------------------------------------------------------

 -------------------------------
 CID_145532883_JID_4480_neutraal
 -------------------------------
 Symbolic Z-matrix:
 Charge =  0 Multiplicity = 1

 SCF Done:  E(RB3LYP) =  -1355.98917862     A.U. after   14 cycles
 SCF Done:  E(RB3LYP) =  -1355.99460479     A.U. after   13 cycles
 SCF Done:  E(RB3LYP) =  -1355.99454607     A.U. after   13 cycles
 SCF Done:  E(RB3LYP) =  -1355.99615929     A.U. after   13 cycles
 SCF Done:  E(RB3LYP) =  -1355.99659448     A.U. after   13 cycles
 SCF Done:  E(RB3LYP) =  -1355.99680113     A.U. after   12 cycles
 SCF Done:  E(RB3LYP) =  -1355.99692008     A.U. after   12 cycles
 SCF Done:  E(RB3LYP) =  -1355.99701460     A.U. after   11 cycles
 SCF Done:  E(RB3LYP) =  -1355.99713125     A.U. after   10 cycles
 SCF Done:  E(RB3LYP) =  -1355.99727248     A.U. after   11 cycles
 SCF Done:  E(RB3LYP) =  -1355.99749940     A.U. after   10 cycles
 SCF Done:  E(RB3LYP) =  -1355.99750172     A.U. after    9 cycles
 SCF Done:  E(RB3LYP) =  -1355.99750241     A.U. after    9 cycles
 SCF Done:  E(RB3LYP) =  -1355.99750246     A.U. after    8 cycles
 SCF Done:  E(RB3LYP) =  -1355.99750244     A.U. after    8 cycles
 SCF Done:  E(RB3LYP) =  -1355.99750247     A.U. after    7 cycles
 Optimization completed.
    -- Stationary point found.
 Normal termination of Gaussian 16 at Thu Dec 10 10:01:43 2020.

 --------------------------------------------------------------------
 #N Geom=AllCheck Guess=TCheck SCRF=Check GenChk RB3LYP/6-31G(d) Freq
 --------------------------------------------------------------------

 Structure from the checkpoint file:  "JID_4480.chk"
 -------------------------------
 CID_145532883_JID_4480_neutraal
 -------------------------------
 Charge =  0 Multiplicity = 1

 SCF Done:  E(RB3LYP) =  -1355.99750247     A.U. after    1 cycles

  Exact polarizability: 170.244   4.263 143.928   3.882   7.070 110.508
 Approx polarizability: 215.648   7.050 207.172  11.226  19.933 180.560

                      1                      2                      3
                      A                      A                      A
 Frequencies --     24.0278                26.9573                46.6486
 Red. masses --      5.2431                 5.0111                 3.9237
 Frc consts  --      0.0018                 0.0021                 0.0050
 IR Inten    --      0.9949                 0.2077                 3.0422

                      4                      5                      6
                      A                      A                      A
 Frequencies --     48.5230                61.5955                85.5985
 Red. masses --      5.7365                 3.8528                 4.2907
 Frc consts  --      0.0080                 0.0086                 0.0185
 IR Inten    --      0.4334                 1.1562                 0.5929

                      7                      8                      9
                      A                      A                      A
 Frequencies --     97.0252               118.6219               151.9517
 Red. masses --      5.4070                 2.2881                 1.7757
 Frc consts  --      0.0300                 0.0190                 0.0242
 IR Inten    --      2.7906                 0.5541                 0.9467

                     10                     11                     12
                      A                      A                      A
 Frequencies --    168.6495               194.1714               202.6905
 Red. masses --      3.3887                 1.8632                 2.8244
 Frc consts  --      0.0568                 0.0414                 0.0684
 IR Inten    --      1.6293                 0.7084                 0.4179

                     13                     14                     15
                      A                      A                      A
 Frequencies --    246.0701               252.0195               261.4810
 Red. masses --      2.2083                 2.0769                 1.3445
 Frc consts  --      0.0788                 0.0777                 0.0542
 IR Inten    --      2.9082                 4.0867                 7.1746

                     16                     17                     18
                      A                      A                      A
 Frequencies --    282.1813               289.1661               318.5396
 Red. masses --      1.9782                 1.7274                 3.8985
 Frc consts  --      0.0928                 0.0851                 0.2331
 IR Inten    --      0.9803                12.3789                 4.2338

                     19                     20                     21
                      A                      A                      A
 Frequencies --    351.3323               367.5450               377.6169
 Red. masses --      3.5117                 2.1740                 2.8996
 Frc consts  --      0.2554                 0.1730                 0.2436
 IR Inten    --      6.0153                 1.1705                 4.0180

                     22                     23                     24
                      A                      A                      A
 Frequencies --    454.8938               497.2924               562.2388
 Red. masses --      2.5953                 2.9765                 3.1171
 Frc consts  --      0.3164                 0.4337                 0.5806
 IR Inten    --      1.8889                 4.1981                 9.3865

                     25                     26                     27
                      A                      A                      A
 Frequencies --    627.7853               653.9665               673.4670
 Red. masses --      4.2926                 3.9094                 4.9715
 Frc consts  --      0.9968                 0.9851                 1.3285
 IR Inten    --      5.4028                 1.6118                 8.1689

                     28                     29                     30
                      A                      A                      A
 Frequencies --    701.4354               729.9706               769.7903
 Red. masses --      4.3899                 3.1036                 1.1908
 Frc consts  --      1.2726                 0.9744                 0.4157
 IR Inten    --      2.9445                16.9187                 8.6175

                     31                     32                     33
                      A                      A                      A
 Frequencies --    793.4353               795.0199               834.5392
 Red. masses --      1.5454                 1.4474                 1.8766
 Frc consts  --      0.5732                 0.5390                 0.7701
 IR Inten    --     14.8144                 2.8205                22.6307

                     34                     35                     36
                      A                      A                      A
 Frequencies --    856.1543               870.3189               908.5920
 Red. masses --      4.3891                 2.2511                 2.1370
 Frc consts  --      1.8955                 1.0046                 1.0394
 IR Inten    --     14.1448                11.6006                26.0992

                     37                     38                     39
                      A                      A                      A
 Frequencies --    974.2812               982.3216               991.7337
 Red. masses --      2.1668                 1.7731                 1.9007
 Frc consts  --      1.2118                 1.0081                 1.1014
 IR Inten    --     13.9358                 5.9413                14.4909

                     40                     41                     42
                      A                      A                      A
 Frequencies --    998.6109              1031.9404              1037.9726
 Red. masses --      1.8610                 2.5644                 2.4448
 Frc consts  --      1.0934                 1.6090                 1.5519
 IR Inten    --     48.0139                27.9560                 7.2632

                     43                     44                     45
                      A                      A                      A
 Frequencies --   1060.0732              1067.6539              1079.0461
 Red. masses --      1.6807                 1.6286                 1.9335
 Frc consts  --      1.1128                 1.0938                 1.3264
 IR Inten    --     12.3944                 1.5824                 1.7744

                     46                     47                     48
                      A                      A                      A
 Frequencies --   1105.7355              1132.2735              1157.9458
 Red. masses --      1.5727                 1.4627                 1.4256
 Frc consts  --      1.1329                 1.1049                 1.1262
 IR Inten    --     13.5928                20.3847                78.5638

                     49                     50                     51
                      A                      A                      A
 Frequencies --   1212.5706              1225.8208              1243.9238
 Red. masses --      2.4414                 1.4359                 1.2633
 Frc consts  --      2.1149                 1.2713                 1.1517
 IR Inten    --     15.3788                83.3396                 6.3082

                     52                     53                     54
                      A                      A                      A
 Frequencies --   1282.5036              1296.1586              1299.4382
 Red. masses --      1.3272                 1.1864                 1.5228
 Frc consts  --      1.2862                 1.1744                 1.5150
 IR Inten    --      6.1679                 1.6171                91.8326

                     55                     56                     57
                      A                      A                      A
 Frequencies --   1318.7048              1334.5084              1342.2016
 Red. masses --      1.2691                 1.2840                 1.2327
 Frc consts  --      1.3003                 1.3473                 1.3084
 IR Inten    --     33.7144                10.8545                25.1691

                     58                     59                     60
                      A                      A                      A
 Frequencies --   1350.1051              1369.6836              1391.2670
 Red. masses --      1.2590                 1.4984                 1.3344
 Frc consts  --      1.3521                 1.6562                 1.5218
 IR Inten    --      9.0658                16.9353                15.8657

                     61                     62                     63
                      A                      A                      A
 Frequencies --   1415.7064              1440.7170              1443.6663
 Red. masses --      1.4920                 1.2242                 1.2382
 Frc consts  --      1.7619                 1.4972                 1.5205
 IR Inten    --      1.6691                 4.5410                 3.3145

                     64                     65                     66
                      A                      A                      A
 Frequencies --   1489.3777              1497.0467              1502.0290
 Red. masses --      1.0820                 1.0950                 1.0829
 Frc consts  --      1.4141                 1.4459                 1.4394
 IR Inten    --      6.8281                10.2462                 1.9406

                     67                     68                     69
                      A                      A                      A
 Frequencies --   1510.9613              1521.6065              1526.9070
 Red. masses --      1.0797                 1.0428                 1.0515
 Frc consts  --      1.4523                 1.4225                 1.4444
 IR Inten    --      7.4698                 7.7766                 2.7735

                     70                     71                     72
                      A                      A                      A
 Frequencies --   1529.6051              1533.5659              1538.6791
 Red. masses --      1.0527                 1.0524                 1.1323
 Frc consts  --      1.4511                 1.4583                 1.5795
 IR Inten    --      3.0709                 8.7431                19.6303

                     73                     74                     75
                      A                      A                      A
 Frequencies --   1540.7567              1844.3930              2705.8117
 Red. masses --      1.0667                11.2180                 1.0376
 Frc consts  --      1.4919                22.4839                 4.4758
 IR Inten    --      2.8495               214.6806                 1.4918

                     76                     77                     78
                      A                      A                      A
 Frequencies --   3047.2920              3051.8300              3053.7152
 Red. masses --      1.0649                 1.0372                 1.0366
 Frc consts  --      5.8262                 5.6918                 5.6954
 IR Inten    --     11.9434                22.6650                24.2381

                     79                     80                     81
                      A                      A                      A
 Frequencies --   3077.2232              3079.2012              3083.5575
 Red. masses --      1.0617                 1.0610                 1.0589
 Frc consts  --      5.9236                 5.9272                 5.9322
 IR Inten    --     16.4697                13.3295                 7.3309

                     82                     83                     84
                      A                      A                      A
 Frequencies --   3085.3376              3095.2030              3103.4038
 Red. masses --      1.0825                 1.0906                 1.0684
 Frc consts  --      6.0711                 6.1560                 6.0628
 IR Inten    --      2.2187                 3.2570                15.0281

                     85                     86                     87
                      A                      A                      A
 Frequencies --   3113.5613              3120.6885              3122.4447
 Red. masses --      1.0986                 1.1029                 1.1029
 Frc consts  --      6.2747                 6.3283                 6.3356
 IR Inten    --     32.0506                45.8871                 7.4491

                     88                     89                     90
                      A                      A                      A
 Frequencies --   3124.7133              3129.5055              3137.5398
 Red. masses --      1.1011                 1.1042                 1.1065
 Frc consts  --      6.3344                 6.3713                 6.4175
 IR Inten    --     40.9125                 9.5433                 6.9031

                     91                     92                     93
                      A                      A                      A
 Frequencies --   3143.3010              3145.9579              3440.9384
 Red. masses --      1.1042                 1.1046                 1.0744
 Frc consts  --      6.4279                 6.4409                 7.4949
 IR Inten    --     19.5728                13.8729                 9.1941

 - Thermochemistry -
 -------------------
 Temperature   298.150 Kelvin.  Pressure   1.00000 Atm.
 Atom     1 has atomic number  6 and mass  12.00000

 Molecular mass:   237.08572 amu.
 Principal axes and moments of inertia in atomic units:
                           1         2         3
     Eigenvalues --  2622.359585426.956117274.32103
           X            0.99998  -0.00263  -0.00628
           Y            0.00261   0.99999  -0.00265
           Z            0.00629   0.00264   0.99998
 This molecule is an asymmetric top.
 Rotational symmetry number  1.
 Warning -- assumption of classical behavior for rotation
           may cause significant error
 Rotational temperatures (Kelvin)      0.03303     0.01596     0.01191
 Rotational constants (GHZ):           0.68821     0.33255     0.24810
 Zero-point vibrational energy     736804.1 (Joules/Mol)
                                  176.10041 (Kcal/Mol)
 Warning -- explicit consideration of  24 degrees of freedom as
           vibrations may cause significant error
 Vibrational temperatures:     34.57    38.79    67.12    69.81    88.62
          (Kelvin)            123.16   139.60   170.67   218.62   242.65
                              279.37   291.63   354.04   362.60   376.21
                              406.00   416.05   458.31   505.49   528.82
                              543.31   654.49   715.49   808.94   903.24
                              940.91   968.97  1009.21  1050.26  1107.56
                             1141.58  1143.86  1200.72  1231.82  1252.19
                             1307.26  1401.77  1413.34  1426.88  1436.78
                             1484.73  1493.41  1525.21  1536.12  1552.51
                             1590.91  1629.09  1666.03  1744.62  1763.68
                             1789.73  1845.24  1864.88  1869.60  1897.32
                             1920.06  1931.13  1942.50  1970.67  2001.72
                             2036.89  2072.87  2077.11  2142.88  2153.92
                             2161.08  2173.94  2189.25  2196.88  2200.76
                             2206.46  2213.82  2216.81  2653.67  3893.06
                             4384.37  4390.90  4393.62  4427.44  4430.28
                             4436.55  4439.11  4453.31  4465.11  4479.72
                             4489.97  4492.50  4495.77  4502.66  4514.22
                             4522.51  4526.33  4950.74

 Zero-point correction=                           0.280634 (Hartree/Particle)
 Thermal correction to Energy=                    0.298413
 Thermal correction to Enthalpy=                  0.299357
 Thermal correction to Gibbs Free Energy=         0.232486
 Sum of electronic and zero-point Energies=          -1355.716869
 Sum of electronic and thermal Energies=             -1355.699089
 Sum of electronic and thermal Enthalpies=           -1355.698145
 Sum of electronic and thermal Free Energies=        -1355.765017

                     E (Thermal)             CV                S
                      KCal/Mol        Cal/Mol-Kelvin    Cal/Mol-Kelvin
 Total                  187.257             63.129            140.744
 Electronic               0.000              0.000              0.000
 Translational            0.889              2.981             42.291
 Rotational               0.889              2.981             33.004
 Vibrational            185.480             57.167             65.449
 Vibration     1          0.593              1.985              6.270
 Vibration     2          0.593              1.984              6.042
 Vibration     3          0.595              1.979              4.955
 Vibration     4          0.595              1.978              4.877
 Vibration     5          0.597              1.973              4.405
 Vibration     6          0.601              1.959              3.758
 Vibration     7          0.603              1.951              3.513
 Vibration     8          0.609              1.934              3.123
 Vibration     9          0.619              1.901              2.648
 Vibration    10          0.625              1.881              2.450
 Vibration    11          0.635              1.848              2.188
 Vibration    12          0.639              1.836              2.109
 Vibration    13          0.661              1.769              1.759
 Vibration    14          0.664              1.759              1.716
 Vibration    15          0.669              1.743              1.652
 Vibration    16          0.681              1.707              1.520
 Vibration    17          0.686              1.694              1.479
 Vibration    18          0.705              1.638              1.318
 Vibration    19          0.728              1.573              1.160
 Vibration    20          0.740              1.539              1.090
 Vibration    21          0.748              1.518              1.049
 Vibration    22          0.813              1.350              0.781
 Vibration    23          0.853              1.256              0.665
 Vibration    24          0.918              1.113              0.519

 Optimization completed.
    -- Stationary point found.
 Normal termination of Gaussian 16 at Thu Dec 10 10:11:22 2020.

 ----------------------------------------------------------------------
 # B3LYP/6-311++G(d,p) empiricaldispersion=gd3bj scf=xqc pop=npa geom=c
 heck
 ----------------------------------------------------------------------

 ---------------------------------------
 CID_145532883_JID_4480_Energie_neutraal
 ---------------------------------------
 Structure from the checkpoint file:  "JID_4480.chk"
 Charge =  0 Multiplicity = 1

 SCF Done:  E(RB3LYP) =  -1356.22161024     A.U. after   15 cycles
 Normal termination of Gaussian 16 at Thu Dec 10 10:16:17 2020.

 ----------------------------------------------------------------------
 # B3LYP/6-311++G(d,p) empiricaldispersion=gd3bj scf=xqc pop=npa geom=c
 heck
 ----------------------------------------------------------------------

 -------------------------------------
 CID_145532883_JID_4480_Energie_kation
 -------------------------------------
 Structure from the checkpoint file:  "JID_4480.chk"
 Charge =  1 Multiplicity = 2

 SCF Done:  E(UB3LYP) =  -1355.91886371     A.U. after   25 cycles
 Normal termination of Gaussian 16 at Thu Dec 10 10:29:17 2020.
 Gaussian 16:  ES64L-G16RevA.03 25-Dec-2016

 ----------------------------------------------------------------------
 # B3LYP/6-311++G(d,p) empiricaldispersion=gd3bj scf=xqc pop=npa geom=c
 heck
 ----------------------------------------------------------------------

 ------------------------------------
 CID_145532883_JID_4480_Energie_anion
 ------------------------------------
 Structure from the checkpoint file:  "JID_4480.chk"
 Charge = -1 Multiplicity = 2

                         Standard orientation:
 ---------------------------------------------------------------------
 Center     Atomic      Atomic             Coordinates (Angstroms)
 Number     Number       Type             X           Y           Z
 ---------------------------------------------------------------------
      1          6           0       -3.017590    2.214841    0.894846
      2          6           0       -2.041188    2.048820   -0.272254
      3          6           0       -0.747022    1.315512    0.105964
      4          6           0       -0.947140   -0.132016    0.590875
      5         16           0       -1.505927   -1.305674   -0.708402
      6          6           0       -3.332034   -1.321605   -0.485596
      7          6           0       -3.798622   -1.976684    0.810972
      8          7           0        0.131197    1.437748   -1.071835
      9          8           0        1.354027    0.666687   -0.867656
     10          6           0        2.295685    1.319250   -0.133746
     11          8           0        2.125549    2.382593    0.411392
     12          6           0        3.555177    0.476935   -0.039079
     13          6           0        3.380576   -0.747185    0.879839
     14         16           0        2.610868   -2.228180    0.105337
     15          1           0       -3.399423    1.254108    1.256994
     16          1           0       -3.880652    2.816122    0.591017
     17          1           0       -2.537999    2.722498    1.739648
     18          1           0       -2.529468    1.518911   -1.100920
     19          1           0       -1.756996    3.033823   -0.657570
     20          1           0       -0.257210    1.871317    0.912417
     21          1           0        0.001497   -0.534012    0.953637
     22          1           0       -1.641655   -0.165413    1.433833
     23          1           0       -3.720775   -0.303987   -0.578648
     24          1           0       -3.694949   -1.884923   -1.351450
     25          1           0       -3.442369   -1.431153    1.691288
     26          1           0       -4.894547   -1.991371    0.853260
     27          1           0       -3.433043   -3.005195    0.882497
     28          1           0       -0.287771    0.865852   -1.810414
     29          1           0        3.871962    0.152308   -1.034863
     30          1           0        4.322627    1.133459    0.380479
     31          1           0        4.365965   -1.097854    1.198400
     32          1           0        2.830853   -0.467359    1.783933
     33          1           0        1.562866   -1.591153   -0.452484
 ---------------------------------------------------------------------

 SCF Done:  E(UB3LYP) =  -1356.21078782     A.U. after   32 cycles

 The electronic state is 2-A.
 Alpha  occ. eigenvalues --  -88.75158 -88.74988 -19.10526 -19.02637 -14.27928
 Alpha  occ. eigenvalues --  -10.21473 -10.12180 -10.12137 -10.11181 -10.11067
 Alpha  occ. eigenvalues --  -10.10483 -10.08743 -10.07581 -10.07505  -7.83776
 Alpha  occ. eigenvalues --   -7.83673  -5.80169  -5.80048  -5.79790  -5.79698
 Alpha  occ. eigenvalues --   -5.79162  -5.79058  -1.03726  -0.94859  -0.80396
 Alpha  occ. eigenvalues --   -0.72964  -0.71669  -0.69058  -0.65638  -0.63857
 Alpha  occ. eigenvalues --   -0.59812  -0.56505  -0.54028  -0.51498  -0.49218
 Alpha  occ. eigenvalues --   -0.46627  -0.42392  -0.41668  -0.40619  -0.39190
 Alpha  occ. eigenvalues --   -0.37789  -0.36452  -0.35303  -0.35076  -0.34870
 Alpha  occ. eigenvalues --   -0.32969  -0.32656  -0.32137  -0.31415  -0.30544
 Alpha  occ. eigenvalues --   -0.29692  -0.28674  -0.28019  -0.27294  -0.26537
 Alpha  occ. eigenvalues --   -0.25840  -0.24401  -0.24259  -0.23546  -0.21602
 Alpha  occ. eigenvalues --   -0.19308  -0.17567  -0.15073  -0.14287   0.03979
 Alpha virt. eigenvalues --    0.05215   0.06809   0.07182   0.08135   0.08282
 Alpha virt. eigenvalues --    0.08546   0.09127   0.09562   0.09812   0.10337
 Alpha virt. eigenvalues --    0.10638   0.10653   0.11005   0.11504   0.12393

  Beta  occ. eigenvalues --  -88.75156 -88.74984 -19.10507 -19.02595 -14.27921
  Beta  occ. eigenvalues --  -10.21438 -10.12178 -10.12078 -10.11158 -10.11051
  Beta  occ. eigenvalues --  -10.10471 -10.08736 -10.07543 -10.07462  -7.83775
  Beta  occ. eigenvalues --   -7.83668  -5.80168  -5.80037  -5.79787  -5.79695
  Beta  occ. eigenvalues --   -5.79160  -5.79056  -1.03680  -0.94795  -0.80372
  Beta  occ. eigenvalues --   -0.72919  -0.71629  -0.69026  -0.65598  -0.63805
  Beta  occ. eigenvalues --   -0.59768  -0.56441  -0.53929  -0.51436  -0.49161
  Beta  occ. eigenvalues --   -0.46578  -0.42351  -0.41609  -0.40570  -0.39159
  Beta  occ. eigenvalues --   -0.37742  -0.36394  -0.35254  -0.35034  -0.34812
  Beta  occ. eigenvalues --   -0.32941  -0.32582  -0.32102  -0.31364  -0.30483
  Beta  occ. eigenvalues --   -0.29634  -0.28622  -0.27979  -0.27240  -0.26476
  Beta  occ. eigenvalues --   -0.25809  -0.24372  -0.24201  -0.23458  -0.21571
  Beta  occ. eigenvalues --   -0.19267  -0.17537  -0.15053  -0.14273
  Beta virt. eigenvalues --    0.06224   0.06462   0.07267   0.07647   0.08357
  Beta virt. eigenvalues --    0.08647   0.08992   0.09497   0.09702   0.09980
  Beta virt. eigenvalues --    0.10608   0.10814   0.11097   0.11247   0.11876

 Mulliken charges and spin densities:
               1          2
     1  C    0.857730  -1.479617
     2  C   -1.021517   0.877083
     3  C   -1.177484   0.117120
     4  C    0.858961  -0.554338
     5  S    0.125460  -0.217161
     6  C   -0.941754   0.540361
     7  C    1.184081  -1.636889
     8  N   -0.123943  -0.024569
     9  O    0.147427   0.020107
    10  C    0.599539  -0.528296
    11  O   -0.263871   0.030598
    12  C   -0.875323   0.527051
    13  C    0.830954  -1.118156
    14  S    0.023559  -0.011069
    15  H   -0.002895   0.152136
    16  H   -0.426601   0.576766
    17  H   -0.046932   0.190934
    18  H    0.004399   0.145047
    19  H    0.157330   0.035123
    20  H    0.145082   0.072405
    21  H    0.548921  -0.314061
    22  H   -0.133430   0.275479
    23  H    0.042492   0.124011
    24  H   -0.309707   0.509754
    25  H   -0.211029   0.342467
    26  H   -0.579051   0.727013
    27  H    0.007444   0.126025
    28  H    0.281662   0.017896
    29  H    0.047320   0.124137
    30  H   -0.003750   0.190399
    31  H   -0.711306   0.980292
    32  H   -0.131451   0.319288
    33  H    0.097682  -0.137338
 Sum of Mulliken charges =  -1.00000   1.00000

 Dipole moment (field-independent basis, Debye):
    X=              2.4069    Y=              1.0130    Z=             -3.2711  Tot=              4.1856
 Quadrupole moment (field-independent basis, Debye-Ang):
   XX=           -211.6369   YY=           -153.7438   ZZ=           -131.9413
   XY=              0.3119   XZ=             -1.7826   YZ=             -0.6327

 Summary of Natural Population Analysis:

                                       Natural Population
                Natural  -----------------------------------------------
    Atom  No    Charge         Core      Valence    Rydberg      Total
 -----------------------------------------------------------------------
      C    1   -0.28657      0.99966     2.28144    0.00548     3.28657
      C    2   -0.19703      0.99960     2.18772    0.00971     3.19703
      C    3   -0.02943      0.99957     2.01639    0.01348     3.02943
      C    4   -0.26572      0.99955     2.25486    0.01131     3.26572
      S    5    0.07468      4.99962     2.90846    0.01724     7.92532
      C    6   -0.24951      0.99961     2.23915    0.01076     3.24951
      C    7   -0.29063      0.99965     2.28430    0.00667     3.29063
      N    8   -0.16562      0.99972     2.65434    0.01156     3.66562
      O    9   -0.22488      0.99987     3.21590    0.00911     4.22488
      C   10    0.40916      0.99971     1.56456    0.02657     2.59084
      O   11   -0.29228      0.99987     3.28684    0.00558     4.29228
      C   12   -0.24148      0.99957     2.23189    0.01002     3.24148
      C   13   -0.24468      0.99958     2.23419    0.01091     3.24468
      S   14   -0.02411      4.99965     3.00829    0.01617     8.02411
      H   15    0.09869      0.00000     0.39987    0.00144     0.40131
      H   16    0.10342      0.00000     0.39551    0.00107     0.39658
      H   17    0.09803      0.00000     0.40094    0.00102     0.40197
      H   18    0.09702      0.00000     0.40161    0.00137     0.40298
      H   19    0.10503      0.00000     0.39379    0.00118     0.39497
      H   20    0.10696      0.00000     0.39117    0.00188     0.39304
      H   21    0.11274      0.00000     0.38578    0.00148     0.38726
      H   22    0.11153      0.00000     0.38719    0.00127     0.38847
      H   23    0.10151      0.00000     0.39672    0.00176     0.39849
      H   24    0.10527      0.00000     0.39359    0.00113     0.39473
      H   25    0.09776      0.00000     0.40084    0.00140     0.40224
      H   26    0.10503      0.00000     0.39267    0.00230     0.39497
      H   27    0.10049      0.00000     0.39818    0.00133     0.39951
      H   28    0.17673      0.00000     0.32066    0.00260     0.32327
      H   29    0.11313      0.00000     0.38546    0.00141     0.38687
      H   30    0.11480      0.00000     0.38396    0.00124     0.38520
      H   31    0.11187      0.00000     0.38437    0.00376     0.38813
      H   32    0.10206      0.00000     0.39647    0.00147     0.39794
      H   33    0.06603      0.00000     0.43061    0.00336     0.43397
 =======================================================================
   * Total *   -0.00000     21.99522    41.80776    0.19703    64.00000

 Normal termination of Gaussian 16 at Thu Dec 10 10:50:08 2020.
