 Gaussian 16, Revision A.03,

 -----------------------------------------------------------
 # opt freq B3LYP/6-31G(d) empiricaldispersion=gd3bj scf=xqc
 -----------------------------------------------------------

 --------------------------------
 CID_137295264_JID_10703_neutraal
 --------------------------------
 Symbolic Z-matrix:
 Charge =  0 Multiplicity = 1

 SCF Done:  E(RB3LYP) =  -952.572773814     A.U. after   17 cycles
 SCF Done:  E(RB3LYP) =  -952.578117180     A.U. after   13 cycles
 SCF Done:  E(RB3LYP) =  -952.579157114     A.U. after   13 cycles
 SCF Done:  E(RB3LYP) =  -952.579556296     A.U. after   12 cycles
 SCF Done:  E(RB3LYP) =  -952.579587933     A.U. after   12 cycles
 SCF Done:  E(RB3LYP) =  -952.579508995     A.U. after   13 cycles
 SCF Done:  E(RB3LYP) =  -952.579669242     A.U. after   12 cycles
 SCF Done:  E(RB3LYP) =  -952.579700318     A.U. after   11 cycles
 SCF Done:  E(RB3LYP) =  -952.579801650     A.U. after   13 cycles
 SCF Done:  E(RB3LYP) =  -952.579993584     A.U. after   14 cycles
 SCF Done:  E(RB3LYP) =  -952.580746017     A.U. after   12 cycles
 SCF Done:  E(RB3LYP) =  -952.580748959     A.U. after   11 cycles
 SCF Done:  E(RB3LYP) =  -952.580753969     A.U. after   10 cycles
 SCF Done:  E(RB3LYP) =  -952.580755898     A.U. after   11 cycles
 SCF Done:  E(RB3LYP) =  -952.580756731     A.U. after    8 cycles
 Optimization completed.
    -- Stationary point found.

 1\1\GINC-NODE111\FOpt\RB3LYP\6-31G(d)\C15H8O5\VSC10255\14-Dec-2020\0\\
 # opt freq B3LYP/6-31G(d) empiricaldispersion=gd3bj scf=xqc\\CID_13729
 5264_JID_10703_neutraal\\0,1\C,3.4982402032,-0.7376905835,-0.097396896
 1\C,3.4137498834,0.7538731626,-0.0016480195\C,2.2212993698,1.382612728
 3,0.0870723322\C,0.9753066208,0.6414935822,0.0744234482\C,0.9452080237
 ,-0.7258166258,0.1047812195\C,2.2328798098,-1.4636520256,0.330588401\O
 ,2.2697957908,-2.5578198749,0.8550937916\C,-0.3397919437,-1.4660815213
 ,0.0033818145\O,-0.3493218156,-2.7014655894,-0.1052235743\C,-1.5857978

 Normal termination of Gaussian 16 at Mon Dec 14 19:01:50 2020.

 --------------------------------------------------------------------
 #N Geom=AllCheck Guess=TCheck SCRF=Check GenChk RB3LYP/6-31G(d) Freq
 --------------------------------------------------------------------

 Structure from the checkpoint file:  "JID_10703.chk"
 --------------------------------
 CID_137295264_JID_10703_neutraal
 --------------------------------
 Charge =  0 Multiplicity = 1

 SCF Done:  E(RB3LYP) =  -952.580756731     A.U. after    1 cycles

  Exact polarizability: 290.620  -1.995 192.070   2.961   2.576  64.319
 Approx polarizability: 440.348 -20.182 411.749   6.950   4.568 108.567

                      1                      2                      3
                      A                      A                      A
 Frequencies --     34.6309                52.1474                84.0382
 Red. masses --      9.6005                 8.4012                 5.6402
 Frc consts  --      0.0068                 0.0135                 0.0235
 IR Inten    --      0.2350                 0.2937                 9.8962

                      4                      5                      6
                      A                      A                      A
 Frequencies --     99.5264               110.4433               136.2127
 Red. masses --      3.6175                 9.2390                 8.1993
 Frc consts  --      0.0211                 0.0664                 0.0896
 IR Inten    --      3.6800                 0.9458                 5.5045

                      7                      8                      9
                      A                      A                      A
 Frequencies --    166.9028               203.3567               222.8211
 Red. masses --      6.7622                 4.6474                 7.2583
 Frc consts  --      0.1110                 0.1132                 0.2123
 IR Inten    --      0.5708                 1.2260                 4.3470

                     10                     11                     12
                      A                      A                      A
 Frequencies --    248.3040               273.3394               289.6640
 Red. masses --      4.9721                 7.7761                 6.0395
 Frc consts  --      0.1806                 0.3423                 0.2986
 IR Inten    --      1.0315                 2.7975                 1.4577

                     13                     14                     15
                      A                      A                      A
 Frequencies --    314.3415               363.8562               386.2589
 Red. masses --      6.2555                 6.1673                 2.8962
 Frc consts  --      0.3642                 0.4811                 0.2546
 IR Inten    --      0.6658                 7.3809                 6.9673

                     16                     17                     18
                      A                      A                      A
 Frequencies --    414.6361               445.5670               449.0016
 Red. masses --      9.0095                 7.6348                 4.6959
 Frc consts  --      0.9126                 0.8930                 0.5578
 IR Inten    --     14.2214                 3.7905                 1.2607

                     19                     20                     21
                      A                      A                      A
 Frequencies --    471.1789               487.3799               493.8670
 Red. masses --     10.8182                 5.3796                 4.6576
 Frc consts  --      1.4151                 0.7529                 0.6693
 IR Inten    --     16.1418                24.1097                 2.7541

                     22                     23                     24
                      A                      A                      A
 Frequencies --    528.3919               550.6831               575.0890
 Red. masses --      5.8311                 6.6836                 6.4387
 Frc consts  --      0.9592                 1.1942                 1.2546
 IR Inten    --      2.9189                 4.2985                10.9651

                     25                     26                     27
                      A                      A                      A
 Frequencies --    583.1878               611.4429               670.7729
 Red. masses --      4.9397                 4.4673                 6.6274
 Frc consts  --      0.9899                 0.9840                 1.7569
 IR Inten    --      1.6223                 0.3901                 1.3008

                     28                     29                     30
                      A                      A                      A
 Frequencies --    688.9942               696.9936               749.9067
 Red. masses --      6.5400                 3.8692                 5.2963
 Frc consts  --      1.8292                 1.1075                 1.7548
 IR Inten    --     13.8013                 6.2939                 0.7227

                     31                     32                     33
                      A                      A                      A
 Frequencies --    761.1374               781.8296               811.2064
 Red. masses --      6.0743                 2.8671                 4.8819
 Frc consts  --      2.0734                 1.0326                 1.8928
 IR Inten    --     10.7594                42.5251                28.9489

                     34                     35                     36
                      A                      A                      A
 Frequencies --    818.7749               835.6119               879.9525
 Red. masses --      1.5998                 1.4093                 4.3225
 Frc consts  --      0.6319                 0.5798                 1.9720
 IR Inten    --     98.2822                 5.8702                28.4949

                     37                     38                     39
                      A                      A                      A
 Frequencies --    917.8757               933.9295               939.3356
 Red. masses --      2.1219                 1.5106                 2.9837
 Frc consts  --      1.0533                 0.7763                 1.5511
 IR Inten    --     11.3106                 0.2060                 2.1131

                     40                     41                     42
                      A                      A                      A
 Frequencies --    961.3513               999.6182               999.7249
 Red. masses --      1.9429                 1.3594                 4.6982
 Frc consts  --      1.0579                 0.8003                 2.7666
 IR Inten    --      2.4081                 0.4953                 3.0591

                     43                     44                     45
                      A                      A                      A
 Frequencies --   1029.2402              1068.7773              1089.2859
 Red. masses --      1.7663                 3.7412                 3.8782
 Frc consts  --      1.1024                 2.5179                 2.7113
 IR Inten    --      2.8338                39.7524                44.8763

                     46                     47                     48
                      A                      A                      A
 Frequencies --   1113.5916              1173.2729              1190.1719
 Red. masses --      2.2502                 1.3951                 1.5161
 Frc consts  --      1.6441                 1.1315                 1.2653
 IR Inten    --      6.5889                 8.2103                72.9407

                     49                     50                     51
                      A                      A                      A
 Frequencies --   1195.3050              1221.2755              1245.8459
 Red. masses --      1.5543                 2.0795                 2.6994
 Frc consts  --      1.3084                 1.8274                 2.4686
 IR Inten    --    148.4867                 8.4212                37.3325

                     52                     53                     54
                      A                      A                      A
 Frequencies --   1302.8998              1312.4665              1351.2315
 Red. masses --      1.7843                 4.0413                 3.4628
 Frc consts  --      1.7846                 4.1015                 3.7251
 IR Inten    --     14.3263               534.6122                78.0435

                     55                     56                     57
                      A                      A                      A
 Frequencies --   1384.7210              1400.2869              1412.1285
 Red. masses --      3.3136                 3.4275                 2.5127
 Frc consts  --      3.7434                 3.9597                 2.9522
 IR Inten    --     19.9027               161.1500                13.5761

                     58                     59                     60
                      A                      A                      A
 Frequencies --   1427.7451              1446.0753              1447.9382
 Red. masses --      2.8614                 1.3672                 1.4053
 Frc consts  --      3.4366                 1.6844                 1.7358
 IR Inten    --     72.7579                 4.3348                29.5814

                     61                     62                     63
                      A                      A                      A
 Frequencies --   1510.8889              1529.6880              1602.6771
 Red. masses --      2.7794                 2.8398                 9.9733
 Frc consts  --      3.7382                 3.9150                15.0932
 IR Inten    --    116.2816               113.4338                14.3868

                     64                     65                     66
                      A                      A                      A
 Frequencies --   1635.1435              1648.6233              1685.4640
 Red. masses --      3.5935                 7.0778                 6.9735
 Frc consts  --      5.6609                11.3342                11.6718
 IR Inten    --     87.0707                 7.4255                59.5419

                     67                     68                     69
                      A                      A                      A
 Frequencies --   1706.5295              1748.1770              1786.8219
 Red. masses --      7.5355                12.4495                10.1259
 Frc consts  --     12.9298                22.4167                19.0479
 IR Inten    --     86.0470               152.3184               291.3164

                     70                     71                     72
                      A                      A                      A
 Frequencies --   1805.8525              2940.2146              3003.5671
 Red. masses --     12.3521                 1.0856                 1.0726
 Frc consts  --     23.7331                 5.5296                 5.7012
 IR Inten    --    221.6827               114.6810                 1.4262

                     73                     74                     75
                      A                      A                      A
 Frequencies --   3124.1515              3205.0384              3217.9112
 Red. masses --      1.0871                 1.0885                 1.0901
 Frc consts  --      6.2515                 6.5878                 6.6507
 IR Inten    --      0.6781                10.9855                 6.1350

                     76                     77                     78
                      A                      A                      A
 Frequencies --   3227.0046              3238.0713              3278.5123
 Red. masses --      1.0933                 1.0931                 1.0671
 Frc consts  --      6.7082                 6.7531                 6.7581
 IR Inten    --      4.6981                 2.2585               192.3072

 - Thermochemistry -
 -------------------
 Temperature   298.150 Kelvin.  Pressure   1.00000 Atm.
 Atom     1 has atomic number  6 and mass  12.00000

 Molecular mass:   268.03717 amu.
 Principal axes and moments of inertia in atomic units:
                           1         2         3
     Eigenvalues --  2499.567927937.80905**********
           X            0.99999   0.00420   0.00095
           Y           -0.00420   0.99998   0.00406
           Z           -0.00093  -0.00407   0.99999
 This molecule is an asymmetric top.
 Rotational symmetry number  1.
 Warning -- assumption of classical behavior for rotation
           may cause significant error
 Rotational temperatures (Kelvin)      0.03465     0.01091     0.00838
 Rotational constants (GHZ):           0.72202     0.22736     0.17460
 Zero-point vibrational energy     518879.5 (Joules/Mol)
                                  124.01518 (Kcal/Mol)
 Warning -- explicit consideration of  26 degrees of freedom as
           vibrations may cause significant error
 Vibrational temperatures:     49.83    75.03   120.91   143.20   158.90
          (Kelvin)            195.98   240.14   292.58   320.59   357.25
                              393.27   416.76   452.27   523.51   555.74
                              596.57   641.07   646.01   677.92   701.23
                              710.56   760.24   792.31   827.42   839.08
                              879.73   965.09   991.31  1002.82  1078.95
                             1095.11  1124.88  1167.15  1178.03  1202.26
                             1266.06  1320.62  1343.72  1351.49  1383.17
                             1438.23  1438.38  1480.85  1537.73  1567.24
                             1602.21  1688.08  1712.39  1719.78  1757.14
                             1792.49  1874.58  1888.35  1944.12  1992.30
                             2014.70  2031.74  2054.21  2080.58  2083.26
                             2173.83  2200.88  2305.89  2352.61  2372.00
                             2425.01  2455.32  2515.24  2570.84  2598.22
                             4230.31  4321.46  4494.96  4611.34  4629.86
                             4642.94  4658.86  4717.05

 Zero-point correction=                           0.197631 (Hartree/Particle)
 Thermal correction to Energy=                    0.213068
 Thermal correction to Enthalpy=                  0.214012
 Thermal correction to Gibbs Free Energy=         0.154285
 Sum of electronic and zero-point Energies=           -952.383126
 Sum of electronic and thermal Energies=              -952.367688
 Sum of electronic and thermal Enthalpies=            -952.366744
 Sum of electronic and thermal Free Energies=         -952.426472

                     E (Thermal)             CV                S
                      KCal/Mol        Cal/Mol-Kelvin    Cal/Mol-Kelvin
 Total                  133.702             59.908            125.708
 Electronic               0.000              0.000              0.000
 Translational            0.889              2.981             42.657
 Rotational               0.889              2.981             33.683
 Vibrational            131.925             53.947             49.368
 Vibration     1          0.594              1.983              5.545
 Vibration     2          0.596              1.977              4.734
 Vibration     3          0.601              1.960              3.794
 Vibration     4          0.604              1.949              3.464
 Vibration     5          0.606              1.941              3.261
 Vibration     6          0.614              1.917              2.856
 Vibration     7          0.624              1.883              2.470
 Vibration     8          0.639              1.835              2.103
 Vibration     9          0.648              1.806              1.936
 Vibration    10          0.662              1.766              1.743
 Vibration    11          0.676              1.723              1.575
 Vibration    12          0.686              1.693              1.476
 Vibration    13          0.702              1.646              1.339
 Vibration    14          0.737              1.547              1.106
 Vibration    15          0.755              1.500              1.015
 Vibration    16          0.778              1.438              0.910
 Vibration    17          0.805              1.371              0.809
 Vibration    18          0.808              1.363              0.799
 Vibration    19          0.828              1.314              0.734
 Vibration    20          0.843              1.278              0.690
 Vibration    21          0.850              1.264              0.674
 Vibration    22          0.883              1.187              0.591
 Vibration    23          0.906              1.138              0.543
 Vibration    24          0.931              1.085              0.495
 Vibration    25          0.940              1.068              0.479
 Vibration    26          0.971              1.008              0.430

 Optimization completed.
    -- Stationary point found.

 1\1\GINC-NODE111\Freq\RB3LYP\6-31G(d)\C15H8O5\VSC10255\14-Dec-2020\0\\
 #N Geom=AllCheck Guess=TCheck SCRF=Check GenChk RB3LYP/6-31G(d) Freq\\
 CID_137295264_JID_10703_neutraal\\0,1\C,3.4982402032,-0.7376905835,-0.
 0973968961\C,3.4137498834,0.7538731626,-0.0016480195\C,2.2212993698,1.
 3826127283,0.0870723322\C,0.9753066208,0.6414935822,0.0744234482\C,0.9
 452080237,-0.7258166258,0.1047812195\C,2.2328798098,-1.4636520256,0.33
 0588401\O,2.2697957908,-2.5578198749,0.8550937916\C,-0.3397919437,-1.4
 660815213,0.0033818145\O,-0.3493218156,-2.7014655894,-0.1052235743\C,-

 Normal termination of Gaussian 16 at Mon Dec 14 19:16:15 2020.

 ----------------------------------------------------------------------
 # B3LYP/6-311++G(d,p) empiricaldispersion=gd3bj scf=xqc pop=npa geom=c
 heck
 ----------------------------------------------------------------------

 ----------------------------------------
 CID_137295264_JID_10703_Energie_neutraal
 ----------------------------------------
 Structure from the checkpoint file:  "JID_10703.chk"
 Charge =  0 Multiplicity = 1

 SCF Done:  E(RB3LYP) =  -952.843524992     A.U. after   18 cycles
 Normal termination of Gaussian 16 at Mon Dec 14 19:23:00 2020.

 ----------------------------------------------------------------------
 # B3LYP/6-311++G(d,p) empiricaldispersion=gd3bj scf=xqc pop=npa geom=c
 heck
 ----------------------------------------------------------------------

 --------------------------------------
 CID_137295264_JID_10703_Energie_kation
 --------------------------------------
 Structure from the checkpoint file:  "JID_10703.chk"
 Charge =  1 Multiplicity = 2

 SCF Done:  E(UB3LYP) =  -952.520428036     A.U. after   33 cycles
 SCF Done:  E(UB3LYP) =  -952.520428036     a.u. after    1 cycles
 Normal termination of Gaussian 16 at Mon Dec 14 19:40:48 2020.
 Gaussian 16:  ES64L-G16RevA.03 25-Dec-2016

 -------------------------------------
 CID_137295264_JID_10703_Energie_anion
 -------------------------------------
 Structure from the checkpoint file:  "JID_10703.chk"
 Charge = -1 Multiplicity = 2

                         Standard orientation:
 ---------------------------------------------------------------------
 Center     Atomic      Atomic             Coordinates (Angstroms)
 Number     Number       Type             X           Y           Z
 ---------------------------------------------------------------------
      1          6           0        3.085615    1.048192    0.213259
      2          6           0        3.225664   -0.434990    0.066210
      3          6           0        2.141447   -1.230451   -0.063554
      4          6           0        0.798789   -0.683723   -0.047049
      5          6           0        0.565441    0.664123   -0.032107
      6          6           0        1.731196    1.592756   -0.211395
      7          8           0        1.610601    2.698233   -0.698272
      8          6           0       -0.816692    1.201047    0.072401
      9          8           0       -1.011643    2.416627    0.222138
     10          6           0       -1.933297    0.249734    0.040019
     11          6           0       -1.711277   -1.145200   -0.045613
     12          6           0       -0.329617   -1.673986   -0.075466
     13          8           0       -0.082437   -2.873231   -0.129397
     14          6           0       -2.775229   -2.038174   -0.083610
     15          6           0       -4.087490   -1.548198   -0.039047
     16          6           0       -4.333888   -0.188327    0.053216
     17          6           0       -3.265189    0.728772    0.103042
     18          8           0       -3.562326    2.026951    0.204531
     19          6           0        4.575084   -1.031257    0.103590
     20          8           0        5.592512   -0.380136    0.245371
     21          1           0        3.222360    1.308870    1.277051
     22          1           0        3.875720    1.583985   -0.320331
     23          1           0        2.232305   -2.308676   -0.150162
     24          1           0       -2.566472   -3.099878   -0.144408
     25          1           0       -4.922200   -2.241907   -0.072621
     26          1           0       -5.343276    0.206964    0.093567
     27          1           0       -2.697969    2.517191    0.243328
     28          1           0        4.602532   -2.136004   -0.004761
 ---------------------------------------------------------------------

 SCF Done:  E(UB3LYP) =  -952.950456747     A.U. after   21 cycles

 The electronic state is 2-A.
 Alpha  occ. eigenvalues --  -19.04104 -19.00977 -18.99051 -18.98880 -18.98645
 Alpha  occ. eigenvalues --  -10.14892 -10.14523 -10.14450 -10.14057 -10.13754
 Alpha  occ. eigenvalues --  -10.08890 -10.08466 -10.08264 -10.08212 -10.08007
 Alpha  occ. eigenvalues --  -10.07946 -10.07784 -10.07392 -10.07375 -10.06841
 Alpha  occ. eigenvalues --   -0.96750  -0.94087  -0.93010  -0.92511  -0.91689
 Alpha  occ. eigenvalues --   -0.76612  -0.74862  -0.69619  -0.65774  -0.64936
 Alpha  occ. eigenvalues --   -0.63074  -0.57527  -0.55390  -0.54254  -0.49574
 Alpha  occ. eigenvalues --   -0.48784  -0.45413  -0.44033  -0.42391  -0.41086
 Alpha  occ. eigenvalues --   -0.38511  -0.37839  -0.37320  -0.36261  -0.34827
 Alpha  occ. eigenvalues --   -0.34016  -0.33598  -0.32688  -0.32460  -0.31827
 Alpha  occ. eigenvalues --   -0.31284  -0.30162  -0.29692  -0.29420  -0.28530
 Alpha  occ. eigenvalues --   -0.28049  -0.27886  -0.25930  -0.25607  -0.24609
 Alpha  occ. eigenvalues --   -0.24077  -0.21572  -0.17145  -0.16277  -0.15754
 Alpha  occ. eigenvalues --   -0.15206  -0.14505  -0.13225  -0.11897  -0.05180
 Alpha virt. eigenvalues --    0.02735   0.05551   0.07289   0.08598   0.08818
 Alpha virt. eigenvalues --    0.09527   0.10197   0.10822   0.11243   0.11898
 Alpha virt. eigenvalues --    0.12407   0.12997   0.13779   0.14146   0.14240

  Beta  occ. eigenvalues --  -19.04093 -19.00820 -18.98928 -18.98445 -18.98175
  Beta  occ. eigenvalues --  -10.14872 -10.14521 -10.14456 -10.13981 -10.13714
  Beta  occ. eigenvalues --  -10.08875 -10.08436 -10.08270 -10.08235 -10.07915
  Beta  occ. eigenvalues --  -10.07866 -10.07578 -10.07403 -10.07364 -10.06602
  Beta  occ. eigenvalues --   -0.96677  -0.93813  -0.92704  -0.91731  -0.91079
  Beta  occ. eigenvalues --   -0.76464  -0.74567  -0.69293  -0.65516  -0.64819
  Beta  occ. eigenvalues --   -0.62866  -0.56953  -0.55150  -0.54057  -0.49421
  Beta  occ. eigenvalues --   -0.48568  -0.45282  -0.43868  -0.42299  -0.40856
  Beta  occ. eigenvalues --   -0.38366  -0.37723  -0.37127  -0.36130  -0.34486
  Beta  occ. eigenvalues --   -0.33823  -0.33176  -0.32426  -0.32288  -0.31514
  Beta  occ. eigenvalues --   -0.31050  -0.29555  -0.29079  -0.28814  -0.28213
  Beta  occ. eigenvalues --   -0.27865  -0.26662  -0.25740  -0.25427  -0.24113
  Beta  occ. eigenvalues --   -0.23660  -0.20239  -0.16185  -0.15985  -0.15475
  Beta  occ. eigenvalues --   -0.14786  -0.13305  -0.12720  -0.11556
  Beta virt. eigenvalues --    0.00261   0.03985   0.06411   0.07288   0.08731
  Beta virt. eigenvalues --    0.09254   0.09534   0.10318   0.10841   0.11735
  Beta virt. eigenvalues --    0.12085   0.12429   0.13015   0.14019   0.14198

 Mulliken charges and spin densities:
               1          2
     1  C   -0.653027  -0.017929
     2  C    0.807090   0.089072
     3  C   -0.110358  -0.025626
     4  C    0.137083   0.180880
     5  C    0.199658   0.183938
     6  C   -0.279575  -0.001409
     7  O   -0.269874   0.044944
     8  C   -0.761221   0.029867
     9  O   -0.314588   0.161106
    10  C    0.422549  -0.023627
    11  C    0.754604   0.017122
    12  C   -0.679908   0.011431
    13  O   -0.291835   0.173656
    14  C   -0.146287   0.030364
    15  C   -0.277306   0.012125
    16  C   -0.025310   0.023582
    17  C   -0.355895   0.020503
    18  O   -0.313802   0.003466
    19  C    0.008124   0.019490
    20  O   -0.294628   0.056473
    21  H    0.204220   0.014091
    22  H    0.187735   0.006022
    23  H    0.155723   0.000447
    24  H    0.153787  -0.001989
    25  H    0.146071  -0.001090
    26  H    0.155152  -0.001970
    27  H    0.329434  -0.002817
    28  H    0.112381  -0.002119
 Sum of Mulliken charges =  -1.00000   1.00000

 Dipole moment (field-independent basis, Debye):
    X=             -3.9697    Y=             -2.9719    Z=              0.6934  Tot=              5.0071
 Quadrupole moment (field-independent basis, Debye-Ang):
   XX=           -171.7512   YY=           -149.8733   ZZ=           -118.5367
   XY=              1.9839   XZ=              0.6211   YZ=              2.7518

 Summary of Natural Population Analysis:

                                       Natural Population
                Natural  -----------------------------------------------
    Atom  No    Charge         Core      Valence    Rydberg      Total
 -----------------------------------------------------------------------
      C    1   -0.25019      0.99956     2.24157    0.00906     3.25019
      C    2   -0.02137      0.99948     2.01343    0.00845     3.02137
      C    3   -0.07405      0.99942     2.06476    0.00988     3.07405
      C    4    0.00797      0.99936     1.98309    0.00958     2.99203
      C    5   -0.02555      0.99941     2.01550    0.01064     3.02555
      C    6    0.27885      0.99962     1.70040    0.02113     2.72115
      O    7   -0.26057      0.99987     3.25280    0.00790     4.26057
      C    8    0.26766      0.99946     1.71387    0.01901     2.73234
      O    9   -0.24567      0.99987     3.23945    0.00635     4.24567
      C   10   -0.08999      0.99944     2.08263    0.00792     3.08999
      C   11   -0.03795      0.99948     2.02931    0.00916     3.03795
      C   12    0.26185      0.99947     1.71841    0.02027     2.73815
      O   13   -0.23078      0.99988     3.22519    0.00571     4.23078
      C   14   -0.10253      0.99954     2.09346    0.00953     3.10253
      C   15   -0.09377      0.99961     2.08487    0.00929     3.09377
      C   16   -0.11348      0.99943     2.10449    0.00957     3.11348
      C   17    0.18263      0.99942     1.80414    0.01381     2.81737
      O   18   -0.34765      0.99987     3.34019    0.00759     4.34765
      C   19    0.20020      0.99966     1.77952    0.02062     2.79980
      O   20   -0.26944      0.99988     3.26199    0.00757     4.26944
      H   21    0.12220      0.00000     0.37650    0.00130     0.37780
      H   22    0.12236      0.00000     0.37613    0.00151     0.37764
      H   23    0.11169      0.00000     0.38658    0.00173     0.38831
      H   24    0.11358      0.00000     0.38526    0.00116     0.38642
      H   25    0.09526      0.00000     0.40364    0.00110     0.40474
      H   26    0.10053      0.00000     0.39751    0.00196     0.39947
      H   27    0.25153      0.00000     0.24489    0.00358     0.24847
      H   28    0.04677      0.00000     0.45082    0.00241     0.45323
 =======================================================================
   * Total *    0.00008     19.99176    48.77038    0.23779    68.99992

 Normal termination of Gaussian 16 at Mon Dec 14 19:52:08 2020.
