 Gaussian 16, Revision A.03,

 -----------------------------------------------------------
 # opt freq B3LYP/6-31G(d) empiricaldispersion=gd3bj scf=xqc
 -----------------------------------------------------------

 -------------------------------
 CID_151975179_JID_6070_neutraal
 -------------------------------
 Symbolic Z-matrix:
 Charge =  0 Multiplicity = 1

 SCF Done:  E(RB3LYP) =  -1105.41100563     A.U. after   16 cycles
 SCF Done:  E(RB3LYP) =  -1105.41399592     A.U. after   14 cycles
 SCF Done:  E(RB3LYP) =  -1105.41565366     A.U. after   14 cycles
 SCF Done:  E(RB3LYP) =  -1105.41571734     A.U. after   13 cycles
 SCF Done:  E(RB3LYP) =  -1105.41628812     A.U. after   14 cycles
 SCF Done:  E(RB3LYP) =  -1105.41680001     A.U. after   13 cycles
 SCF Done:  E(RB3LYP) =  -1105.41693456     A.U. after   14 cycles
 SCF Done:  E(RB3LYP) =  -1105.41667047     A.U. after   14 cycles
 SCF Done:  E(RB3LYP) =  -1105.41710376     A.U. after   14 cycles
 SCF Done:  E(RB3LYP) =  -1105.41726961     A.U. after   14 cycles
 SCF Done:  E(RB3LYP) =  -1105.41735389     A.U. after    9 cycles
 SCF Done:  E(RB3LYP) =  -1105.41735556     A.U. after    9 cycles
 SCF Done:  E(RB3LYP) =  -1105.41735584     A.U. after    8 cycles
 SCF Done:  E(RB3LYP) =  -1105.41735597     A.U. after    8 cycles
 SCF Done:  E(RB3LYP) =  -1105.41735596     A.U. after    7 cycles
 Optimization completed.
    -- Stationary point found.
 Normal termination of Gaussian 16 at Thu Dec 10 21:15:30 2020.

 --------------------------------------------------------------------
 #N Geom=AllCheck Guess=TCheck SCRF=Check GenChk RB3LYP/6-31G(d) Freq
 --------------------------------------------------------------------

 Structure from the checkpoint file:  "JID_6070.chk"
 -------------------------------
 CID_151975179_JID_6070_neutraal
 -------------------------------
 Charge =  0 Multiplicity = 1

 SCF Done:  E(RB3LYP) =  -1105.41735596     A.U. after    1 cycles

  Exact polarizability: 166.344  -3.898 159.002   1.324  -7.095 117.743
 Approx polarizability: 214.694 -22.322 269.200   2.865 -18.748 184.278

                      1                      2                      3
                      A                      A                      A
 Frequencies --     22.2417                36.0607                37.2139
 Red. masses --      7.4141                 5.2652                 7.0029
 Frc consts  --      0.0022                 0.0040                 0.0057
 IR Inten    --      0.2309                 0.8640                 0.7299

                      4                      5                      6
                      A                      A                      A
 Frequencies --     42.1366                59.0093                69.9347
 Red. masses --      6.6105                 6.0088                 5.9246
 Frc consts  --      0.0069                 0.0123                 0.0171
 IR Inten    --      0.4580                 0.7219                 0.2345

                      7                      8                      9
                      A                      A                      A
 Frequencies --    103.7623               119.3435               133.2430
 Red. masses --      2.8461                 6.2224                 3.7834
 Frc consts  --      0.0181                 0.0522                 0.0396
 IR Inten    --      0.1631                 3.6128                 1.2527

                     10                     11                     12
                      A                      A                      A
 Frequencies --    156.5606               170.7867               200.4668
 Red. masses --      3.5564                 2.1847                 3.8863
 Frc consts  --      0.0514                 0.0375                 0.0920
 IR Inten    --      0.5045                 0.6096                 0.8575

                     13                     14                     15
                      A                      A                      A
 Frequencies --    210.2313               236.0039               256.2252
 Red. masses --      3.1331                 1.5157                 1.3311
 Frc consts  --      0.0816                 0.0497                 0.0515
 IR Inten    --      0.6683                 0.8381                 1.1925

                     16                     17                     18
                      A                      A                      A
 Frequencies --    275.1952               305.6080               341.3375
 Red. masses --      2.6602                 2.8719                 2.0924
 Frc consts  --      0.1187                 0.1580                 0.1436
 IR Inten    --      0.1617                 1.1760                 0.6016

                     19                     20                     21
                      A                      A                      A
 Frequencies --    348.2945               379.4837               424.4048
 Red. masses --      2.7406                 2.8920                 2.3817
 Frc consts  --      0.1959                 0.2454                 0.2528
 IR Inten    --      0.2480                 2.7446                 2.5895

                     22                     23                     24
                      A                      A                      A
 Frequencies --    427.5915               444.7707               455.5469
 Red. masses --      3.5364                 2.7966                 2.3706
 Frc consts  --      0.3809                 0.3260                 0.2899
 IR Inten    --      4.0625                 0.2210                 1.2052

                     25                     26                     27
                      A                      A                      A
 Frequencies --    543.4198               575.7450               588.6208
 Red. masses --      3.6453                11.7109                 2.2175
 Frc consts  --      0.6342                 2.2872                 0.4527
 IR Inten    --     38.1045                 9.8851                 8.0503

                     28                     29                     30
                      A                      A                      A
 Frequencies --    617.4009               647.7823               669.8065
 Red. masses --      1.9972                 4.8665                 2.5298
 Frc consts  --      0.4485                 1.2032                 0.6687
 IR Inten    --     53.3735                 8.4305                27.0785

                     31                     32                     33
                      A                      A                      A
 Frequencies --    700.3889               769.2475               780.4770
 Red. masses --      2.6158                 1.9833                 1.7528
 Frc consts  --      0.7560                 0.6915                 0.6291
 IR Inten    --     62.3741                 1.0465                 8.6562

                     34                     35                     36
                      A                      A                      A
 Frequencies --    805.1732               834.6039               871.6103
 Red. masses --      4.9180                 1.6277                 2.4187
 Frc consts  --      1.8785                 0.6680                 1.0826
 IR Inten    --     17.2032                 9.9948                 2.7152

                     37                     38                     39
                      A                      A                      A
 Frequencies --    883.4526               887.0813               924.9265
 Red. masses --      2.1789                 2.9716                 2.1919
 Frc consts  --      1.0020                 1.3777                 1.1048
 IR Inten    --      5.6748                 1.8745                 7.2647

                     40                     41                     42
                      A                      A                      A
 Frequencies --    933.7678               955.1871              1006.1257
 Red. masses --      1.8996                 1.8124                 1.8293
 Frc consts  --      0.9759                 0.9742                 1.0910
 IR Inten    --     10.3541                 4.7896                 3.3287

                     43                     44                     45
                      A                      A                      A
 Frequencies --   1014.5640              1054.5156              1063.4033
 Red. masses --      1.7375                 2.2933                 1.5797
 Frc consts  --      1.0537                 1.5025                 1.0525
 IR Inten    --     10.5163                 2.9924                 0.7243

                     46                     47                     48
                      A                      A                      A
 Frequencies --   1089.4829              1109.2971              1142.4560
 Red. masses --      1.8001                 1.6505                 1.5404
 Frc consts  --      1.2589                 1.1966                 1.1846
 IR Inten    --      0.7802                 5.6814               197.7085

                     49                     50                     51
                      A                      A                      A
 Frequencies --   1154.7111              1164.8379              1171.0015
 Red. masses --      1.9587                 2.1143                 2.1545
 Frc consts  --      1.5387                 1.6903                 1.7406
 IR Inten    --      6.2419                 2.5660                 4.3127

                     52                     53                     54
                      A                      A                      A
 Frequencies --   1243.8895              1246.4967              1255.5747
 Red. masses --      1.3095                 1.3976                 1.3066
 Frc consts  --      1.1938                 1.2794                 1.2136
 IR Inten    --     29.5399                83.7848                31.9961

                     55                     56                     57
                      A                      A                      A
 Frequencies --   1279.3711              1302.3659              1309.8177
 Red. masses --      1.2609                 1.2456                 1.2354
 Frc consts  --      1.2159                 1.2448                 1.2488
 IR Inten    --      1.9306                 3.6113                16.9798

                     58                     59                     60
                      A                      A                      A
 Frequencies --   1330.5094              1339.5760              1349.1395
 Red. masses --      2.0572                 2.1609                 1.2385
 Frc consts  --      2.1457                 2.2846                 1.3282
 IR Inten    --    124.5156                32.3244                 6.3081

                     61                     62                     63
                      A                      A                      A
 Frequencies --   1370.0281              1384.2511              1396.9617
 Red. masses --      1.1990                 1.4556                 2.2944
 Frc consts  --      1.3260                 1.6433                 2.6381
 IR Inten    --      0.6806                 9.3228                69.6870

                     64                     65                     66
                      A                      A                      A
 Frequencies --   1397.8109              1410.4258              1419.5061
 Red. masses --      1.3525                 1.4350                 1.4047
 Frc consts  --      1.5570                 1.6819                 1.6676
 IR Inten    --     40.5636                 2.2002                 6.6440

                     67                     68                     69
                      A                      A                      A
 Frequencies --   1432.8146              1442.5121              1443.8822
 Red. masses --      1.4068                 1.2395                 1.2427
 Frc consts  --      1.7016                 1.5196                 1.5264
 IR Inten    --      1.1155                 7.9657                 3.3919

                     70                     71                     72
                      A                      A                      A
 Frequencies --   1485.8570              1509.7576              1516.7250
 Red. masses --      1.1376                 1.0672                 1.0736
 Frc consts  --      1.4798                 1.4332                 1.4552
 IR Inten    --     13.9082                 4.6298                 7.6890

                     73                     74                     75
                      A                      A                      A
 Frequencies --   1523.9521              1530.3710              1531.6975
 Red. masses --      1.0647                 1.0643                 1.0547
 Frc consts  --      1.4569                 1.4686                 1.4579
 IR Inten    --      4.5252                12.1857                 3.0660

                     76                     77                     78
                      A                      A                      A
 Frequencies --   1536.3611              1539.3082              1543.7332
 Red. masses --      1.0512                 1.0543                 1.0810
 Frc consts  --      1.4620                 1.4719                 1.5178
 IR Inten    --      1.9006                 3.0931                 2.5880

                     79                     80                     81
                      A                      A                      A
 Frequencies --   1827.8779              2257.4965              3005.1348
 Red. masses --      9.2777                13.6789                 1.0837
 Frc consts  --     18.2635                41.0730                 5.7664
 IR Inten    --    237.4032               551.8756                29.0131

                     82                     83                     84
                      A                      A                      A
 Frequencies --   3046.6129              3049.5520              3051.7437
 Red. masses --      1.0607                 1.0593                 1.0431
 Frc consts  --      5.8005                 5.8040                 5.7236
 IR Inten    --     17.4184                17.6874                17.1349

                     85                     86                     87
                      A                      A                      A
 Frequencies --   3053.4106              3057.7496              3066.2421
 Red. masses --      1.0475                 1.0614                 1.0601
 Frc consts  --      5.7538                 5.8471                 5.8722
 IR Inten    --     35.2491                18.3241                 5.1540

                     88                     89                     90
                      A                      A                      A
 Frequencies --   3079.8424              3086.4881              3092.0926
 Red. masses --      1.0958                 1.0873                 1.0976
 Frc consts  --      6.1240                 6.1030                 6.1832
 IR Inten    --     30.3742                 8.2845                18.9173

                     91                     92                     93
                      A                      A                      A
 Frequencies --   3094.4735              3107.6761              3115.4179
 Red. masses --      1.0985                 1.0616                 1.1002
 Frc consts  --      6.1975                 6.0408                 6.2916
 IR Inten    --     49.4912                 8.9962                28.8401

                     94                     95                     96
                      A                      A                      A
 Frequencies --   3119.1966              3119.9568              3127.6472
 Red. masses --      1.1010                 1.0954                 1.1025
 Frc consts  --      6.3115                 6.2823                 6.3544
 IR Inten    --     35.8419                22.6763                33.0611

                     97                     98                     99
                      A                      A                      A
 Frequencies --   3153.2522              3169.9230              3686.0160
 Red. masses --      1.1026                 1.1077                 1.0639
 Frc consts  --      6.4595                 6.5577                 8.5170
 IR Inten    --      9.3130                 2.8197                54.3704

 - Thermochemistry -
 -------------------
 Temperature   298.150 Kelvin.  Pressure   1.00000 Atm.
 Atom     1 has atomic number  6 and mass  12.00000

 Molecular mass:   245.11980 amu.
 Principal axes and moments of inertia in atomic units:
                           1         2         3
     Eigenvalues --  2334.764277968.331849040.92130
           X            0.99968   0.02407   0.00735
           Y           -0.02395   0.99959  -0.01566
           Z           -0.00772   0.01547   0.99985
 This molecule is an asymmetric top.
 Rotational symmetry number  1.
 Warning -- assumption of classical behavior for rotation
           may cause significant error
 Rotational temperatures (Kelvin)      0.03710     0.01087     0.00958
 Rotational constants (GHZ):           0.77299     0.22649     0.19962
 Zero-point vibrational energy     781490.7 (Joules/Mol)
                                  186.78075 (Kcal/Mol)
 Warning -- explicit consideration of  28 degrees of freedom as
           vibrations may cause significant error
 Vibrational temperatures:     32.00    51.88    53.54    60.63    84.90
          (Kelvin)            100.62   149.29   171.71   191.71   225.26
                              245.72   288.43   302.48   339.56   368.65
                              395.94   439.70   491.11   501.12   545.99
                              610.62   615.21   639.93   655.43   781.86
                              828.37   846.89   888.30   932.01   963.70
                             1007.70  1106.78  1122.93  1158.46  1200.81
                             1254.05  1271.09  1276.31  1330.76  1343.48
                             1374.30  1447.59  1459.73  1517.21  1530.00
                             1567.52  1596.03  1643.74  1661.37  1675.94
                             1684.81  1789.68  1793.43  1806.49  1840.73
                             1873.81  1884.54  1914.31  1927.35  1941.11
                             1971.16  1991.63  2009.92  2011.14  2029.29
                             2042.35  2061.50  2075.45  2077.42  2137.82
                             2172.20  2182.23  2192.63  2201.86  2203.77
                             2210.48  2214.72  2221.09  2629.91  3248.03
                             4323.72  4383.40  4387.63  4390.78  4393.18
                             4399.42  4411.64  4431.21  4440.77  4448.83
                             4452.26  4471.25  4482.39  4487.83  4488.92
                             4499.99  4536.83  4560.81  5303.35

 Zero-point correction=                           0.297654 (Hartree/Particle)
 Thermal correction to Energy=                    0.316182
 Thermal correction to Enthalpy=                  0.317126
 Thermal correction to Gibbs Free Energy=         0.248446
 Sum of electronic and zero-point Energies=          -1105.119702
 Sum of electronic and thermal Energies=             -1105.101174
 Sum of electronic and thermal Enthalpies=           -1105.100230
 Sum of electronic and thermal Free Energies=        -1105.168910

                     E (Thermal)             CV                S
                      KCal/Mol        Cal/Mol-Kelvin    Cal/Mol-Kelvin
 Total                  198.407             66.517            144.550
 Electronic               0.000              0.000              0.000
 Translational            0.889              2.981             42.391
 Rotational               0.889              2.981             33.486
 Vibrational            196.630             60.555             68.674
 Vibration     1          0.593              1.985              6.423
 Vibration     2          0.594              1.982              5.465
 Vibration     3          0.594              1.982              5.402
 Vibration     4          0.595              1.980              5.156
 Vibration     5          0.596              1.974              4.490
 Vibration     6          0.598              1.968              4.155
 Vibration     7          0.605              1.946              3.382
 Vibration     8          0.609              1.933              3.111
 Vibration     9          0.613              1.920              2.899
 Vibration    10          0.620              1.895              2.591
 Vibration    11          0.626              1.878              2.427
 Vibration    12          0.638              1.839              2.129
 Vibration    13          0.642              1.825              2.042
 Vibration    14          0.655              1.786              1.833
 Vibration    15          0.666              1.752              1.687
 Vibration    16          0.677              1.719              1.563
 Vibration    17          0.696              1.663              1.386
 Vibration    18          0.721              1.593              1.206
 Vibration    19          0.726              1.579              1.174
 Vibration    20          0.749              1.514              1.041
 Vibration    21          0.786              1.417              0.877
 Vibration    22          0.789              1.410              0.867
 Vibration    23          0.804              1.372              0.812
 Vibration    24          0.814              1.349              0.779
 Vibration    25          0.899              1.154              0.558
 Vibration    26          0.932              1.084              0.493
 Vibration    27          0.946              1.056              0.470
 Vibration    28          0.977              0.995              0.421

                           ! Non-Optimized Parameters !
 Normal termination of Gaussian 16 at Thu Dec 10 21:27:06 2020.

 ----------------------------------------------------------------------
 # B3LYP/6-311++G(d,p) empiricaldispersion=gd3bj scf=xqc pop=npa geom=c
 heck
 ----------------------------------------------------------------------

 ---------------------------------------
 CID_151975179_JID_6070_Energie_neutraal
 ---------------------------------------
 Structure from the checkpoint file:  "JID_6070.chk"
 Charge =  0 Multiplicity = 1

 SCF Done:  E(RB3LYP) =  -1105.65469447     A.U. after   16 cycles
 Normal termination of Gaussian 16 at Thu Dec 10 21:33:30 2020.

 ----------------------------------------------------------------------
 # B3LYP/6-311++G(d,p) empiricaldispersion=gd3bj scf=xqc pop=npa geom=c
 heck
 ----------------------------------------------------------------------

 -------------------------------------
 CID_151975179_JID_6070_Energie_kation
 -------------------------------------
 Structure from the checkpoint file:  "JID_6070.chk"
 Charge =  1 Multiplicity = 2

 SCF Done:  E(UB3LYP) =  -1105.35205199     A.U. after   22 cycles
 Normal termination of Gaussian 16 at Thu Dec 10 21:46:06 2020.
 Gaussian 16:  ES64L-G16RevA.03 25-Dec-2016

 ----------------------------------------------------------------------
 # B3LYP/6-311++G(d,p) empiricaldispersion=gd3bj scf=xqc pop=npa geom=c
 heck
 ----------------------------------------------------------------------

 ------------------------------------
 CID_151975179_JID_6070_Energie_anion
 ------------------------------------
 Structure from the checkpoint file:  "JID_6070.chk"
 Charge = -1 Multiplicity = 2

                         Standard orientation:
 ---------------------------------------------------------------------
 Center     Atomic      Atomic             Coordinates (Angstroms)
 Number     Number       Type             X           Y           Z
 ---------------------------------------------------------------------
      1          6           0       -4.278613   -1.842084   -1.033716
      2          6           0       -3.449519   -0.555696   -0.998079
      3          6           0       -2.952612   -0.197231    0.410125
      4          6           0       -2.036231   -1.245289    1.055923
      5          6           0       -0.860987   -1.762439    0.211064
      6          6           0        0.184024   -0.726795   -0.241282
      7          6           0        0.829404    0.060889    0.904798
      8          6           0        1.570856   -0.816639    1.916337
      9         16           0        1.880787    1.462643    0.286322
     10          6           0        2.803099    0.761031   -1.140161
     11          6           0        3.790270   -0.307162   -0.741897
     12          8           0        3.568821   -1.501146   -0.751205
     13          8           0        4.971611    0.213082   -0.342752
     14          7           0       -2.213861    1.102792    0.405036
     15          7           0       -2.861027    2.084805    0.035205
     16          7           0       -3.361431    3.061697   -0.284519
     17          1           0       -3.680449   -2.718652   -0.764181
     18          1           0       -4.683201   -2.012575   -2.036614
     19          1           0       -5.124428   -1.787483   -0.337819
     20          1           0       -2.590773   -0.636601   -1.673879
     21          1           0       -4.059398    0.276861   -1.371993
     22          1           0       -3.829637   -0.077195    1.064170
     23          1           0       -1.670599   -0.829906    2.002165
     24          1           0       -2.664280   -2.102394    1.326712
     25          1           0       -0.361617   -2.551160    0.786379
     26          1           0       -1.250116   -2.259580   -0.686440
     27          1           0        0.966405   -1.266132   -0.786740
     28          1           0       -0.276812   -0.015065   -0.933684
     29          1           0        0.044299    0.625762    1.417489
     30          1           0        2.334976   -1.425076    1.425436
     31          1           0        2.051621   -0.203674    2.683908
     32          1           0        0.870318   -1.495370    2.418301
     33          1           0        2.114508    0.349657   -1.878898
     34          1           0        3.328182    1.617343   -1.569553
     35          1           0        5.521030   -0.543105   -0.062970
 ---------------------------------------------------------------------

 SCF Done:  E(UB3LYP) =  -1105.64745246     A.U. after   33 cycles
 SCF Done:  E(UB3LYP) =  -1105.64745246     a.u. after    1 cycles

 The electronic state is 2-A.
 Alpha  occ. eigenvalues --  -88.74947 -19.08206 -19.02862 -14.36069 -14.26152
 Alpha  occ. eigenvalues --  -14.24587 -10.22197 -10.12237 -10.12219 -10.10774
 Alpha  occ. eigenvalues --  -10.08067 -10.07738 -10.07657 -10.07239 -10.07111
 Alpha  occ. eigenvalues --  -10.06669  -7.83531  -5.79968  -5.79548  -5.78868
 Alpha  occ. eigenvalues --   -1.02612  -1.02379  -0.93409  -0.86932  -0.74078
 Alpha  occ. eigenvalues --   -0.72258  -0.69126  -0.66087  -0.62511  -0.59073
 Alpha  occ. eigenvalues --   -0.57564  -0.53281  -0.51895  -0.49324  -0.45965
 Alpha  occ. eigenvalues --   -0.43580  -0.41624  -0.40961  -0.39971  -0.39877
 Alpha  occ. eigenvalues --   -0.38363  -0.37067  -0.36783  -0.35171  -0.34574
 Alpha  occ. eigenvalues --   -0.34045  -0.33292  -0.32091  -0.31638  -0.31332
 Alpha  occ. eigenvalues --   -0.30572  -0.29579  -0.28551  -0.28399  -0.26484
 Alpha  occ. eigenvalues --   -0.26062  -0.25279  -0.25108  -0.23850  -0.23296
 Alpha  occ. eigenvalues --   -0.22523  -0.21180  -0.19503  -0.19184  -0.14723
 Alpha  occ. eigenvalues --   -0.13648   0.03933
 Alpha virt. eigenvalues --    0.05219   0.06032   0.06552   0.06972   0.07750
 Alpha virt. eigenvalues --    0.08024   0.08596   0.09190   0.10227   0.10518
 Alpha virt. eigenvalues --    0.10847   0.10907   0.11674   0.11963   0.12648

  Beta  occ. eigenvalues --  -88.74941 -19.08150 -19.02845 -14.35894 -14.25888
  Beta  occ. eigenvalues --  -14.24630 -10.22188 -10.12207 -10.12161 -10.10772
  Beta  occ. eigenvalues --  -10.08056 -10.07721 -10.07647 -10.07198 -10.07102
  Beta  occ. eigenvalues --  -10.06656  -7.83525  -5.79958  -5.79536  -5.78864
  Beta  occ. eigenvalues --   -1.02302  -1.02259  -0.93348  -0.86753  -0.74042
  Beta  occ. eigenvalues --   -0.72193  -0.69082  -0.66049  -0.62434  -0.59022
  Beta  occ. eigenvalues --   -0.57483  -0.53210  -0.51801  -0.49223  -0.45913
  Beta  occ. eigenvalues --   -0.43490  -0.41576  -0.40625  -0.39930  -0.39674
  Beta  occ. eigenvalues --   -0.37997  -0.37001  -0.36673  -0.35103  -0.34151
  Beta  occ. eigenvalues --   -0.33976  -0.33251  -0.31960  -0.31594  -0.31276
  Beta  occ. eigenvalues --   -0.30544  -0.29459  -0.28499  -0.28347  -0.26431
  Beta  occ. eigenvalues --   -0.26032  -0.25252  -0.25060  -0.23791  -0.23228
  Beta  occ. eigenvalues --   -0.22484  -0.21140  -0.19463  -0.18819  -0.14653
  Beta  occ. eigenvalues --   -0.13623
  Beta virt. eigenvalues --    0.06129   0.06514   0.06639   0.07285   0.07832
  Beta virt. eigenvalues --    0.08316   0.08413   0.08778   0.09365   0.10349
  Beta virt. eigenvalues --    0.10708   0.10876   0.11008   0.11850   0.12080

 Mulliken charges and spin densities:
               1          2
     1  C    0.938589  -1.553774
     2  C   -1.119514   0.943685
     3  C    0.074721  -0.483967
     4  C   -0.107672  -0.286779
     5  C   -0.148569  -0.320186
     6  C    0.176004  -0.466315
     7  C    0.133519   0.363067
     8  C   -0.435905  -0.356236
     9  S   -0.126590   0.012874
    10  C    0.164594  -0.688540
    11  C   -0.036319  -0.072598
    12  O   -0.253647   0.011810
    13  O   -0.102099   0.022039
    14  N   -0.075918   0.011374
    15  N    0.398231   0.041208
    16  N   -0.276139   0.157701
    17  H   -0.088692   0.222093
    18  H   -0.262914   0.409133
    19  H   -0.222349   0.366020
    20  H    0.059581   0.095196
    21  H    0.098085   0.049823
    22  H   -0.226041   0.432411
    23  H    0.070894   0.104702
    24  H   -0.176084   0.359537
    25  H    0.121263   0.041494
    26  H    0.008461   0.168567
    27  H    0.273384  -0.074568
    28  H    0.042931   0.097882
    29  H    0.218797   0.053044
    30  H   -0.044194   0.231612
    31  H    0.115088   0.010642
    32  H   -0.008749   0.132560
    33  H    0.034572   0.160194
    34  H    0.165407   0.115010
    35  H   -0.382726   0.689286
 Sum of Mulliken charges =  -1.00000   1.00000

 Dipole moment (field-independent basis, Debye):
    X=              0.0186    Y=              0.6010    Z=              0.0699  Tot=              0.6053
 Quadrupole moment (field-independent basis, Debye-Ang):
   XX=           -216.6889   YY=           -151.8953   ZZ=           -129.3591
   XY=              3.4572   XZ=             -4.4705   YZ=             -1.8494

 Summary of Natural Population Analysis:

                                       Natural Population
                Natural  -----------------------------------------------
    Atom  No    Charge         Core      Valence    Rydberg      Total
 -----------------------------------------------------------------------
      C    1   -0.28689      0.99967     2.28218    0.00505     3.28689
      C    2   -0.20008      0.99961     2.19119    0.00927     3.20008
      C    3   -0.00659      0.99955     1.99418    0.01285     3.00659
      C    4   -0.19538      0.99960     2.18551    0.01028     3.19538
      C    5   -0.19111      0.99962     2.18249    0.00899     3.19111
      C    6   -0.20398      0.99958     2.19570    0.00869     3.20398
      C    7   -0.16625      0.99956     2.15555    0.01114     3.16625
      C    8   -0.29457      0.99963     2.28915    0.00579     3.29457
      S    9    0.10571      4.99962     2.87838    0.01629     7.89429
      C   10   -0.30301      0.99953     2.29238    0.01110     3.30301
      C   11    0.39731      0.99970     1.57717    0.02582     2.60269
      O   12   -0.30945      0.99987     3.30315    0.00643     4.30945
      O   13   -0.34073      0.99988     3.33388    0.00698     4.34073
      N   14   -0.20701      0.99969     2.69253    0.01479     3.70701
      N   15    0.13144      0.99970     2.35334    0.01552     3.36856
      N   16   -0.02913      0.99982     2.51567    0.01364     3.52913
      H   17    0.09764      0.00000     0.40127    0.00109     0.40236
      H   18    0.10117      0.00000     0.39783    0.00100     0.39883
      H   19    0.09883      0.00000     0.39990    0.00127     0.40117
      H   20    0.09884      0.00000     0.39984    0.00132     0.40116
      H   21    0.09907      0.00000     0.39974    0.00120     0.40093
      H   22    0.09156      0.00000     0.40656    0.00188     0.40844
      H   23    0.10189      0.00000     0.39680    0.00131     0.39811
      H   24    0.10343      0.00000     0.39565    0.00092     0.39657
      H   25    0.09896      0.00000     0.40002    0.00102     0.40104
      H   26    0.09883      0.00000     0.40016    0.00101     0.40117
      H   27    0.10568      0.00000     0.39272    0.00160     0.39432
      H   28    0.10554      0.00000     0.39301    0.00145     0.39446
      H   29    0.11484      0.00000     0.38348    0.00168     0.38516
      H   30    0.10702      0.00000     0.39175    0.00123     0.39298
      H   31    0.10148      0.00000     0.39722    0.00130     0.39852
      H   32    0.09790      0.00000     0.40114    0.00095     0.40210
      H   33    0.11397      0.00000     0.38486    0.00117     0.38603
      H   34    0.11854      0.00000     0.38047    0.00098     0.38146
      H   35    0.24451      0.00000     0.23911    0.01638     0.25549
 =======================================================================
   * Total *    0.00000     19.99462    45.78398    0.22140    66.00000

 Normal termination of Gaussian 16 at Thu Dec 10 22:05:43 2020.
