 Gaussian 16, Revision A.03,

 -----------------------------------------------------------
 # opt freq B3LYP/6-31G(d) empiricaldispersion=gd3bj scf=xqc
 -----------------------------------------------------------

 -------------------------------
 CID_152490670_JID_1378_neutraal
 -------------------------------
 Symbolic Z-matrix:
 Charge =  0 Multiplicity = 1

 SCF Done:  E(RB3LYP) =  -528.723858594     A.U. after   16 cycles
 SCF Done:  E(RB3LYP) =  -528.730527232     A.U. after   14 cycles
 SCF Done:  E(RB3LYP) =  -528.731832167     A.U. after   14 cycles
 SCF Done:  E(RB3LYP) =  -528.732323199     A.U. after   13 cycles
 SCF Done:  E(RB3LYP) =  -528.732496192     A.U. after   15 cycles
 SCF Done:  E(RB3LYP) =  -528.732702570     A.U. after   11 cycles
 SCF Done:  E(RB3LYP) =  -528.732841057     A.U. after   13 cycles
 SCF Done:  E(RB3LYP) =  -528.732901125     A.U. after   13 cycles
 SCF Done:  E(RB3LYP) =  -528.733020779     A.U. after   16 cycles
 SCF Done:  E(RB3LYP) =  -528.702554404     A.U. after   16 cycles
 SCF Done:  E(RB3LYP) =  -528.733415548     A.U. after   13 cycles
 SCF Done:  E(RB3LYP) =  -528.733436223     A.U. after   11 cycles
 SCF Done:  E(RB3LYP) =  -528.733438627     A.U. after   10 cycles
 SCF Done:  E(RB3LYP) =  -528.733438849     A.U. after    8 cycles
 SCF Done:  E(RB3LYP) =  -528.733438916     A.U. after    8 cycles
 SCF Done:  E(RB3LYP) =  -528.733438967     A.U. after    8 cycles
 Optimization completed.
    -- Stationary point found.
 Normal termination of Gaussian 16 at Tue Dec  8 20:06:04 2020.

 --------------------------------------------------------------------
 #N Geom=AllCheck Guess=TCheck SCRF=Check GenChk RB3LYP/6-31G(d) Freq
 --------------------------------------------------------------------

 Structure from the checkpoint file:  "JID_1378.chk"
 -------------------------------
 CID_152490670_JID_1378_neutraal
 -------------------------------
 Charge =  0 Multiplicity = 1

 SCF Done:  E(RB3LYP) =  -528.733438967     A.U. after    1 cycles

  Exact polarizability:  98.800 -10.869  92.845  -5.879   4.980  71.469
 Approx polarizability: 125.731 -29.048 162.746 -15.653  24.723 122.191

                      1                      2                      3
                      A                      A                      A
 Frequencies --     44.2839                47.8044                77.8435
 Red. masses --      4.3552                 9.2870                 3.4553
 Frc consts  --      0.0050                 0.0125                 0.0123
 IR Inten    --      0.6282                 0.0086                 0.9267

                      4                      5                      6
                      A                      A                      A
 Frequencies --    133.6975               202.3326               249.8299
 Red. masses --      4.8019                 4.3548                 7.4573
 Frc consts  --      0.0506                 0.1050                 0.2742
 IR Inten    --      1.7721                 0.2719                 2.8201

                      7                      8                      9
                      A                      A                      A
 Frequencies --    298.3947               321.8359               421.6667
 Red. masses --      2.1270                 5.5777                 2.2923
 Frc consts  --      0.1116                 0.3404                 0.2401
 IR Inten    --      3.2463                 5.2092                 3.7738

                     10                     11                     12
                      A                      A                      A
 Frequencies --    444.4615               497.4274               526.6363
 Red. masses --      2.5781                 2.4965                13.3298
 Frc consts  --      0.3001                 0.3640                 2.1782
 IR Inten    --      1.4841                 3.1787                 9.2421

                     13                     14                     15
                      A                      A                      A
 Frequencies --    577.7960               656.4568               679.7695
 Red. masses --      2.8351                10.0822                 3.2622
 Frc consts  --      0.5577                 2.5599                 0.8881
 IR Inten    --     47.1032                 3.9582                 2.6561

                     16                     17                     18
                      A                      A                      A
 Frequencies --    776.8386               807.4346               810.7436
 Red. masses --      2.1819                 1.3972                 1.7853
 Frc consts  --      0.7758                 0.5367                 0.6914
 IR Inten    --      1.8665                 5.9736                42.3792

                     19                     20                     21
                      A                      A                      A
 Frequencies --    858.1404               873.1978               916.7038
 Red. masses --      3.5703                 5.2466                 1.7219
 Frc consts  --      1.5491                 2.3570                 0.8525
 IR Inten    --      5.9368                24.3127                 1.9649

                     22                     23                     24
                      A                      A                      A
 Frequencies --    938.1866               977.6547              1005.2610
 Red. masses --      2.0080                 2.5819                 2.0182
 Frc consts  --      1.0414                 1.4540                 1.2016
 IR Inten    --      2.8089                 1.8629                24.2089

                     25                     26                     27
                      A                      A                      A
 Frequencies --   1032.2307              1045.2327              1069.8206
 Red. masses --      2.3621                 2.4697                 1.6802
 Frc consts  --      1.4828                 1.5897                 1.1330
 IR Inten    --      7.3672                75.8865                 8.6972

                     28                     29                     30
                      A                      A                      A
 Frequencies --   1083.7885              1108.7356              1113.9961
 Red. masses --      1.4312                 1.8618                 1.5029
 Frc consts  --      0.9905                 1.3485                 1.0989
 IR Inten    --      4.9618                 1.2249                 1.9045

                     31                     32                     33
                      A                      A                      A
 Frequencies --   1140.6402              1152.2869              1198.8660
 Red. masses --      2.3946                 2.6149                 6.4203
 Frc consts  --      1.8356                 2.0456                 5.4369
 IR Inten    --      1.8707                28.6551                30.4462

                     34                     35                     36
                      A                      A                      A
 Frequencies --   1223.1866              1243.7729              1288.3876
 Red. masses --      1.6354                 1.3530                 1.2663
 Frc consts  --      1.4416                 1.2331                 1.2385
 IR Inten    --      1.8410                 1.6280                 9.9963

                     37                     38                     39
                      A                      A                      A
 Frequencies --   1316.8966              1330.8382              1357.8514
 Red. masses --      1.3396                 1.1677                 1.5944
 Frc consts  --      1.3688                 1.2185                 1.7320
 IR Inten    --     23.2087                 9.7069                 9.4033

                     40                     41                     42
                      A                      A                      A
 Frequencies --   1371.0787              1414.2286              1424.2392
 Red. masses --      1.3273                 1.6599                 1.4455
 Frc consts  --      1.4701                 1.9560                 1.7276
 IR Inten    --      1.5156                 8.0428                11.0241

                     43                     44                     45
                      A                      A                      A
 Frequencies --   1459.8582              1497.8655              1507.3540
 Red. masses --      1.2851                 1.0959                 1.3803
 Frc consts  --      1.6137                 1.4487                 1.8478
 IR Inten    --      8.2843                 3.4914                 4.3132

                     46                     47                     48
                      A                      A                      A
 Frequencies --   1526.3075              2192.3426              2961.1683
 Red. masses --      1.0995                13.9836                 1.0836
 Frc consts  --      1.5092                39.5991                 5.5979
 IR Inten    --      3.9068               302.7254                60.7439

                     49                     50                     51
                      A                      A                      A
 Frequencies --   3064.7670              3067.2248              3118.2566
 Red. masses --      1.0625                 1.0593                 1.1047
 Frc consts  --      5.8798                 5.8714                 6.3289
 IR Inten    --     32.9164                21.5822                 9.5929

                     52                     53                     54
                      A                      A                      A
 Frequencies --   3121.8419              3136.4646              3163.9912
 Red. masses --      1.1057                 1.0535                 1.0909
 Frc consts  --      6.3490                 6.1063                 6.4346
 IR Inten    --     26.1866                19.8620                25.6129

                     55                     56                     57
                      A                      A                      A
 Frequencies --   3187.9140              3224.4037              3539.2298
 Red. masses --      1.0934                 1.1175                 1.0756
 Frc consts  --      6.5471                 6.8454                 7.9381
 IR Inten    --     16.0889                16.7851                 0.8644

 - Thermochemistry -
 -------------------
 Temperature   298.150 Kelvin.  Pressure   1.00000 Atm.
 Atom     1 has atomic number  6 and mass  12.00000

 Molecular mass:   154.08546 amu.
 Principal axes and moments of inertia in atomic units:
                           1         2         3
     Eigenvalues --   781.043272754.768003242.77724
           X            0.99990   0.01445  -0.00045
           Y           -0.01446   0.99983  -0.01165
           Z            0.00028   0.01165   0.99993
 This molecule is an asymmetric top.
 Rotational symmetry number  1.
 Warning -- assumption of classical behavior for rotation
           may cause significant error
 Rotational temperatures (Kelvin)      0.11090     0.03144     0.02671
 Rotational constants (GHZ):           2.31068     0.65513     0.55654
 Zero-point vibrational energy     447579.6 (Joules/Mol)
                                  106.97409 (Kcal/Mol)
 Warning -- explicit consideration of  13 degrees of freedom as
           vibrations may cause significant error
 Vibrational temperatures:     63.71    68.78   112.00   192.36   291.11
          (Kelvin)            359.45   429.32   463.05   606.68   639.48
                              715.69   757.71   831.32   944.49   978.04
                             1117.70  1161.72  1166.48  1234.67  1256.34
                             1318.93  1349.84  1406.63  1446.35  1485.15
                             1503.86  1539.23  1559.33  1595.22  1602.79
                             1641.13  1657.88  1724.90  1759.89  1789.51
                             1853.70  1894.72  1914.78  1953.65  1972.68
                             2034.76  2049.16  2100.41  2155.09  2168.75
                             2196.02  3154.29  4260.46  4409.52  4413.05
                             4486.48  4491.63  4512.67  4552.28  4586.70
                             4639.20  5092.16

 Zero-point correction=                           0.170474 (Hartree/Particle)
 Thermal correction to Energy=                    0.180586
 Thermal correction to Enthalpy=                  0.181531
 Thermal correction to Gibbs Free Energy=         0.133510
 Sum of electronic and zero-point Energies=           -528.562965
 Sum of electronic and thermal Energies=              -528.552853
 Sum of electronic and thermal Enthalpies=            -528.551908
 Sum of electronic and thermal Free Energies=         -528.599929

                     E (Thermal)             CV                S
                      KCal/Mol        Cal/Mol-Kelvin    Cal/Mol-Kelvin
 Total                  113.320             37.626            101.068
 Electronic               0.000              0.000              0.000
 Translational            0.889              2.981             41.007
 Rotational               0.889              2.981             30.324
 Vibrational            111.542             31.664             29.738
 Vibration     1          0.595              1.980              5.058
 Vibration     2          0.595              1.978              4.906
 Vibration     3          0.599              1.964              3.945
 Vibration     4          0.613              1.920              2.892
 Vibration     5          0.639              1.837              2.112
 Vibration     6          0.663              1.763              1.732
 Vibration     7          0.691              1.677              1.426
 Vibration     8          0.707              1.632              1.301
 Vibration     9          0.784              1.423              0.886
 Vibration    10          0.804              1.373              0.813
 Vibration    11          0.853              1.256              0.665
 Vibration    12          0.882              1.191              0.595
 Vibration    13          0.934              1.079              0.489

 Optimization completed.
    -- Stationary point found.
 Normal termination of Gaussian 16 at Tue Dec  8 20:10:11 2020.

 ----------------------------------------------------------------------
 # B3LYP/6-311++G(d,p) empiricaldispersion=gd3bj scf=xqc pop=npa geom=c
 heck
 ----------------------------------------------------------------------

 ---------------------------------------
 CID_152490670_JID_1378_Energie_neutraal
 ---------------------------------------
 Structure from the checkpoint file:  "JID_1378.chk"
 Charge =  0 Multiplicity = 1

 SCF Done:  E(RB3LYP) =  -528.883941525     A.U. after   17 cycles
 Normal termination of Gaussian 16 at Tue Dec  8 20:13:18 2020.

 ----------------------------------------------------------------------
 # B3LYP/6-311++G(d,p) empiricaldispersion=gd3bj scf=xqc pop=npa geom=c
 heck
 ----------------------------------------------------------------------

 -------------------------------------
 CID_152490670_JID_1378_Energie_kation
 -------------------------------------
 Structure from the checkpoint file:  "JID_1378.chk"
 Charge =  1 Multiplicity = 2

 SCF Done:  E(UB3LYP) =  -528.578704248     A.U. after   25 cycles
 Normal termination of Gaussian 16 at Tue Dec  8 20:17:36 2020.
 Gaussian 16:  ES64L-G16RevA.03 25-Dec-2016

 ----------------------------------------------------------------------
 # B3LYP/6-311++G(d,p) empiricaldispersion=gd3bj scf=xqc pop=npa geom=c
 heck
 ----------------------------------------------------------------------

 ------------------------------------
 CID_152490670_JID_1378_Energie_anion
 ------------------------------------
 Structure from the checkpoint file:  "JID_1378.chk"
 Charge = -1 Multiplicity = 2

                         Standard orientation:
 ---------------------------------------------------------------------
 Center     Atomic      Atomic             Coordinates (Angstroms)
 Number     Number       Type             X           Y           Z
 ---------------------------------------------------------------------
      1          6           0       -0.497553   -0.821401    0.098711
      2          6           0       -1.947083   -1.242960   -0.147070
      3          6           0       -3.001743   -0.741990    0.820509
      4          6           0       -2.711793    0.018889   -0.445077
      5          7           0       -1.783474    1.137610   -0.310357
      6          6           0       -0.412955    0.613972   -0.475639
      7          6           0        0.554197    1.555562    0.238732
      8          8           0        1.936171    1.283490   -0.038153
      9          7           0        2.372267    0.179355    0.785466
     10          7           0        2.784736   -0.722650    0.020994
     11          7           0        3.219655   -1.611221   -0.549739
     12          1           0        0.206359   -1.491394   -0.402406
     13          1           0       -0.251905   -0.824118    1.166847
     14          1           0       -2.139797   -2.160476   -0.694390
     15          1           0       -2.669118   -0.287534    1.750393
     16          1           0       -3.929028   -1.305991    0.886110
     17          1           0       -3.456069    0.075318   -1.235729
     18          1           0       -1.988468    1.868880   -0.984132
     19          1           0       -0.112836    0.555972   -1.536945
     20          1           0        0.427370    2.579371   -0.129299
     21          1           0        0.373415    1.547953    1.319225
 ---------------------------------------------------------------------

 SCF Done:  E(UB3LYP) =  -528.891630374     A.U. after   30 cycles

 The electronic state is 2-A.
 Alpha  occ. eigenvalues --  -19.00401 -14.27016 -14.22093 -14.19037 -14.19030
 Alpha  occ. eigenvalues --  -10.09176 -10.08733 -10.08153 -10.06698 -10.06216
 Alpha  occ. eigenvalues --  -10.05220  -0.97331  -0.90155  -0.82527  -0.75845
 Alpha  occ. eigenvalues --   -0.71670  -0.64019  -0.56748  -0.48913  -0.46287
 Alpha  occ. eigenvalues --   -0.45732  -0.42582  -0.41647  -0.35450  -0.34910
 Alpha  occ. eigenvalues --   -0.34002  -0.33383  -0.31228  -0.30217  -0.29135
 Alpha  occ. eigenvalues --   -0.28060  -0.26314  -0.25094  -0.24643  -0.22463
 Alpha  occ. eigenvalues --   -0.20758  -0.18357  -0.17486  -0.13683  -0.10949
 Alpha  occ. eigenvalues --   -0.07762   0.04770
 Alpha virt. eigenvalues --    0.06321   0.08313   0.09351   0.09916   0.11374
 Alpha virt. eigenvalues --    0.12136   0.12630   0.13940   0.14164   0.14503
 Alpha virt. eigenvalues --    0.16429   0.16975   0.17484   0.17871   0.18489

  Beta  occ. eigenvalues --  -19.00068 -14.26560 -14.22103 -14.19016 -14.18264
  Beta  occ. eigenvalues --  -10.09157 -10.08727 -10.08153 -10.06690 -10.06211
  Beta  occ. eigenvalues --  -10.05221  -0.96447  -0.89321  -0.82495  -0.75213
  Beta  occ. eigenvalues --   -0.71616  -0.63959  -0.56554  -0.48772  -0.46197
  Beta  occ. eigenvalues --   -0.45695  -0.42516  -0.41122  -0.35234  -0.34383
  Beta  occ. eigenvalues --   -0.33261  -0.32814  -0.30948  -0.29794  -0.28814
  Beta  occ. eigenvalues --   -0.26813  -0.26004  -0.24655  -0.24470  -0.22094
  Beta  occ. eigenvalues --   -0.20612  -0.17854  -0.16931  -0.13235  -0.10917
  Beta  occ. eigenvalues --   -0.07448
  Beta virt. eigenvalues --    0.07192   0.08698   0.09498   0.10216   0.11432
  Beta virt. eigenvalues --    0.11868   0.12486   0.12947   0.14016   0.14094
  Beta virt. eigenvalues --    0.14534   0.16638   0.16983   0.17658   0.17983

 Mulliken charges and spin densities:
               1          2
     1  C   -0.578360  -0.125065
     2  C    0.171527   0.035049
     3  C    0.182495  -0.475699
     4  C    0.092846  -0.456915
     5  N   -0.125411   0.053783
     6  C    0.139620  -0.333708
     7  C   -0.320577  -0.008919
     8  O   -0.056152   0.025688
     9  N   -0.511048  -0.078709
    10  N    0.280069   0.230231
    11  N   -0.290006   0.474518
    12  H    0.160474  -0.028716
    13  H    0.188817   0.000420
    14  H   -0.109465   0.329151
    15  H    0.105098   0.011588
    16  H    0.001776   0.121369
    17  H   -0.745785   0.931622
    18  H    0.077142   0.156402
    19  H    0.085977   0.090558
    20  H    0.128447   0.020645
    21  H    0.122515   0.026707
 Sum of Mulliken charges =  -1.00000   1.00000

 Dipole moment (field-independent basis, Debye):
    X=             -3.1035    Y=              1.2444    Z=              1.6750  Tot=              3.7398
 Quadrupole moment (field-independent basis, Debye-Ang):
   XX=           -126.6939   YY=            -86.3990   ZZ=            -82.5686
   XY=              6.1156   XZ=             -5.4123   YZ=             -3.6964

 Summary of Natural Population Analysis:

                                       Natural Population
                Natural  -----------------------------------------------
    Atom  No    Charge         Core      Valence    Rydberg      Total
 -----------------------------------------------------------------------
      C    1   -0.20111      0.99962     2.19106    0.01044     3.20111
      C    2   -0.11890      0.99959     2.10884    0.01047     3.11890
      C    3   -0.20312      0.99961     2.19506    0.00845     3.20312
      C    4   -0.01416      0.99956     2.00113    0.01346     3.01416
      N    5   -0.34948      0.99972     2.83729    0.01247     3.84948
      C    6   -0.02134      0.99960     2.00774    0.01400     3.02134
      C    7   -0.00940      0.99956     1.99439    0.01545     3.00940
      O    8   -0.20704      0.99990     3.19823    0.00891     4.20704
      N    9   -0.10545      0.99973     2.58902    0.01670     3.60545
      N   10    0.12810      0.99972     2.35717    0.01501     3.37190
      N   11    0.04814      0.99982     2.43836    0.01368     3.45186
      H   12    0.11199      0.00000     0.38700    0.00101     0.38801
      H   13    0.10247      0.00000     0.39637    0.00116     0.39753
      H   14    0.10472      0.00000     0.39420    0.00108     0.39528
      H   15    0.10190      0.00000     0.39686    0.00125     0.39810
      H   16    0.09868      0.00000     0.40034    0.00098     0.40132
      H   17    0.09848      0.00000     0.39858    0.00294     0.40152
      H   18    0.18048      0.00000     0.31751    0.00201     0.31952
      H   19    0.08408      0.00000     0.41399    0.00193     0.41592
      H   20    0.08594      0.00000     0.41302    0.00104     0.41406
      H   21    0.08501      0.00000     0.41391    0.00108     0.41499
 =======================================================================
   * Total *    0.00000     10.99642    29.85007    0.15352    41.00000

 Normal termination of Gaussian 16 at Tue Dec  8 20:23:22 2020.
