 Gaussian 16, Revision A.03,

 -----------------------------------------------------------
 # opt freq B3LYP/6-31G(d) empiricaldispersion=gd3bj scf=xqc
 -----------------------------------------------------------

 -------------------------------
 CID_142638435_JID_5246_neutraal
 -------------------------------
 Symbolic Z-matrix:
 Charge =  0 Multiplicity = 1

 SCF Done:  E(RB3LYP) =  -728.293862820     A.U. after   14 cycles
 SCF Done:  E(RB3LYP) =  -728.298065367     A.U. after   12 cycles
 SCF Done:  E(RB3LYP) =  -728.298387410     A.U. after   12 cycles
 SCF Done:  E(RB3LYP) =  -728.299236305     A.U. after   11 cycles
 SCF Done:  E(RB3LYP) =  -728.299451155     A.U. after   11 cycles
 SCF Done:  E(RB3LYP) =  -728.299575031     A.U. after   11 cycles
 SCF Done:  E(RB3LYP) =  -728.299699780     A.U. after   10 cycles
 SCF Done:  E(RB3LYP) =  -728.299733094     A.U. after   10 cycles
 SCF Done:  E(RB3LYP) =  -728.299736975     A.U. after    9 cycles
 SCF Done:  E(RB3LYP) =  -728.299738607     A.U. after    8 cycles
 SCF Done:  E(RB3LYP) =  -728.299741149     A.U. after    9 cycles
 SCF Done:  E(RB3LYP) =  -728.299741862     A.U. after    9 cycles
 SCF Done:  E(RB3LYP) =  -728.299742047     A.U. after    8 cycles
 SCF Done:  E(RB3LYP) =  -728.299742045     A.U. after    7 cycles
 SCF Done:  E(RB3LYP) =  -728.299741921     A.U. after    7 cycles
 SCF Done:  E(RB3LYP) =  -728.299741848     A.U. after    7 cycles
 Optimization completed.
    -- Stationary point found.
 Normal termination of Gaussian 16 at Thu Dec 10 14:56:55 2020.

 --------------------------------------------------------------------
 #N Geom=AllCheck Guess=TCheck SCRF=Check GenChk RB3LYP/6-31G(d) Freq
 --------------------------------------------------------------------

 Structure from the checkpoint file:  "JID_5246.chk"
 -------------------------------
 CID_142638435_JID_5246_neutraal
 -------------------------------
 Charge =  0 Multiplicity = 1

 SCF Done:  E(RB3LYP) =  -728.299741848     A.U. after    1 cycles

  Exact polarizability: 159.284  -1.958 120.627   5.852  -2.157 105.085
 Approx polarizability: 181.939  -6.284 180.079   7.325  -7.777 153.846

                      1                      2                      3
                      A                      A                      A
 Frequencies --     15.8713                32.0426                46.0786
 Red. masses --      4.4279                 3.4085                 4.1869
 Frc consts  --      0.0007                 0.0021                 0.0052
 IR Inten    --      0.3661                 0.6274                 0.2662

                      4                      5                      6
                      A                      A                      A
 Frequencies --     65.8948                80.4983               100.6146
 Red. masses --      3.6852                 3.1391                 4.1079
 Frc consts  --      0.0094                 0.0120                 0.0245
 IR Inten    --      0.1924                 0.7912                 0.1879

                      7                      8                      9
                      A                      A                      A
 Frequencies --    126.4587               139.5359               155.5410
 Red. masses --      4.2168                 3.2478                 2.9690
 Frc consts  --      0.0397                 0.0373                 0.0423
 IR Inten    --      2.1855                 0.0086                 0.7735

                     10                     11                     12
                      A                      A                      A
 Frequencies --    171.6417               186.8484               191.3112
 Red. masses --      2.0936                 1.2369                 1.8478
 Frc consts  --      0.0363                 0.0254                 0.0398
 IR Inten    --      3.3523                41.6662                11.9204

                     13                     14                     15
                      A                      A                      A
 Frequencies --    227.1927               259.3484               270.7511
 Red. masses --      2.7572                 2.8781                 1.9144
 Frc consts  --      0.0839                 0.1141                 0.0827
 IR Inten    --      5.6487                 3.6004                 1.1751

                     16                     17                     18
                      A                      A                      A
 Frequencies --    288.4485               366.1693               381.0831
 Red. masses --      2.6855                 3.0153                 2.5891
 Frc consts  --      0.1316                 0.2382                 0.2215
 IR Inten    --      1.5926                15.0060                 7.0796

                     19                     20                     21
                      A                      A                      A
 Frequencies --    395.2670               447.0114               495.4272
 Red. masses --      2.1825                 2.2941                 3.4697
 Frc consts  --      0.2009                 0.2701                 0.5018
 IR Inten    --      1.0570                 5.6929                 8.2154

                     22                     23                     24
                      A                      A                      A
 Frequencies --    502.3449               578.6830               617.8788
 Red. masses --      2.5799                 3.7813                 2.5865
 Frc consts  --      0.3836                 0.7461                 0.5818
 IR Inten    --      4.2266                 6.0041                13.2089

                     25                     26                     27
                      A                      A                      A
 Frequencies --    721.2264               753.7518               765.9017
 Red. masses --      2.9073                 7.1478                 1.4727
 Frc consts  --      0.8910                 2.3926                 0.5090
 IR Inten    --      2.3798                27.1127                 5.2254

                     28                     29                     30
                      A                      A                      A
 Frequencies --    812.1534               824.3069               849.6770
 Red. masses --      2.2850                 2.4740                 3.2435
 Frc consts  --      0.8880                 0.9904                 1.3797
 IR Inten    --      2.7991                 0.9026                 5.3660

                     31                     32                     33
                      A                      A                      A
 Frequencies --    878.9100               886.6289               900.9545
 Red. masses --      1.7078                 3.7855                 2.3672
 Frc consts  --      0.7773                 1.7533                 1.1321
 IR Inten    --      6.5707                 6.6433                 9.9741

                     34                     35                     36
                      A                      A                      A
 Frequencies --    953.9275               959.3639               976.8602
 Red. masses --      1.6848                 1.7987                 1.4406
 Frc consts  --      0.9033                 0.9754                 0.8099
 IR Inten    --      3.9108                 6.9555                 4.9987

                     37                     38                     39
                      A                      A                      A
 Frequencies --    996.3129              1009.8121              1017.6966
 Red. masses --      2.3256                 1.9336                 1.6876
 Frc consts  --      1.3601                 1.1617                 1.0298
 IR Inten    --     20.2932                 0.0978                16.9913

                     40                     41                     42
                      A                      A                      A
 Frequencies --   1030.9858              1087.7680              1090.7450
 Red. masses --      3.0646                 2.1214                 2.2231
 Frc consts  --      1.9192                 1.4789                 1.5583
 IR Inten    --     53.6776                 6.6564                11.9322

                     43                     44                     45
                      A                      A                      A
 Frequencies --   1121.1407              1139.6061              1155.9894
 Red. masses --      3.2526                 2.3740                 2.0786
 Frc consts  --      2.4088                 1.8165                 1.6365
 IR Inten    --     63.0499                37.2055                51.7715

                     46                     47                     48
                      A                      A                      A
 Frequencies --   1167.9485              1177.8232              1206.2063
 Red. masses --      2.2131                 2.4145                 1.3523
 Frc consts  --      1.7786                 1.9735                 1.1592
 IR Inten    --     68.4132                91.3170                20.7558

                     49                     50                     51
                      A                      A                      A
 Frequencies --   1230.1663              1248.5523              1263.4858
 Red. masses --      1.4933                 1.8050                 1.4511
 Frc consts  --      1.3315                 1.6578                 1.3649
 IR Inten    --     37.6502                25.2889                26.2212

                     52                     53                     54
                      A                      A                      A
 Frequencies --   1271.9937              1278.9994              1297.0302
 Red. masses --      1.5758                 1.3044                 1.2414
 Frc consts  --      1.5022                 1.2572                 1.2304
 IR Inten    --     37.3470                 2.2987                 3.7486

                     55                     56                     57
                      A                      A                      A
 Frequencies --   1313.1350              1320.3176              1331.4515
 Red. masses --      1.2936                 1.4390                 1.1665
 Frc consts  --      1.3143                 1.4780                 1.2184
 IR Inten    --      7.9125                 8.4078                 2.5880

                     58                     59                     60
                      A                      A                      A
 Frequencies --   1342.6683              1346.3754              1374.7907
 Red. masses --      1.1034                 1.1651                 1.3569
 Frc consts  --      1.1720                 1.2443                 1.5110
 IR Inten    --      5.5593                 0.3953                46.4205

                     61                     62                     63
                      A                      A                      A
 Frequencies --   1387.8492              1391.0537              1407.2201
 Red. masses --      1.4029                 1.3747                 1.5623
 Frc consts  --      1.5921                 1.5673                 1.8229
 IR Inten    --     17.4125                 0.7526                87.7517

                     64                     65                     66
                      A                      A                      A
 Frequencies --   1413.6161              1418.1370              1433.8108
 Red. masses --      1.4504                 1.5522                 1.4413
 Frc consts  --      1.7076                 1.8392                 1.7458
 IR Inten    --      6.3738               100.4295                46.4906

                     67                     68                     69
                      A                      A                      A
 Frequencies --   1448.4176              1469.3136              1501.7839
 Red. masses --      1.2643                 3.2267                 1.0903
 Frc consts  --      1.5628                 4.1043                 1.4487
 IR Inten    --     13.6316               346.0917                 1.3235

                     70                     71                     72
                      A                      A                      A
 Frequencies --   1504.9777              1514.0213              1524.0167
 Red. masses --      1.0892                 1.0984                 1.0637
 Frc consts  --      1.4535                 1.4835                 1.4556
 IR Inten    --      0.5925                 4.8171                 1.3757

                     73                     74                     75
                      A                      A                      A
 Frequencies --   1528.6037              1534.7063              1548.1456
 Red. masses --      1.0935                 1.0775                 1.0795
 Frc consts  --      1.5055                 1.4952                 1.5244
 IR Inten    --     35.6983                19.6826                 1.4727

                     76                     77                     78
                      A                      A                      A
 Frequencies --   1554.9357              1557.8001              1691.5317
 Red. masses --      1.0572                 1.0960                 1.0663
 Frc consts  --      1.5060                 1.5671                 1.7976
 IR Inten    --      2.3963                 3.0378                24.3441

                     79                     80                     81
                      A                      A                      A
 Frequencies --   1792.1877              3018.5285              3030.4156
 Red. masses --     10.9545                 1.0716                 1.0618
 Frc consts  --     20.7305                 5.7526                 5.7451
 IR Inten    --    423.8308                27.2792                20.2814

                     82                     83                     84
                      A                      A                      A
 Frequencies --   3032.2393              3033.5489              3039.6878
 Red. masses --      1.0673                 1.0685                 1.0626
 Frc consts  --      5.7819                 5.7932                 5.7848
 IR Inten    --     66.1458                 1.2729                22.3011

                     85                     86                     87
                      A                      A                      A
 Frequencies --   3043.2641              3046.3838              3068.9304
 Red. masses --      1.0415                 1.0793                 1.0982
 Frc consts  --      5.6829                 5.9014                 6.0940
 IR Inten    --     31.2394                36.6328                36.1144

                     88                     89                     90
                      A                      A                      A
 Frequencies --   3075.5179              3077.0837              3083.6037
 Red. masses --      1.0977                 1.0668                 1.0687
 Frc consts  --      6.1174                 5.9513                 5.9872
 IR Inten    --     44.8575                20.9806                66.7398

                     91                     92                     93
                      A                      A                      A
 Frequencies --   3090.0710              3104.9123              3107.2935
 Red. masses --      1.1046                 1.1004                 1.0937
 Frc consts  --      6.2141                 6.2501                 6.2217
 IR Inten    --     26.9763                47.5011                30.7149

                     94                     95                     96
                      A                      A                      A
 Frequencies --   3115.0167              3138.7538              3140.3040
 Red. masses --      1.0930                 1.1010                 1.1008
 Frc consts  --      6.2488                 6.3907                 6.3957
 IR Inten    --     24.5288                37.7664                13.5504

                     97                     98                     99
                      A                      A                      A
 Frequencies --   3154.7402              3411.5104              3503.6040
 Red. masses --      1.1008                 1.0479                 1.0959
 Frc consts  --      6.4548                 7.1853                 7.9262
 IR Inten    --      8.6304                 3.3811                 0.8549

 - Thermochemistry -
 -------------------
 Temperature   298.150 Kelvin.  Pressure   1.00000 Atm.
 Atom     1 has atomic number  6 and mass  12.00000

 Molecular mass:   216.14739 amu.
 Principal axes and moments of inertia in atomic units:
                           1         2         3
     Eigenvalues --  1261.107968074.227828212.50686
           X            0.99998  -0.00333  -0.00579
           Y            0.00379   0.99669   0.08125
           Z            0.00550  -0.08127   0.99668
 This molecule is an asymmetric top.
 Rotational symmetry number  1.
 Warning -- assumption of classical behavior for rotation
           may cause significant error
 Rotational temperatures (Kelvin)      0.06868     0.01073     0.01055
 Rotational constants (GHZ):           1.43108     0.22352     0.21976
 Zero-point vibrational energy     814562.1 (Joules/Mol)
                                  194.68501 (Kcal/Mol)
 Warning -- explicit consideration of  24 degrees of freedom as
           vibrations may cause significant error
 Vibrational temperatures:     22.84    46.10    66.30    94.81   115.82
          (Kelvin)            144.76   181.95   200.76   223.79   246.95
                              268.83   275.25   326.88   373.14   389.55
                              415.01   526.84   548.29   568.70   643.15
                              712.81   722.76   832.60   888.99  1037.68
                             1084.48  1101.96  1168.51  1185.99  1222.50
                             1264.56  1275.66  1296.27  1372.49  1380.31
                             1405.48  1433.47  1452.89  1464.24  1483.36
                             1565.06  1569.34  1613.07  1639.64  1663.21
                             1680.42  1694.62  1735.46  1769.93  1796.39
                             1817.87  1830.12  1840.19  1866.14  1889.31
                             1899.64  1915.66  1931.80  1937.13  1978.02
                             1996.81  2001.42  2024.68  2033.88  2040.38
                             2062.93  2083.95  2114.01  2160.73  2165.33
                             2178.34  2192.72  2199.32  2208.10  2227.44
                             2237.21  2241.33  2433.74  2578.56  4342.99
                             4360.09  4362.72  4364.60  4373.43  4378.58
                             4383.07  4415.51  4424.98  4427.24  4436.62
                             4445.92  4467.28  4470.70  4481.81  4515.97
                             4518.20  4538.97  4908.40  5040.90

 Zero-point correction=                           0.310250 (Hartree/Particle)
 Thermal correction to Energy=                    0.327006
 Thermal correction to Enthalpy=                  0.327951
 Thermal correction to Gibbs Free Energy=         0.263479
 Sum of electronic and zero-point Energies=           -727.989492
 Sum of electronic and thermal Energies=              -727.972735
 Sum of electronic and thermal Enthalpies=            -727.971791
 Sum of electronic and thermal Free Energies=         -728.036263

                     E (Thermal)             CV                S
                      KCal/Mol        Cal/Mol-Kelvin    Cal/Mol-Kelvin
 Total                  205.200             60.078            135.693
 Electronic               0.000              0.000              0.000
 Translational            0.889              2.981             42.016
 Rotational               0.889              2.981             32.792
 Vibrational            203.422             54.117             60.885
 Vibration     1          0.593              1.986              7.093
 Vibration     2          0.594              1.983              5.699
 Vibration     3          0.595              1.979              4.979
 Vibration     4          0.597              1.971              4.272
 Vibration     5          0.600              1.962              3.879
 Vibration     6          0.604              1.949              3.442
 Vibration     7          0.611              1.927              2.999
 Vibration     8          0.615              1.914              2.810
 Vibration     9          0.620              1.896              2.603
 Vibration    10          0.626              1.877              2.417
 Vibration    11          0.632              1.858              2.259
 Vibration    12          0.634              1.852              2.215
 Vibration    13          0.651              1.800              1.901
 Vibration    14          0.668              1.747              1.666
 Vibration    15          0.674              1.727              1.591
 Vibration    16          0.685              1.695              1.483
 Vibration    17          0.739              1.542              1.096
 Vibration    18          0.751              1.511              1.035
 Vibration    19          0.762              1.480              0.980
 Vibration    20          0.806              1.367              0.805
 Vibration    21          0.851              1.260              0.670
 Vibration    22          0.858              1.245              0.652
 Vibration    23          0.935              1.077              0.488
 Vibration    24          0.978              0.994              0.420

 Optimization completed.
    -- Stationary point found.
 Normal termination of Gaussian 16 at Thu Dec 10 15:07:49 2020.

 ----------------------------------------------------------------------
 # B3LYP/6-311++G(d,p) empiricaldispersion=gd3bj scf=xqc pop=npa geom=c
 heck
 ----------------------------------------------------------------------

 ---------------------------------------
 CID_142638435_JID_5246_Energie_neutraal
 ---------------------------------------
 Structure from the checkpoint file:  "JID_5246.chk"
 Charge =  0 Multiplicity = 1

 SCF Done:  E(RB3LYP) =  -728.517220701     A.U. after   14 cycles
 Normal termination of Gaussian 16 at Thu Dec 10 15:13:40 2020.

 ----------------------------------------------------------------------
 # B3LYP/6-311++G(d,p) empiricaldispersion=gd3bj scf=xqc pop=npa geom=c
 heck
 ----------------------------------------------------------------------

 -------------------------------------
 CID_142638435_JID_5246_Energie_kation
 -------------------------------------
 Structure from the checkpoint file:  "JID_5246.chk"
 Charge =  1 Multiplicity = 2

 SCF Done:  E(UB3LYP) =  -728.205001242     A.U. after   28 cycles
 Normal termination of Gaussian 16 at Thu Dec 10 15:28:56 2020.
 Gaussian 16:  ES64L-G16RevA.03 25-Dec-2016

 ----------------------------------------------------------------------
 # B3LYP/6-311++G(d,p) empiricaldispersion=gd3bj scf=xqc pop=npa geom=c
 heck
 ----------------------------------------------------------------------

 ------------------------------------
 CID_142638435_JID_5246_Energie_anion
 ------------------------------------
 Structure from the checkpoint file:  "JID_5246.chk"
 Charge = -1 Multiplicity = 2

                         Standard orientation:
 ---------------------------------------------------------------------
 Center     Atomic      Atomic             Coordinates (Angstroms)
 Number     Number       Type             X           Y           Z
 ---------------------------------------------------------------------
      1          6           0       -4.063970    1.501427    1.205850
      2          6           0       -3.721130    0.042789    1.524273
      3          6           0       -4.099120   -0.949332    0.415424
      4          6           0       -3.370595   -0.735820   -0.907422
      5          8           0       -1.951731   -0.912683   -0.726460
      6          6           0       -1.174804    0.203603   -0.828736
      7          8           0       -1.577906    1.315723   -1.140915
      8          7           0        0.116593   -0.086315   -0.541931
      9          6           0        0.637890   -1.394724   -0.138106
     10          6           0        2.043619   -1.056438    0.374115
     11          6           0        2.461492    0.157613   -0.477896
     12          6           0        1.147078    0.946022   -0.619815
     13          6           0        3.582117    1.025338    0.087176
     14          8           0        4.869829    0.422151    0.031187
     15          7           0        5.002173   -0.528000    1.111128
     16          1           0       -3.471387    1.873483    0.365225
     17          1           0       -3.859404    2.145342    2.068738
     18          1           0       -5.127185    1.610101    0.955727
     19          1           0       -2.646625   -0.046237    1.731004
     20          1           0       -4.233732   -0.263904    2.445324
     21          1           0       -3.904669   -1.973435    0.759383
     22          1           0       -5.177727   -0.884017    0.211905
     23          1           0       -3.675669   -1.488637   -1.640944
     24          1           0       -3.547556    0.257737   -1.322135
     25          1           0        0.671678   -2.080031   -0.996178
     26          1           0       -0.002306   -1.848526    0.622614
     27          1           0        2.006055   -0.768868    1.430691
     28          1           0        2.732063   -1.899901    0.289317
     29          1           0        2.772599   -0.193130   -1.470948
     30          1           0        1.024019    1.674110    0.195646
     31          1           0        1.073887    1.496874   -1.561795
     32          1           0        3.688432    1.932220   -0.520659
     33          1           0        3.351406    1.323819    1.118912
     34          1           0        5.262070   -1.393164    0.632552
     35          1           0        5.855687   -0.218029    1.581562
 ---------------------------------------------------------------------

 SCF Done:  E(UB3LYP) =  -728.505779069     A.U. after   30 cycles

 The electronic state is 2-A.
 Alpha  occ. eigenvalues --  -19.06644 -19.05305 -18.99952 -14.24711 -14.24690
 Alpha  occ. eigenvalues --  -10.22083 -10.13188 -10.12434 -10.11519 -10.11048
 Alpha  occ. eigenvalues --  -10.08744 -10.08129 -10.07736 -10.07474 -10.06538
 Alpha  occ. eigenvalues --   -1.01080  -0.96735  -0.92065  -0.85904  -0.73851
 Alpha  occ. eigenvalues --   -0.71547  -0.69921  -0.65440  -0.64219  -0.58959
 Alpha  occ. eigenvalues --   -0.55675  -0.53667  -0.49658  -0.48450  -0.46035
 Alpha  occ. eigenvalues --   -0.45123  -0.42170  -0.40965  -0.40229  -0.38998
 Alpha  occ. eigenvalues --   -0.37523  -0.36558  -0.35911  -0.34357  -0.33967
 Alpha  occ. eigenvalues --   -0.33443  -0.32630  -0.31475  -0.31275  -0.30082
 Alpha  occ. eigenvalues --   -0.29247  -0.28285  -0.27236  -0.26913  -0.25012
 Alpha  occ. eigenvalues --   -0.24764  -0.24601  -0.23890  -0.23482  -0.20440
 Alpha  occ. eigenvalues --   -0.18905  -0.17705  -0.16664  -0.15180   0.04075
 Alpha virt. eigenvalues --    0.05436   0.06908   0.07297   0.07645   0.08047
 Alpha virt. eigenvalues --    0.08587   0.09499   0.10065   0.10269   0.10454
 Alpha virt. eigenvalues --    0.10975   0.11302   0.11890   0.12293   0.12673

  Beta  occ. eigenvalues --  -19.06641 -19.05288 -18.99949 -14.24713 -14.24618
  Beta  occ. eigenvalues --  -10.22080 -10.13179 -10.12426 -10.11512 -10.11031
  Beta  occ. eigenvalues --  -10.08736 -10.08111 -10.07723 -10.07451 -10.06527
  Beta  occ. eigenvalues --   -1.01074  -0.96682  -0.92059  -0.85895  -0.73755
  Beta  occ. eigenvalues --   -0.71500  -0.69875  -0.65409  -0.64193  -0.58928
  Beta  occ. eigenvalues --   -0.55637  -0.53623  -0.49618  -0.48410  -0.46005
  Beta  occ. eigenvalues --   -0.45101  -0.42124  -0.40906  -0.40182  -0.38955
  Beta  occ. eigenvalues --   -0.37508  -0.36537  -0.35882  -0.34334  -0.33933
  Beta  occ. eigenvalues --   -0.33418  -0.32614  -0.31447  -0.31252  -0.30058
  Beta  occ. eigenvalues --   -0.29216  -0.28249  -0.27207  -0.26891  -0.24981
  Beta  occ. eigenvalues --   -0.24733  -0.24581  -0.23864  -0.23454  -0.20428
  Beta  occ. eigenvalues --   -0.18898  -0.17665  -0.16598  -0.15171
  Beta virt. eigenvalues --    0.05939   0.06794   0.07306   0.07830   0.07967
  Beta virt. eigenvalues --    0.08492   0.08758   0.09865   0.10226   0.10545
  Beta virt. eigenvalues --    0.10906   0.11245   0.11371   0.12068   0.12508

 Mulliken charges and spin densities:
               1          2
     1  C    0.071576  -0.621408
     2  C   -0.363647   0.349118
     3  C    0.306465  -0.696812
     4  C    0.204337  -0.291867
     5  O   -0.026574   0.010529
     6  C   -0.072810   0.008369
     7  O   -0.305176  -0.000756
     8  N   -0.210230   0.164944
     9  C    1.172569  -1.643634
    10  C   -0.329706   0.041434
    11  C   -0.765670   1.080948
    12  C    0.172994  -0.745389
    13  C    0.144093  -0.656064
    14  O   -0.162085   0.062277
    15  N   -0.086225  -0.326228
    16  H    0.118628   0.057549
    17  H    0.017725   0.105780
    18  H   -0.008653   0.125549
    19  H    0.027923   0.098149
    20  H   -0.235183   0.405806
    21  H   -0.061162   0.222045
    22  H   -0.145307   0.273567
    23  H   -0.190762   0.368383
    24  H    0.211721  -0.035067
    25  H   -0.074455   0.267849
    26  H   -0.025719   0.207695
    27  H    0.018154   0.170560
    28  H   -0.238199   0.406025
    29  H    0.035303   0.184052
    30  H    0.138386   0.043321
    31  H    0.137959   0.054565
    32  H    0.046599   0.113609
    33  H   -0.006696   0.146156
    34  H   -0.251463   0.506064
    35  H   -0.264707   0.542878
 Sum of Mulliken charges =  -1.00000   1.00000

 Dipole moment (field-independent basis, Debye):
    X=             -4.7605    Y=              3.1560    Z=             -2.0801  Tot=              6.0787
 Quadrupole moment (field-independent basis, Debye-Ang):
   XX=           -214.1400   YY=           -130.8634   ZZ=           -125.1763
   XY=             11.1035   XZ=             -4.6336   YZ=              2.8121

 Summary of Natural Population Analysis:

                                       Natural Population
                Natural  -----------------------------------------------
    Atom  No    Charge         Core      Valence    Rydberg      Total
 -----------------------------------------------------------------------
      C    1   -0.29276      0.99966     2.28858    0.00452     3.29276
      C    2   -0.19344      0.99964     2.18556    0.00825     3.19344
      C    3   -0.19964      0.99962     2.19128    0.00874     3.19964
      C    4   -0.01735      0.99955     2.00569    0.01211     3.01735
      O    5   -0.29062      0.99986     3.28262    0.00814     4.29062
      C    6    0.46631      0.99964     1.51018    0.02388     2.53369
      O    7   -0.34200      0.99987     3.33746    0.00467     4.34200
      N    8   -0.26032      0.99963     2.75177    0.00891     3.76032
      C    9   -0.07791      0.99962     2.06828    0.01001     3.07791
      C   10   -0.19353      0.99962     2.18412    0.00980     3.19353
      C   11   -0.13030      0.99959     2.11869    0.01202     3.13030
      C   12   -0.07470      0.99961     2.06618    0.00891     3.07470
      C   13   -0.00021      0.99955     1.98762    0.01305     3.00021
      O   14   -0.23857      0.99990     3.22612    0.01256     4.23857
      N   15   -0.25528      0.99977     2.74365    0.01186     3.75528
      H   16    0.10991      0.00000     0.38895    0.00114     0.39009
      H   17    0.09716      0.00000     0.40200    0.00084     0.40284
      H   18    0.09148      0.00000     0.40746    0.00106     0.40852
      H   19    0.09686      0.00000     0.40180    0.00133     0.40314
      H   20    0.09605      0.00000     0.40278    0.00118     0.40395
      H   21    0.10051      0.00000     0.39816    0.00133     0.39949
      H   22    0.09717      0.00000     0.40162    0.00121     0.40283
      H   23    0.08918      0.00000     0.40979    0.00103     0.41082
      H   24    0.10035      0.00000     0.39835    0.00130     0.39965
      H   25    0.09348      0.00000     0.40514    0.00138     0.40652
      H   26    0.10343      0.00000     0.39519    0.00138     0.39657
      H   27    0.10069      0.00000     0.39766    0.00165     0.39931
      H   28    0.11110      0.00000     0.38724    0.00166     0.38890
      H   29    0.10016      0.00000     0.39831    0.00153     0.39984
      H   30    0.09313      0.00000     0.40565    0.00122     0.40687
      H   31    0.10268      0.00000     0.39617    0.00115     0.39732
      H   32    0.08830      0.00000     0.41024    0.00146     0.41170
      H   33    0.08445      0.00000     0.41406    0.00149     0.41555
      H   34    0.17372      0.00000     0.31905    0.00723     0.32628
      H   35    0.17052      0.00000     0.32491    0.00457     0.32948
 =======================================================================
   * Total *    0.00000     14.99513    43.81230    0.19257    59.00000

 Normal termination of Gaussian 16 at Thu Dec 10 15:45:51 2020.
