 Gaussian 16, Revision A.03,

 -----------------------------------------------------------
 # opt freq B3LYP/6-31G(d) empiricaldispersion=gd3bj scf=xqc
 -----------------------------------------------------------

 ------------------------------
 CID_90363422_JID_9153_neutraal
 ------------------------------
 Symbolic Z-matrix:
 Charge =  0 Multiplicity = 1

 SCF Done:  E(RB3LYP) =  -1168.04751911     A.U. after   15 cycles
 SCF Done:  E(RB3LYP) =  -1168.05169810     A.U. after   13 cycles
 SCF Done:  E(RB3LYP) =  -1168.05174620     A.U. after   13 cycles
 SCF Done:  E(RB3LYP) =  -1168.05392595     A.U. after   13 cycles
 SCF Done:  E(RB3LYP) =  -1168.05564182     A.U. after   14 cycles
 SCF Done:  E(RB3LYP) =  -1168.05629882     A.U. after   15 cycles
 SCF Done:  E(RB3LYP) =  -1168.05666134     A.U. after   13 cycles
 SCF Done:  E(RB3LYP) =  -1168.05671181     A.U. after   13 cycles
 SCF Done:  E(RB3LYP) =  -1168.05707574     A.U. after   12 cycles
 SCF Done:  E(RB3LYP) =  -1168.05714167     A.U. after   12 cycles
 SCF Done:  E(RB3LYP) =  -1168.05756775     A.U. after   11 cycles
 SCF Done:  E(RB3LYP) =  -1168.05757016     A.U. after   10 cycles
 SCF Done:  E(RB3LYP) =  -1168.05757027     A.U. after    8 cycles
 SCF Done:  E(RB3LYP) =  -1168.05757025     A.U. after    7 cycles
 SCF Done:  E(RB3LYP) =  -1168.05757028     A.U. after    7 cycles
 Optimization completed.
    -- Stationary point found.
 Normal termination of Gaussian 16 at Sun Dec 13 13:11:24 2020.

 --------------------------------------------------------------------
 #N Geom=AllCheck Guess=TCheck SCRF=Check GenChk RB3LYP/6-31G(d) Freq
 --------------------------------------------------------------------

 Structure from the checkpoint file:  "JID_9153.chk"
 ------------------------------
 CID_90363422_JID_9153_neutraal
 ------------------------------
 Charge =  0 Multiplicity = 1

 SCF Done:  E(RB3LYP) =  -1168.05757028     A.U. after    1 cycles

  Exact polarizability: 231.490 -19.514 144.728  10.064  32.764 150.164
 Approx polarizability: 383.203 -29.237 218.336  37.106  81.191 301.060

                      1                      2                      3
                      A                      A                      A
 Frequencies --     29.4325                37.2137                52.8292
 Red. masses --      5.0762                 5.1359                 2.6496
 Frc consts  --      0.0026                 0.0042                 0.0044
 IR Inten    --      0.8650                 1.7671                 0.3574

                      4                      5                      6
                      A                      A                      A
 Frequencies --     58.2010                65.7329                82.2687
 Red. masses --      1.2311                 3.9039                 3.3484
 Frc consts  --      0.0025                 0.0099                 0.0134
 IR Inten    --      0.0879                 0.1061                 0.0916

                      7                      8                      9
                      A                      A                      A
 Frequencies --     96.8371               109.6935               119.7188
 Red. masses --      1.2970                 5.4592                 7.1789
 Frc consts  --      0.0072                 0.0387                 0.0606
 IR Inten    --      0.4779                 1.8814                 0.2993

                     10                     11                     12
                      A                      A                      A
 Frequencies --    137.3353               165.0231               206.6185
 Red. masses --      4.6031                 4.6972                 4.4620
 Frc consts  --      0.0512                 0.0754                 0.1122
 IR Inten    --      0.0730                 4.7976                 3.9351

                     13                     14                     15
                      A                      A                      A
 Frequencies --    215.8761               281.6371               303.8049
 Red. masses --      3.6895                 4.3147                 3.4490
 Frc consts  --      0.1013                 0.2016                 0.1876
 IR Inten    --      7.7168                 0.5763                 0.7231

                     16                     17                     18
                      A                      A                      A
 Frequencies --    312.2452               339.6748               351.6690
 Red. masses --      3.6439                 4.3905                 2.9013
 Frc consts  --      0.2093                 0.2985                 0.2114
 IR Inten    --      1.1693                 0.3829                 1.8737

                     19                     20                     21
                      A                      A                      A
 Frequencies --    367.4254               416.9942               453.6851
 Red. masses --      3.9164                 2.9802                 3.7424
 Frc consts  --      0.3115                 0.3053                 0.4538
 IR Inten    --      0.6933                 0.5969                 2.8751

                     22                     23                     24
                      A                      A                      A
 Frequencies --    470.0597               485.3103               501.1123
 Red. masses --      4.3300                 4.7501                 2.9072
 Frc consts  --      0.5637                 0.6592                 0.4301
 IR Inten    --      0.6154                 7.5054                 7.5268

                     25                     26                     27
                      A                      A                      A
 Frequencies --    554.9327               571.1109               581.1281
 Red. masses --      4.3864                 4.3138                 3.1869
 Frc consts  --      0.7959                 0.8290                 0.6341
 IR Inten    --     22.1393                 3.7664                 0.2832

                     28                     29                     30
                      A                      A                      A
 Frequencies --    640.2460               654.8080               672.2203
 Red. masses --      4.0071                 6.8559                 3.9437
 Frc consts  --      0.9678                 1.7320                 1.0500
 IR Inten    --      1.8519                 0.4613                 1.8451

                     31                     32                     33
                      A                      A                      A
 Frequencies --    694.7570               697.5512               721.9114
 Red. masses --      4.5056                 6.0689                 3.5980
 Frc consts  --      1.2814                 1.7398                 1.1048
 IR Inten    --      0.9108                 1.5269                 5.9102

                     34                     35                     36
                      A                      A                      A
 Frequencies --    756.0551               765.1931               812.3323
 Red. masses --      4.8558                 2.6416                 1.2502
 Frc consts  --      1.6354                 0.9113                 0.4861
 IR Inten    --      3.0631                24.5460                42.3719

                     37                     38                     39
                      A                      A                      A
 Frequencies --    825.8534               830.9486               856.1321
 Red. masses --      4.8701                 1.5383                 1.3094
 Frc consts  --      1.9570                 0.6258                 0.5655
 IR Inten    --      1.2638                12.7456                 5.6117

                     40                     41                     42
                      A                      A                      A
 Frequencies --    890.7273               901.7066               921.5284
 Red. masses --      1.5966                 2.2921                 2.9863
 Frc consts  --      0.7464                 1.0980                 1.4942
 IR Inten    --      3.2988                14.3078                21.6506

                     43                     44                     45
                      A                      A                      A
 Frequencies --    951.9673               983.0812               991.7603
 Red. masses --      1.3385                 1.4000                 2.3042
 Frc consts  --      0.7147                 0.7972                 1.3353
 IR Inten    --      0.8310                 2.2289                 1.7361

                     46                     47                     48
                      A                      A                      A
 Frequencies --   1006.3156              1019.5262              1038.5198
 Red. masses --      1.8397                 1.5483                 2.7763
 Frc consts  --      1.0977                 0.9482                 1.7642
 IR Inten    --      3.7476                 1.0348                15.1710

                     49                     50                     51
                      A                      A                      A
 Frequencies --   1044.2029              1068.5384              1072.8787
 Red. masses --      2.2534                 1.4217                 1.5518
 Frc consts  --      1.4476                 0.9564                 1.0524
 IR Inten    --      3.2644                 2.6676                 7.0864

                     52                     53                     54
                      A                      A                      A
 Frequencies --   1075.1657              1095.6383              1153.0775
 Red. masses --      2.0870                 1.5173                 1.3401
 Frc consts  --      1.4214                 1.0731                 1.0498
 IR Inten    --     22.2889                15.0224                 4.4357

                     55                     56                     57
                      A                      A                      A
 Frequencies --   1180.1081              1198.6514              1203.4208
 Red. masses --      1.4704                 3.4916                 1.4788
 Frc consts  --      1.2065                 2.9557                 1.2618
 IR Inten    --     36.6686                 1.7948                44.2709

                     58                     59                     60
                      A                      A                      A
 Frequencies --   1221.8942              1247.6485              1256.5267
 Red. masses --      1.1346                 3.0456                 1.5523
 Frc consts  --      0.9980                 2.7932                 1.4440
 IR Inten    --     11.1667                 0.5231                 0.1851

                     61                     62                     63
                      A                      A                      A
 Frequencies --   1284.2717              1324.7468              1341.5617
 Red. masses --      2.4029                 2.8326                 1.3024
 Frc consts  --      2.3351                 2.9289                 1.3810
 IR Inten    --     41.4402               154.2997                 3.4794

                     64                     65                     66
                      A                      A                      A
 Frequencies --   1353.4970              1361.4377              1377.9244
 Red. masses --      1.3928                 6.1584                 1.6797
 Frc consts  --      1.5033                 6.7254                 1.8790
 IR Inten    --     16.9303                 2.0905                14.6850

                     67                     68                     69
                      A                      A                      A
 Frequencies --   1380.0106              1438.9759              1443.2592
 Red. masses --      3.1082                 1.2541                 1.2431
 Frc consts  --      3.4876                 1.5300                 1.5256
 IR Inten    --      5.1219                 0.6093                 0.2719

                     70                     71                     72
                      A                      A                      A
 Frequencies --   1455.4164              1500.7894              1507.7928
 Red. masses --      2.6040                 1.1113                 1.4998
 Frc consts  --      3.2498                 1.4748                 2.0089
 IR Inten    --      6.7169                 2.7967                35.2488

                     73                     74                     75
                      A                      A                      A
 Frequencies --   1508.2550              1514.3924              1515.8581
 Red. masses --      1.2809                 1.1305                 1.0780
 Frc consts  --      1.7167                 1.5276                 1.4594
 IR Inten    --     26.9108                24.5964                13.2252

                     76                     77                     78
                      A                      A                      A
 Frequencies --   1520.9661              1528.4998              1560.1567
 Red. masses --      1.1021                 1.6318                 2.4263
 Frc consts  --      1.5021                 2.2462                 3.4797
 IR Inten    --     10.0639                58.7829                 1.0185

                     79                     80                     81
                      A                      A                      A
 Frequencies --   1600.2601              1626.2391              1670.6700
 Red. masses --      4.7841                 5.5714                 5.7700
 Frc consts  --      7.2183                 8.6812                 9.4888
 IR Inten    --      3.1566                 5.3737                61.1512

                     82                     83                     84
                      A                      A                      A
 Frequencies --   1749.9671              1777.8042              3039.7622
 Red. masses --     11.4448                11.3968                 1.0418
 Frc consts  --     20.6498                21.2227                 5.6716
 IR Inten    --    136.2932               217.6797                21.0578

                     85                     86                     87
                      A                      A                      A
 Frequencies --   3048.1767              3064.5711              3095.2294
 Red. masses --      1.0369                 1.0645                 1.0593
 Frc consts  --      5.6762                 5.8904                 5.9793
 IR Inten    --     25.3282                17.6062                14.5942

                     88                     89                     90
                      A                      A                      A
 Frequencies --   3098.4766              3102.5033              3127.9288
 Red. masses --      1.0939                 1.1007                 1.1029
 Frc consts  --      6.1874                 6.2425                 6.3578
 IR Inten    --     25.8946                11.1446                13.8671

                     91                     92                     93
                      A                      A                      A
 Frequencies --   3133.4488              3135.4146              3151.9920
 Red. masses --      1.1014                 1.1019                 1.1027
 Frc consts  --      6.3717                 6.3822                 6.4547
 IR Inten    --     11.1917                 1.9679                20.6382

                     94                     95                     96
                      A                      A                      A
 Frequencies --   3184.7689              3185.6375              3211.0521
 Red. masses --      1.0890                 1.0894                 1.0895
 Frc consts  --      6.5080                 6.5135                 6.6186
 IR Inten    --     13.9682                12.7064                10.3891

                     97                     98                     99
                      A                      A                      A
 Frequencies --   3221.0524              3227.8081              3228.1130
 Red. masses --      1.0913                 1.0965                 1.0924
 Frc consts  --      6.6707                 6.7312                 6.7069
 IR Inten    --     11.5878                 5.3496                 2.3337

 - Thermochemistry -
 -------------------
 Temperature   298.150 Kelvin.  Pressure   1.00000 Atm.
 Atom     1 has atomic number  6 and mass  12.00000

 Molecular mass:   272.08710 amu.
 Principal axes and moments of inertia in atomic units:
                           1         2         3
     Eigenvalues --  3900.365814978.881297126.60343
           X            0.99629  -0.08607  -0.00150
           Y            0.08607   0.99577   0.03225
           Z           -0.00128  -0.03225   0.99948
 This molecule is an asymmetric top.
 Rotational symmetry number  1.
 Warning -- assumption of classical behavior for rotation
           may cause significant error
 Rotational temperatures (Kelvin)      0.02221     0.01740     0.01215
 Rotational constants (GHZ):           0.46271     0.36248     0.25324
 Zero-point vibrational energy     738198.5 (Joules/Mol)
                                  176.43367 (Kcal/Mol)
 Warning -- explicit consideration of  27 degrees of freedom as
           vibrations may cause significant error
 Vibrational temperatures:     42.35    53.54    76.01    83.74    94.57
          (Kelvin)            118.37   139.33   157.82   172.25   197.59
                              237.43   297.28   310.60   405.21   437.11
                              449.25   488.72   505.97   528.64   599.96
                              652.75   676.31   698.25   720.99   798.42
                              821.70   836.11   921.17   942.12   967.18
                              999.60  1003.62  1038.67  1087.79  1100.94
                             1168.77  1188.22  1195.55  1231.78  1281.56
                             1297.35  1325.87  1369.67  1414.43  1426.92
                             1447.86  1466.87  1494.20  1502.38  1537.39
                             1543.63  1546.92  1576.38  1659.02  1697.91
                             1724.59  1731.45  1758.03  1795.09  1807.86
                             1847.78  1906.02  1930.21  1947.38  1958.81
                             1982.53  1985.53  2070.37  2076.53  2094.02
                             2159.30  2169.38  2170.04  2178.87  2180.98
                             2188.33  2199.17  2244.72  2302.42  2339.80
                             2403.72  2517.81  2557.86  4373.54  4385.65
                             4409.23  4453.34  4458.02  4463.81  4500.39
                             4508.33  4511.16  4535.01  4582.17  4583.42
                             4619.99  4634.38  4644.10  4644.53

 Zero-point correction=                           0.281165 (Hartree/Particle)
 Thermal correction to Energy=                    0.299571
 Thermal correction to Enthalpy=                  0.300515
 Thermal correction to Gibbs Free Energy=         0.233014
 Sum of electronic and zero-point Energies=          -1167.776405
 Sum of electronic and thermal Energies=             -1167.757999
 Sum of electronic and thermal Enthalpies=           -1167.757055
 Sum of electronic and thermal Free Energies=        -1167.824556

                     E (Thermal)             CV                S
                      KCal/Mol        Cal/Mol-Kelvin    Cal/Mol-Kelvin
 Total                  187.984             68.410            142.068
 Electronic               0.000              0.000              0.000
 Translational            0.889              2.981             42.702
 Rotational               0.889              2.981             33.292
 Vibrational            186.206             62.449             66.074
 Vibration     1          0.593              1.984              5.867
 Vibration     2          0.594              1.982              5.402
 Vibration     3          0.596              1.976              4.709
 Vibration     4          0.596              1.974              4.517
 Vibration     5          0.597              1.971              4.277
 Vibration     6          0.600              1.961              3.836
 Vibration     7          0.603              1.951              3.517
 Vibration     8          0.606              1.941              3.274
 Vibration     9          0.609              1.933              3.105
 Vibration    10          0.614              1.916              2.841
 Vibration    11          0.623              1.885              2.491
 Vibration    12          0.641              1.830              2.073
 Vibration    13          0.645              1.817              1.993
 Vibration    14          0.681              1.708              1.524
 Vibration    15          0.695              1.666              1.396
 Vibration    16          0.701              1.650              1.350
 Vibration    17          0.720              1.596              1.214
 Vibration    18          0.728              1.572              1.159
 Vibration    19          0.740              1.539              1.091
 Vibration    20          0.780              1.433              0.902
 Vibration    21          0.812              1.353              0.785
 Vibration    22          0.827              1.316              0.737
 Vibration    23          0.841              1.283              0.696
 Vibration    24          0.856              1.248              0.655
 Vibration    25          0.910              1.129              0.534
 Vibration    26          0.927              1.094              0.502
 Vibration    27          0.938              1.072              0.483

                           ! Non-Optimized Parameters !
 Normal termination of Gaussian 16 at Sun Dec 13 13:31:40 2020.

 ----------------------------------------------------------------------
 # B3LYP/6-311++G(d,p) empiricaldispersion=gd3bj scf=xqc pop=npa geom=c
 heck
 ----------------------------------------------------------------------

 --------------------------------------
 CID_90363422_JID_9153_Energie_neutraal
 --------------------------------------
 Structure from the checkpoint file:  "JID_9153.chk"
 Charge =  0 Multiplicity = 1

 SCF Done:  E(RB3LYP) =  -1168.29074015     A.U. after   17 cycles
 Normal termination of Gaussian 16 at Sun Dec 13 13:41:13 2020.

 ----------------------------------------------------------------------
 # B3LYP/6-311++G(d,p) empiricaldispersion=gd3bj scf=xqc pop=npa geom=c
 heck
 ----------------------------------------------------------------------

 ------------------------------------
 CID_90363422_JID_9153_Energie_kation
 ------------------------------------
 Structure from the checkpoint file:  "JID_9153.chk"
 Charge =  1 Multiplicity = 2

 SCF Done:  E(UB3LYP) =  -1167.98861411     A.U. after   33 cycles
 SCF Done:  E(UB3LYP) =  -1167.98861885     a.u. after    3 cycles
 Normal termination of Gaussian 16 at Sun Dec 13 14:56:00 2020.
 Gaussian 16:  ES64L-G16RevA.03 25-Dec-2016

 ----------------------------------------------------------------------
 # B3LYP/6-311++G(d,p) empiricaldispersion=gd3bj scf=xqc pop=npa geom=c
 heck
 ----------------------------------------------------------------------

 -----------------------------------
 CID_90363422_JID_9153_Energie_anion
 -----------------------------------
 Structure from the checkpoint file:  "JID_9153.chk"
 Charge = -1 Multiplicity = 2

                         Standard orientation:
 ---------------------------------------------------------------------
 Center     Atomic      Atomic             Coordinates (Angstroms)
 Number     Number       Type             X           Y           Z
 ---------------------------------------------------------------------
      1          6           0       -2.627109    3.063193    0.106870
      2          6           0       -1.247361    2.497949   -0.115594
      3          6           0       -0.203653    2.781855    0.777268
      4          6           0        1.053478    2.216469    0.609837
      5          6           0        1.300853    1.330584   -0.449443
      6          6           0        0.265803    1.058629   -1.353687
      7          6           0       -0.985656    1.645517   -1.193679
      8          6           0        2.646812    0.687068   -0.523396
      9          8           0        3.629661    1.208941   -0.020735
     10          6           0        2.752671   -0.711968   -1.126179
     11          6           0        2.597641   -1.778594   -0.006395
     12          6           0        1.376507   -1.536079    0.875621
     13          8           0        1.504086   -1.115050    2.018673
     14          6           0        0.047114   -1.727979    0.289445
     15          6           0       -0.330747   -2.265566   -0.922277
     16          6           0       -1.723932   -2.154726   -1.166583
     17          6           0       -2.403453   -1.529825   -0.144329
     18         16           0       -1.331839   -1.088349    1.148296
     19          6           0       -3.865909   -1.212674   -0.079825
     20          1           0       -3.176889    2.464927    0.845968
     21          1           0       -2.585666    4.088267    0.490092
     22          1           0       -3.213877    3.066758   -0.817256
     23          1           0       -0.387236    3.445807    1.618317
     24          1           0        1.859208    2.425388    1.305094
     25          1           0        0.426303    0.389495   -2.191149
     26          1           0       -1.776658    1.421401   -1.904486
     27          1           0        2.005483   -0.879793   -1.904156
     28          1           0        3.746562   -0.815962   -1.569767
     29          1           0        2.553215   -2.773867   -0.464473
     30          1           0        3.467379   -1.734499    0.652860
     31          1           0        0.369337   -2.717384   -1.616198
     32          1           0       -2.214307   -2.514771   -2.064998
     33          1           0       -4.339082   -1.648446    0.807516
     34          1           0       -4.037880   -0.129922   -0.045670
     35          1           0       -4.374780   -1.608058   -0.963869
 ---------------------------------------------------------------------

 SCF Done:  E(UB3LYP) =  -1168.31347921     A.U. after   29 cycles

 The electronic state is 2-A.
 Alpha  occ. eigenvalues --  -88.73050 -18.97119 -18.93981 -10.11929 -10.09186
 Alpha  occ. eigenvalues --  -10.07071 -10.06925 -10.06870 -10.06385 -10.05505
 Alpha  occ. eigenvalues --  -10.05415 -10.05378 -10.05329 -10.05300 -10.05064
 Alpha  occ. eigenvalues --  -10.04999 -10.04916 -10.04689 -10.04057  -7.81697
 Alpha  occ. eigenvalues --   -5.77984  -5.77622  -5.77307  -0.90578  -0.87954
 Alpha  occ. eigenvalues --   -0.74880  -0.74098  -0.67494  -0.65835  -0.64422
 Alpha  occ. eigenvalues --   -0.62772  -0.60259  -0.58878  -0.56985  -0.53483
 Alpha  occ. eigenvalues --   -0.49091  -0.48501  -0.46233  -0.42834  -0.41189
 Alpha  occ. eigenvalues --   -0.39227  -0.38169  -0.35609  -0.34810  -0.33868
 Alpha  occ. eigenvalues --   -0.32775  -0.32569  -0.32362  -0.31672  -0.31091
 Alpha  occ. eigenvalues --   -0.30333  -0.29773  -0.29422  -0.28953  -0.27537
 Alpha  occ. eigenvalues --   -0.26296  -0.25635  -0.25367  -0.25093  -0.24164
 Alpha  occ. eigenvalues --   -0.23752  -0.22482  -0.22016  -0.21674  -0.20987
 Alpha  occ. eigenvalues --   -0.20601  -0.13746  -0.13252  -0.12227  -0.12025
 Alpha  occ. eigenvalues --   -0.10335  -0.10036   0.02980
 Alpha virt. eigenvalues --    0.06292   0.06997   0.08206   0.08667   0.09531
 Alpha virt. eigenvalues --    0.09886   0.10187   0.10600   0.11082   0.11686
 Alpha virt. eigenvalues --    0.11790   0.12535   0.12926   0.13538   0.14228

  Beta  occ. eigenvalues --  -88.73014 -18.96993 -18.93571 -10.11818 -10.08969
  Beta  occ. eigenvalues --  -10.07093 -10.06937 -10.06589 -10.06221 -10.05434
  Beta  occ. eigenvalues --  -10.05423 -10.05401 -10.05357 -10.05237 -10.05037
  Beta  occ. eigenvalues --  -10.04931 -10.04921 -10.04782 -10.03880  -7.81665
  Beta  occ. eigenvalues --   -5.77969  -5.77608  -5.77188  -0.90330  -0.87223
  Beta  occ. eigenvalues --   -0.74632  -0.73951  -0.67272  -0.65635  -0.64204
  Beta  occ. eigenvalues --   -0.62673  -0.60082  -0.58763  -0.56731  -0.53342
  Beta  occ. eigenvalues --   -0.48984  -0.48212  -0.45801  -0.42709  -0.40975
  Beta  occ. eigenvalues --   -0.39050  -0.38031  -0.35503  -0.34598  -0.33751
  Beta  occ. eigenvalues --   -0.32613  -0.32293  -0.32140  -0.31439  -0.30849
  Beta  occ. eigenvalues --   -0.30289  -0.29579  -0.29240  -0.28868  -0.27308
  Beta  occ. eigenvalues --   -0.26119  -0.25385  -0.24960  -0.24627  -0.23923
  Beta  occ. eigenvalues --   -0.23504  -0.22338  -0.21920  -0.21210  -0.20478
  Beta  occ. eigenvalues --   -0.19467  -0.13422  -0.12679  -0.11853  -0.11576
  Beta  occ. eigenvalues --   -0.09683  -0.09050
  Beta virt. eigenvalues --    0.06927   0.07193   0.07993   0.08536   0.08798
  Beta virt. eigenvalues --    0.09658   0.09890   0.10261   0.10623   0.11030
  Beta virt. eigenvalues --    0.11690   0.11980   0.12475   0.12958   0.13512

 Mulliken charges and spin densities:
               1          2
     1  C   -0.653301  -0.036338
     2  C    0.351557   0.079840
     3  C   -0.327907  -0.054064
     4  C   -0.052060   0.124559
     5  C    0.488672   0.027608
     6  C   -0.288246   0.045114
     7  C   -0.308692   0.007079
     8  C   -0.613781   0.015293
     9  O   -0.269976   0.045452
    10  C    0.181931  -0.001798
    11  C   -0.247232  -0.064618
    12  C   -0.833353   0.129864
    13  O   -0.300708   0.145233
    14  C    0.863642   0.010950
    15  C   -0.601294   0.136010
    16  C   -0.520196  -0.064839
    17  C    0.211649   0.133738
    18  S    0.202724   0.127374
    19  C   -0.398668  -0.024091
    20  H    0.158601   0.026549
    21  H    0.119733  -0.000906
    22  H    0.126021  -0.000430
    23  H    0.154529   0.000866
    24  H    0.181050  -0.001435
    25  H    0.161995  -0.002355
    26  H    0.128079   0.000811
    27  H    0.088595  -0.020363
    28  H    0.119365   0.080179
    29  H    0.054640   0.078539
    30  H    0.207134  -0.008172
    31  H    0.091637   0.013672
    32  H    0.115929   0.006372
    33  H    0.123364   0.020946
    34  H    0.153402   0.022412
    35  H    0.131164   0.000948
 Sum of Mulliken charges =  -1.00000   1.00000

 Dipole moment (field-independent basis, Debye):
    X=             -5.6445    Y=              0.6803    Z=             -4.0114  Tot=              6.9580
 Quadrupole moment (field-independent basis, Debye-Ang):
   XX=           -155.6609   YY=           -144.2980   ZZ=           -135.9643
   XY=             -8.6089   XZ=             -4.6250   YZ=              8.0340

 Summary of Natural Population Analysis:

                                       Natural Population
                Natural  -----------------------------------------------
    Atom  No    Charge         Core      Valence    Rydberg      Total
 -----------------------------------------------------------------------
      C    1   -0.29283      0.99964     2.28858    0.00460     3.29283
      C    2    0.01619      0.99952     1.97647    0.00782     2.98381
      C    3   -0.11739      0.99952     2.10989    0.00798     3.11739
      C    4   -0.05210      0.99953     2.04411    0.00846     3.05210
      C    5   -0.07482      0.99945     2.06269    0.01268     3.07482
      C    6   -0.06334      0.99954     2.05348    0.01033     3.06334
      C    7   -0.11494      0.99952     2.10716    0.00826     3.11494
      C    8    0.29833      0.99961     1.68106    0.02100     2.70167
      O    9   -0.28504      0.99988     3.27872    0.00645     4.28504
      C   10   -0.22393      0.99959     2.21591    0.00843     3.22393
      C   11   -0.21779      0.99959     2.20918    0.00902     3.21779
      C   12    0.27422      0.99956     1.70443    0.02180     2.72578
      O   13   -0.25269      0.99988     3.24708    0.00573     4.25269
      C   14   -0.13277      0.99944     2.11858    0.01475     3.13277
      C   15   -0.08526      0.99949     2.07445    0.01132     3.08526
      C   16   -0.16240      0.99948     2.15393    0.00899     3.16240
      C   17   -0.05168      0.99953     2.04055    0.01160     3.05168
      S   18    0.23595      4.99937     2.74352    0.02117     7.76405
      C   19   -0.29822      0.99962     2.29339    0.00521     3.29822
      H   20    0.10445      0.00000     0.39451    0.00104     0.39555
      H   21    0.09774      0.00000     0.40136    0.00090     0.40226
      H   22    0.09718      0.00000     0.40193    0.00089     0.40282
      H   23    0.09295      0.00000     0.40582    0.00123     0.40705
      H   24    0.10802      0.00000     0.39068    0.00130     0.39198
      H   25    0.09870      0.00000     0.40016    0.00114     0.40130
      H   26    0.09474      0.00000     0.40395    0.00131     0.40526
      H   27    0.09831      0.00000     0.40050    0.00119     0.40169
      H   28    0.10228      0.00000     0.39599    0.00174     0.39772
      H   29    0.09939      0.00000     0.39894    0.00167     0.40061
      H   30    0.10784      0.00000     0.39043    0.00173     0.39216
      H   31    0.09854      0.00000     0.40037    0.00108     0.40146
      H   32    0.09581      0.00000     0.40319    0.00100     0.40419
      H   33    0.10192      0.00000     0.39705    0.00102     0.39808
      H   34    0.10368      0.00000     0.39533    0.00099     0.39632
      H   35    0.09895      0.00000     0.40016    0.00090     0.40105
 =======================================================================
   * Total *    0.00000     22.99174    48.78353    0.22473    72.00000

 Normal termination of Gaussian 16 at Sun Dec 13 15:17:28 2020.
