 Gaussian 16, Revision A.03,

 -----------------------------------------------------------
 # opt freq B3LYP/6-31G(d) empiricaldispersion=gd3bj scf=xqc
 -----------------------------------------------------------

 ------------------------------
 CID_63173858_JID_7514_neutraal
 ------------------------------
 Symbolic Z-matrix:
 Charge =  0 Multiplicity = 1

 SCF Done:  E(RB3LYP) =  -710.466398317     A.U. after   14 cycles
 SCF Done:  E(RB3LYP) =  -710.397129946     A.U. after   15 cycles
 SCF Done:  E(RB3LYP) =  -710.469917206     A.U. after   12 cycles
 SCF Done:  E(RB3LYP) =  -710.471437124     A.U. after   13 cycles
 SCF Done:  E(RB3LYP) =  -710.471888700     A.U. after   11 cycles
 SCF Done:  E(RB3LYP) =  -710.471971512     A.U. after   12 cycles
 SCF Done:  E(RB3LYP) =  -710.472009171     A.U. after   10 cycles
 SCF Done:  E(RB3LYP) =  -710.472032247     A.U. after   10 cycles
 SCF Done:  E(RB3LYP) =  -710.472043331     A.U. after   11 cycles
 SCF Done:  E(RB3LYP) =  -710.472047647     A.U. after    9 cycles
 SCF Done:  E(RB3LYP) =  -710.472048648     A.U. after    7 cycles
 SCF Done:  E(RB3LYP) =  -710.472048669     A.U. after    6 cycles
 Optimization completed.
    -- Stationary point found.
 Normal termination of Gaussian 16 at Mon Dec 14 13:22:45 2020.

 --------------------------------------------------------------------
 #N Geom=AllCheck Guess=TCheck SCRF=Check GenChk RB3LYP/6-31G(d) Freq
 --------------------------------------------------------------------

 Structure from the checkpoint file:  "JID_7514.chk"
 ------------------------------
 CID_63173858_JID_7514_neutraal
 ------------------------------
 Charge =  0 Multiplicity = 1

 SCF Done:  E(RB3LYP) =  -710.472048669     A.U. after    1 cycles

  Exact polarizability: 140.058  10.047 169.188  -8.234  -4.962 154.015
 Approx polarizability: 192.848  19.251 259.754 -19.345  -5.429 261.664

                      1                      2                      3
                      A                      A                      A
 Frequencies --     24.6850                41.5193                55.3618
 Red. masses --      3.8579                 3.7416                 4.1940
 Frc consts  --      0.0014                 0.0038                 0.0076
 IR Inten    --      0.2666                 0.2818                 0.5844

                      4                      5                      6
                      A                      A                      A
 Frequencies --     72.6280                83.2718               133.7279
 Red. masses --      3.9237                 4.2926                 4.1348
 Frc consts  --      0.0122                 0.0175                 0.0436
 IR Inten    --      0.8244                 0.2818                 5.2385

                      7                      8                      9
                      A                      A                      A
 Frequencies --    149.3021               182.2144               229.6880
 Red. masses --      3.2534                 3.3897                 2.8000
 Frc consts  --      0.0427                 0.0663                 0.0870
 IR Inten    --      0.1590                 1.6255                 0.8551

                     10                     11                     12
                      A                      A                      A
 Frequencies --    252.2957               278.0695               303.1384
 Red. masses --      2.1196                 2.8509                 3.7561
 Frc consts  --      0.0795                 0.1299                 0.2034
 IR Inten    --      0.4698                 1.2190                 0.6240

                     13                     14                     15
                      A                      A                      A
 Frequencies --    348.3747               370.8973               397.3538
 Red. masses --      2.2991                 1.9740                 1.1833
 Frc consts  --      0.1644                 0.1600                 0.1101
 IR Inten    --      1.7233                 1.6770                66.9628

                     16                     17                     18
                      A                      A                      A
 Frequencies --    417.5966               420.8688               439.0067
 Red. masses --      3.1434                 2.8078                 2.6592
 Frc consts  --      0.3230                 0.2930                 0.3020
 IR Inten    --      1.4433                 0.8646                18.5409

                     19                     20                     21
                      A                      A                      A
 Frequencies --    449.9982               511.3741               528.0601
 Red. masses --      2.9172                 1.7472                 3.3444
 Frc consts  --      0.3480                 0.2692                 0.5495
 IR Inten    --      2.6758                 3.7219                11.0472

                     22                     23                     24
                      A                      A                      A
 Frequencies --    541.1361               578.5137               598.3094
 Red. masses --      2.8851                 3.4189                 2.4398
 Frc consts  --      0.4978                 0.6742                 0.5146
 IR Inten    --      0.8362                26.7095                 4.6597

                     25                     26                     27
                      A                      A                      A
 Frequencies --    633.4083               641.3572               744.0230
 Red. masses --      1.8603                 6.5815                 2.5952
 Frc consts  --      0.4398                 1.5951                 0.8464
 IR Inten    --    105.3440                 2.0721               149.6155

                     28                     29                     30
                      A                      A                      A
 Frequencies --    763.7017               787.1442               799.7082
 Red. masses --      1.7512                 2.4683                 2.1970
 Frc consts  --      0.6018                 0.9011                 0.8278
 IR Inten    --     16.4780                 9.6850                21.4780

                     31                     32                     33
                      A                      A                      A
 Frequencies --    803.5282               810.6660               843.4439
 Red. masses --      3.0823                 1.4497                 3.1056
 Frc consts  --      1.1725                 0.5613                 1.3017
 IR Inten    --      2.7772                 0.3235                 2.1176

                     34                     35                     36
                      A                      A                      A
 Frequencies --    875.0598               902.7944               909.4992
 Red. masses --      1.9671                 1.3229                 1.7466
 Frc consts  --      0.8875                 0.6353                 0.8512
 IR Inten    --      1.6796                 0.3911                 5.4634

                     37                     38                     39
                      A                      A                      A
 Frequencies --    913.7356               929.8149               944.1183
 Red. masses --      1.8005                 2.4766                 1.6128
 Frc consts  --      0.8857                 1.2615                 0.8470
 IR Inten    --      2.3167                 5.8808                 1.6716

                     40                     41                     42
                      A                      A                      A
 Frequencies --    971.4271               983.1425              1001.4576
 Red. masses --      1.4757                 2.2410                 1.2960
 Frc consts  --      0.8205                 1.2762                 0.7658
 IR Inten    --      0.2716                 0.9479                 0.2280

                     43                     44                     45
                      A                      A                      A
 Frequencies --   1012.4628              1021.2404              1048.0041
 Red. masses --      6.2070                 2.3794                 1.8211
 Frc consts  --      3.7488                 1.4621                 1.1784
 IR Inten    --      1.5505                14.1382                 0.9120

                     46                     47                     48
                      A                      A                      A
 Frequencies --   1054.5661              1062.3047              1074.7115
 Red. masses --      2.0070                 2.2142                 1.5882
 Frc consts  --      1.3151                 1.4722                 1.0808
 IR Inten    --      0.9964                10.8100                 0.6527

                     49                     50                     51
                      A                      A                      A
 Frequencies --   1080.1725              1102.9622              1106.8305
 Red. masses --      2.2791                 1.2054                 2.2439
 Frc consts  --      1.5668                 0.8640                 1.6197
 IR Inten    --      3.4575                 0.2748                 0.2428

                     52                     53                     54
                      A                      A                      A
 Frequencies --   1130.9976              1167.1761              1185.5731
 Red. masses --      1.5682                 2.1730                 1.1331
 Frc consts  --      1.1819                 1.7441                 0.9384
 IR Inten    --      1.4545                 0.4741                 2.8408

                     55                     56                     57
                      A                      A                      A
 Frequencies --   1204.2689              1210.8926              1219.6010
 Red. masses --      1.6176                 1.4254                 1.4718
 Frc consts  --      1.3822                 1.2314                 1.2898
 IR Inten    --      1.9116                 1.4309                 0.4117

                     58                     59                     60
                      A                      A                      A
 Frequencies --   1262.1473              1274.2942              1295.2721
 Red. masses --      2.4139                 1.2922                 1.3380
 Frc consts  --      2.2657                 1.2363                 1.3226
 IR Inten    --      5.3458                 0.6362                 5.9322

                     61                     62                     63
                      A                      A                      A
 Frequencies --   1304.9392              1312.0756              1315.2988
 Red. masses --      1.2818                 1.2907                 3.7283
 Frc consts  --      1.2860                 1.3091                 3.8003
 IR Inten    --      3.1045                 0.6822                 1.6567

                     64                     65                     66
                      A                      A                      A
 Frequencies --   1345.3739              1348.9481              1360.9467
 Red. masses --      1.4613                 1.2760                 1.3807
 Frc consts  --      1.5584                 1.3680                 1.5067
 IR Inten    --     10.9789                 1.1710                14.1359

                     67                     68                     69
                      A                      A                      A
 Frequencies --   1367.1511              1379.3987              1383.3876
 Red. masses --      1.4423                 2.3264                 1.3543
 Frc consts  --      1.5883                 2.6081                 1.5271
 IR Inten    --     29.4190                55.8268                 1.6581

                     70                     71                     72
                      A                      A                      A
 Frequencies --   1390.8429              1397.8031              1401.5946
 Red. masses --      1.3561                 1.4438                 1.4617
 Frc consts  --      1.5456                 1.6620                 1.6918
 IR Inten    --      2.3488                12.1870                 0.5867

                     73                     74                     75
                      A                      A                      A
 Frequencies --   1405.4026              1422.3763              1478.7590
 Red. masses --      1.4755                 1.4612                 2.1178
 Frc consts  --      1.7170                 1.7417                 2.7286
 IR Inten    --      1.5791                 0.3624                19.7538

                     76                     77                     78
                      A                      A                      A
 Frequencies --   1500.7058              1513.5043              1515.5041
 Red. masses --      1.1279                 1.0870                 1.0910
 Frc consts  --      1.4966                 1.4670                 1.4764
 IR Inten    --      7.2271                 0.5839                 1.0860

                     79                     80                     81
                      A                      A                      A
 Frequencies --   1520.4431              1524.3074              1525.9673
 Red. masses --      1.0994                 1.0891                 2.1742
 Frc consts  --      1.4975                 1.4909                 2.9829
 IR Inten    --      4.3315                10.7002                19.5488

                     82                     83                     84
                      A                      A                      A
 Frequencies --   1538.1427              1546.3694              1628.1183
 Red. masses --      1.0970                 1.1101                 5.6118
 Frc consts  --      1.5292                 1.5640                 8.7645
 IR Inten    --      1.7337                 6.3620                15.2732

                     85                     86                     87
                      A                      A                      A
 Frequencies --   1649.4179              1657.8768              1744.1541
 Red. masses --      5.2374                 1.2471                 5.8143
 Frc consts  --      8.3952                 2.0195                10.4212
 IR Inten    --     31.6649                76.2312               276.3101

                     88                     89                     90
                      A                      A                      A
 Frequencies --   2989.2238              3018.7191              3021.8509
 Red. masses --      1.0684                 1.0682                 1.0693
 Frc consts  --      5.6245                 5.7353                 5.7528
 IR Inten    --     49.7779                28.1328                 7.3646

                     91                     92                     93
                      A                      A                      A
 Frequencies --   3025.6962              3035.8705              3044.2382
 Red. masses --      1.0631                 1.0610                 1.0624
 Frc consts  --      5.7343                 5.7617                 5.8009
 IR Inten    --     31.5943                22.7821                16.1412

                     94                     95                     96
                      A                      A                      A
 Frequencies --   3049.2341              3061.0848              3072.0644
 Red. masses --      1.0809                 1.0768                 1.0950
 Frc consts  --      5.9211                 5.9450                 6.0884
 IR Inten    --     15.2462                92.7742                63.2621

                     97                     98                     99
                      A                      A                      A
 Frequencies --   3073.2844              3079.6440              3084.2024
 Red. masses --      1.0957                 1.1033                 1.0995
 Frc consts  --      6.0976                 6.1652                 6.1621
 IR Inten    --     61.8610                41.2664                28.6013

                    100                    101                    102
                      A                      A                      A
 Frequencies --   3092.8075              3108.6062              3128.0535
 Red. masses --      1.0927                 1.0885                 1.0987
 Frc consts  --      6.1585                 6.1972                 6.3341
 IR Inten    --     18.2001                41.8314                11.2981

                    103                    104                    105
                      A                      A                      A
 Frequencies --   3163.6652              3186.1765              3200.9222
 Red. masses --      1.0890                 1.0871                 1.0929
 Frc consts  --      6.4219                 6.5022                 6.5974
 IR Inten    --     23.6727                 4.0395                19.2227

                    106                    107                    108
                      A                      A                      A
 Frequencies --   3215.0020              3547.2789              3659.5928
 Red. masses --      1.0973                 1.0477                 1.0971
 Frc consts  --      6.6826                 7.7675                 8.6571
 IR Inten    --     15.4180                 9.3697                12.3111

 - Thermochemistry -
 -------------------
 Temperature   298.150 Kelvin.  Pressure   1.00000 Atm.
 Atom     1 has atomic number  6 and mass  12.00000

 Molecular mass:   231.17355 amu.
 Principal axes and moments of inertia in atomic units:
                           1         2         3
     Eigenvalues --  3106.407724208.633385508.34319
           X            0.99900   0.04446  -0.00438
           Y           -0.04451   0.99893  -0.01227
           Z            0.00383   0.01246   0.99992
 This molecule is an asymmetric top.
 Rotational symmetry number  1.
 Warning -- assumption of classical behavior for rotation
           may cause significant error
 Rotational temperatures (Kelvin)      0.02788     0.02058     0.01572
 Rotational constants (GHZ):           0.58097     0.42882     0.32764
 Zero-point vibrational energy     888316.5 (Joules/Mol)
                                  212.31275 (Kcal/Mol)
 Warning -- explicit consideration of  24 degrees of freedom as
           vibrations may cause significant error
 Vibrational temperatures:     35.52    59.74    79.65   104.50   119.81
          (Kelvin)            192.40   214.81   262.17   330.47   363.00
                              400.08   436.15   501.23   533.64   571.70
                              600.83   605.54   631.63   647.45   735.75
                              759.76   778.57   832.35   860.83   911.33
                              922.77  1070.48  1098.80  1132.52  1150.60
                             1156.10  1166.37  1213.53  1259.02  1298.92
                             1308.57  1314.66  1337.80  1358.38  1397.67
                             1414.52  1440.87  1456.71  1469.34  1507.84
                             1517.29  1528.42  1546.27  1554.13  1586.92
                             1592.48  1627.25  1679.31  1705.78  1732.67
                             1742.20  1754.73  1815.95  1833.43  1863.61
                             1877.52  1887.78  1892.42  1935.69  1940.84
                             1958.10  1967.03  1984.65  1990.39  2001.11
                             2011.13  2016.58  2022.06  2046.48  2127.60
                             2159.18  2177.60  2180.47  2187.58  2193.14
                             2195.53  2213.04  2224.88  2342.50  2373.14
                             2385.31  2509.45  4300.83  4343.26  4347.77
                             4353.30  4367.94  4379.98  4387.17  4404.22
                             4420.02  4421.77  4430.92  4437.48  4449.86
                             4472.59  4500.57  4551.81  4584.20  4605.41
                             4625.67  5103.74  5265.34

 Zero-point correction=                           0.338342 (Hartree/Particle)
 Thermal correction to Energy=                    0.353997
 Thermal correction to Enthalpy=                  0.354942
 Thermal correction to Gibbs Free Energy=         0.294431
 Sum of electronic and zero-point Energies=           -710.133707
 Sum of electronic and thermal Energies=              -710.118051
 Sum of electronic and thermal Enthalpies=            -710.117107
 Sum of electronic and thermal Free Energies=         -710.177618

                     E (Thermal)             CV                S
                      KCal/Mol        Cal/Mol-Kelvin    Cal/Mol-Kelvin
 Total                  222.137             62.034            127.356
 Electronic               0.000              0.000              0.000
 Translational            0.889              2.981             42.216
 Rotational               0.889              2.981             32.643
 Vibrational            220.359             56.072             52.497
 Vibration     1          0.593              1.985              6.216
 Vibration     2          0.594              1.981              5.185
 Vibration     3          0.596              1.975              4.616
 Vibration     4          0.599              1.967              4.081
 Vibration     5          0.600              1.961              3.812
 Vibration     6          0.613              1.920              2.892
 Vibration     7          0.618              1.903              2.681
 Vibration     8          0.630              1.864              2.306
 Vibration     9          0.652              1.796              1.881
 Vibration    10          0.664              1.759              1.714
 Vibration    11          0.679              1.714              1.546
 Vibration    12          0.695              1.668              1.400
 Vibration    13          0.726              1.579              1.174
 Vibration    14          0.743              1.532              1.076
 Vibration    15          0.764              1.476              0.972
 Vibration    16          0.781              1.432              0.900
 Vibration    17          0.783              1.425              0.889
 Vibration    18          0.799              1.385              0.830
 Vibration    19          0.809              1.361              0.796
 Vibration    20          0.866              1.225              0.630
 Vibration    21          0.883              1.188              0.592
 Vibration    22          0.896              1.159              0.563
 Vibration    23          0.935              1.078              0.488
 Vibration    24          0.956              1.035              0.453

 Optimization completed.
    -- Stationary point found.
 Normal termination of Gaussian 16 at Mon Dec 14 13:40:11 2020.

 ----------------------------------------------------------------------
 # B3LYP/6-311++G(d,p) empiricaldispersion=gd3bj scf=xqc pop=npa geom=c
 heck
 ----------------------------------------------------------------------

 --------------------------------------
 CID_63173858_JID_7514_Energie_neutraal
 --------------------------------------
 Structure from the checkpoint file:  "JID_7514.chk"
 Charge =  0 Multiplicity = 1

 SCF Done:  E(RB3LYP) =  -710.665880504     A.U. after   15 cycles
 Normal termination of Gaussian 16 at Mon Dec 14 13:49:18 2020.

 ----------------------------------------------------------------------
 # B3LYP/6-311++G(d,p) empiricaldispersion=gd3bj scf=xqc pop=npa geom=c
 heck
 ----------------------------------------------------------------------

 ------------------------------------
 CID_63173858_JID_7514_Energie_kation
 ------------------------------------
 Structure from the checkpoint file:  "JID_7514.chk"
 Charge =  1 Multiplicity = 2

 SCF Done:  E(UB3LYP) =  -710.375253258     A.U. after   28 cycles
 Normal termination of Gaussian 16 at Mon Dec 14 14:11:52 2020.
 Gaussian 16:  ES64L-G16RevA.03 25-Dec-2016

 ----------------------------------------------------------------------
 # B3LYP/6-311++G(d,p) empiricaldispersion=gd3bj scf=xqc pop=npa geom=c
 heck
 ----------------------------------------------------------------------

 -----------------------------------
 CID_63173858_JID_7514_Energie_anion
 -----------------------------------
 Structure from the checkpoint file:  "JID_7514.chk"
 Charge = -1 Multiplicity = 2

                         Standard orientation:
 ---------------------------------------------------------------------
 Center     Atomic      Atomic             Coordinates (Angstroms)
 Number     Number       Type             X           Y           Z
 ---------------------------------------------------------------------
      1          6           0       -3.155619   -1.646086   -0.390800
      2          6           0       -2.878687   -0.567955   -1.447560
      3          6           0       -2.375156    0.735237   -0.812672
      4          6           0       -1.132792    0.475695    0.065699
      5          6           0       -1.458967   -0.571351    1.147439
      6          6           0       -1.931553   -1.881179    0.504549
      7          6           0       -0.567407    1.781160    0.609770
      8          7           0        0.343261    2.515324    0.087334
      9          6           0        0.989416    2.159070   -1.155341
     10          6           0        2.378599    1.519341   -0.906929
     11          6           0        2.279512    0.112364   -0.377592
     12          6           0        2.115844   -0.970964   -1.255461
     13          6           0        1.951500   -2.251873   -0.738996
     14          6           0        1.961232   -2.421083    0.646007
     15          6           0        2.143861   -1.290144    1.439916
     16          7           0        2.296425   -0.050968    0.955960
     17          7           0       -1.204336    2.267510    1.747727
     18          1           0       -3.460189   -2.582573   -0.874415
     19          1           0       -4.001094   -1.326418    0.235807
     20          1           0       -2.117363   -0.939607   -2.149064
     21          1           0       -3.781996   -0.374396   -2.039274
     22          1           0       -3.161244    1.184157   -0.191272
     23          1           0       -2.132620    1.469425   -1.589964
     24          1           0       -0.365139    0.029259   -0.571737
     25          1           0       -2.262745   -0.199758    1.799944
     26          1           0       -0.578376   -0.748290    1.774421
     27          1           0       -2.164453   -2.619446    1.282058
     28          1           0       -1.110478   -2.300567   -0.093100
     29          1           0        0.401761    1.492591   -1.807346
     30          1           0        1.149234    3.084555   -1.723036
     31          1           0        2.935970    1.520317   -1.851883
     32          1           0        2.916616    2.137156   -0.183036
     33          1           0        2.113367   -0.799273   -2.328228
     34          1           0        1.822137   -3.102969   -1.402089
     35          1           0        1.838640   -3.399957    1.098835
     36          1           0        2.169930   -1.380603    2.525016
     37          1           0       -1.466880    1.578989    2.440309
     38          1           0       -0.711224    3.060949    2.142743
 ---------------------------------------------------------------------

 SCF Done:  E(UB3LYP) =  -710.655012134     A.U. after   33 cycles
 SCF Done:  E(UB3LYP) =  -710.655012134     a.u. after    1 cycles

 The electronic state is 2-A.
 Alpha  occ. eigenvalues --  -14.22032 -14.19552 -14.17822 -10.13775 -10.10526
 Alpha  occ. eigenvalues --  -10.09849 -10.09364 -10.07900 -10.07873 -10.07347
 Alpha  occ. eigenvalues --  -10.07275 -10.07122 -10.06920 -10.06908 -10.06812
 Alpha  occ. eigenvalues --  -10.06616 -10.06357  -0.85113  -0.83624  -0.76863
 Alpha  occ. eigenvalues --   -0.73675  -0.69683  -0.68460  -0.65364  -0.64627
 Alpha  occ. eigenvalues --   -0.62541  -0.55435  -0.52776  -0.52445  -0.51430
 Alpha  occ. eigenvalues --   -0.49288  -0.46280  -0.45323  -0.42657  -0.40854
 Alpha  occ. eigenvalues --   -0.39548  -0.38279  -0.36611  -0.35998  -0.34978
 Alpha  occ. eigenvalues --   -0.34628  -0.33740  -0.33250  -0.31839  -0.30524
 Alpha  occ. eigenvalues --   -0.29558  -0.29289  -0.28648  -0.28182  -0.27652
 Alpha  occ. eigenvalues --   -0.26425  -0.24961  -0.24828  -0.24501  -0.23780
 Alpha  occ. eigenvalues --   -0.22603  -0.21980  -0.20432  -0.18425  -0.15804
 Alpha  occ. eigenvalues --   -0.15170  -0.14099  -0.13197   0.04256
 Alpha virt. eigenvalues --    0.06318   0.06623   0.06946   0.07183   0.07849
 Alpha virt. eigenvalues --    0.08579   0.08746   0.09300   0.09447   0.09649
 Alpha virt. eigenvalues --    0.10938   0.11200   0.11398   0.11680   0.11999

  Beta  occ. eigenvalues --  -14.22026 -14.19424 -14.17817 -10.13773 -10.10511
  Beta  occ. eigenvalues --  -10.09823 -10.09350 -10.07896 -10.07755 -10.07341
  Beta  occ. eigenvalues --  -10.07258 -10.07115 -10.06918 -10.06896 -10.06797
  Beta  occ. eigenvalues --  -10.06602 -10.06343  -0.85100  -0.83454  -0.76850
  Beta  occ. eigenvalues --   -0.73653  -0.69496  -0.68394  -0.65337  -0.64600
  Beta  occ. eigenvalues --   -0.62486  -0.55390  -0.52735  -0.52303  -0.51392
  Beta  occ. eigenvalues --   -0.49192  -0.46239  -0.45296  -0.42632  -0.40777
  Beta  occ. eigenvalues --   -0.39507  -0.38218  -0.36558  -0.35925  -0.34947
  Beta  occ. eigenvalues --   -0.34596  -0.33697  -0.33226  -0.31799  -0.30461
  Beta  occ. eigenvalues --   -0.29492  -0.29179  -0.28591  -0.28100  -0.27546
  Beta  occ. eigenvalues --   -0.26380  -0.24931  -0.24802  -0.24460  -0.23746
  Beta  occ. eigenvalues --   -0.22569  -0.21949  -0.20403  -0.17860  -0.15646
  Beta  occ. eigenvalues --   -0.15025  -0.14071  -0.13151
  Beta virt. eigenvalues --    0.06403   0.06995   0.07333   0.07506   0.07666
  Beta virt. eigenvalues --    0.08155   0.09022   0.09103   0.09581   0.09787
  Beta virt. eigenvalues --    0.09871   0.11216   0.11506   0.11584   0.11816

 Mulliken charges and spin densities:
               1          2
     1  C    0.708870  -1.356948
     2  C    0.215464  -0.401582
     3  C   -0.911462   0.554572
     4  C    1.371985  -0.335855
     5  C   -0.214937  -0.182478
     6  C   -0.490357   0.141736
     7  C   -1.401082   0.459572
     8  N    0.050216  -0.036157
     9  C   -0.441684  -0.037008
    10  C    0.997168  -1.586768
    11  C    0.086173   0.036488
    12  C   -1.889981   1.744870
    13  C    1.298481  -1.489552
    14  C    0.630438  -0.693160
    15  C   -0.520579   0.237807
    16  N   -0.029850   0.124458
    17  N   -0.236316  -0.035293
    18  H   -0.338419   0.513163
    19  H    0.187894  -0.078200
    20  H   -0.033013   0.161715
    21  H   -0.235816   0.415684
    22  H    0.056546   0.095970
    23  H    0.044401   0.118864
    24  H    1.220196  -1.014194
    25  H   -0.133523   0.238473
    26  H    0.107901   0.145615
    27  H   -0.497780   0.693663
    28  H    0.391172  -0.265327
    29  H   -0.014015   0.143595
    30  H   -0.056542   0.227933
    31  H    0.048617   0.082450
    32  H    0.159764   0.028983
    33  H   -0.429000   0.598302
    34  H   -0.652964   0.844915
    35  H   -0.309939   0.485093
    36  H   -0.127210   0.297740
    37  H    0.199937   0.052420
    38  H    0.189245   0.068442
 Sum of Mulliken charges =  -1.00000   1.00000

 Dipole moment (field-independent basis, Debye):
    X=             -0.1759    Y=              4.6435    Z=              1.4249  Tot=              4.8604
 Quadrupole moment (field-independent basis, Debye-Ang):
   XX=           -156.5431   YY=           -165.6909   ZZ=           -142.9383
   XY=             -2.3390   XZ=             -2.0129   YZ=             -0.8431

 Summary of Natural Population Analysis:

                                       Natural Population
                Natural  -----------------------------------------------
    Atom  No    Charge         Core      Valence    Rydberg      Total
 -----------------------------------------------------------------------
      C    1   -0.18796      0.99963     2.18072    0.00762     3.18796
      C    2   -0.18988      0.99963     2.18203    0.00823     3.18988
      C    3   -0.18318      0.99961     2.17509    0.00848     3.18318
      C    4   -0.14994      0.99953     2.14006    0.01035     3.14994
      C    5   -0.19061      0.99962     2.18132    0.00968     3.19061
      C    6   -0.18922      0.99963     2.18062    0.00898     3.18922
      C    7    0.24396      0.99956     1.73953    0.01695     2.75604
      N    8   -0.28181      0.99963     2.77075    0.01143     3.78181
      C    9   -0.09188      0.99960     2.08024    0.01204     3.09188
      C   10   -0.20634      0.99958     2.19715    0.00961     3.20634
      C   11    0.10827      0.99953     1.87711    0.01510     2.89173
      C   12   -0.12501      0.99949     2.11560    0.00992     3.12501
      C   13   -0.06531      0.99956     2.05475    0.01100     3.06531
      C   14   -0.12825      0.99955     2.11872    0.00998     3.12825
      C   15    0.02730      0.99958     1.95819    0.01493     2.97270
      N   16   -0.22599      0.99968     2.71569    0.01062     3.72599
      N   17   -0.40406      0.99970     2.89542    0.00894     3.90406
      H   18    0.09958      0.00000     0.39936    0.00105     0.40042
      H   19    0.09015      0.00000     0.40861    0.00123     0.40985
      H   20    0.09500      0.00000     0.40344    0.00156     0.40500
      H   21    0.09760      0.00000     0.40149    0.00091     0.40240
      H   22    0.09635      0.00000     0.40229    0.00135     0.40365
      H   23    0.10055      0.00000     0.39849    0.00096     0.39945
      H   24    0.11043      0.00000     0.38513    0.00444     0.38957
      H   25    0.08829      0.00000     0.41028    0.00143     0.41171
      H   26    0.10696      0.00000     0.39088    0.00216     0.39304
      H   27    0.10007      0.00000     0.39852    0.00141     0.39993
      H   28    0.09812      0.00000     0.39977    0.00211     0.40188
      H   29    0.08345      0.00000     0.41485    0.00171     0.41655
      H   30    0.09206      0.00000     0.40662    0.00133     0.40794
      H   31    0.09897      0.00000     0.40002    0.00101     0.40103
      H   32    0.10927      0.00000     0.38939    0.00134     0.39073
      H   33    0.10329      0.00000     0.39533    0.00138     0.39671
      H   34    0.10290      0.00000     0.39539    0.00171     0.39710
      H   35    0.10498      0.00000     0.39372    0.00130     0.39502
      H   36    0.08848      0.00000     0.41038    0.00114     0.41152
      H   37    0.18554      0.00000     0.31262    0.00184     0.31446
      H   38    0.18791      0.00000     0.30995    0.00214     0.31209
 =======================================================================
   * Total *   -0.00000     16.99309    45.78953    0.21737    63.00000

 Normal termination of Gaussian 16 at Mon Dec 14 14:38:07 2020.
