 Gaussian 16, Revision A.03,

 -----------------------------------------------------------
 # opt freq B3LYP/6-31G(d) empiricaldispersion=gd3bj scf=xqc
 -----------------------------------------------------------

 -------------------------------
 CID_108478634_JID_3580_neutraal
 -------------------------------
 Symbolic Z-matrix:
 Charge =  0 Multiplicity = 1

 SCF Done:  E(RB3LYP) =  -610.191530681     A.U. after   15 cycles
 SCF Done:  E(RB3LYP) =  -610.195662946     A.U. after   13 cycles
 SCF Done:  E(RB3LYP) =  -610.196158754     A.U. after   12 cycles
 SCF Done:  E(RB3LYP) =  -610.196648218     A.U. after   12 cycles
 SCF Done:  E(RB3LYP) =  -610.196711723     A.U. after   11 cycles
 SCF Done:  E(RB3LYP) =  -610.196736781     A.U. after   12 cycles
 SCF Done:  E(RB3LYP) =  -610.196779838     A.U. after   10 cycles
 SCF Done:  E(RB3LYP) =  -610.196809778     A.U. after   10 cycles
 SCF Done:  E(RB3LYP) =  -610.196863407     A.U. after   12 cycles
 SCF Done:  E(RB3LYP) =  -610.196744786     A.U. after   13 cycles
 SCF Done:  E(RB3LYP) =  -610.198428761     A.U. after   11 cycles
 SCF Done:  E(RB3LYP) =  -610.198475744     A.U. after   12 cycles
 SCF Done:  E(RB3LYP) =  -610.198487518     A.U. after   10 cycles
 SCF Done:  E(RB3LYP) =  -610.198488857     A.U. after    9 cycles
 SCF Done:  E(RB3LYP) =  -610.198489103     A.U. after    8 cycles
 SCF Done:  E(RB3LYP) =  -610.198489160     A.U. after    8 cycles
 Optimization completed.
    -- Stationary point found.
 Normal termination of Gaussian 16 at Wed Dec  9 23:43:07 2020.

 --------------------------------------------------------------------
 #N Geom=AllCheck Guess=TCheck SCRF=Check GenChk RB3LYP/6-31G(d) Freq
 --------------------------------------------------------------------

 Structure from the checkpoint file:  "JID_3580.chk"
 -------------------------------
 CID_108478634_JID_3580_neutraal
 -------------------------------
 Charge =  0 Multiplicity = 1

 SCF Done:  E(RB3LYP) =  -610.198489160     A.U. after    1 cycles

  Exact polarizability: 172.839   2.210 116.121   3.513   4.166  60.533
 Approx polarizability: 231.550  14.002 206.085   8.452  12.518  90.520

                      1                      2                      3
                      A                      A                      A
 Frequencies --     21.9617                63.5604                85.9629
 Red. masses --      4.0638                 1.9185                 2.5505
 Frc consts  --      0.0012                 0.0046                 0.0111
 IR Inten    --      0.0281                 2.2494                 0.1330

                      4                      5                      6
                      A                      A                      A
 Frequencies --     95.9588               101.5406               127.6643
 Red. masses --      1.9834                 4.1226                 4.8559
 Frc consts  --      0.0108                 0.0250                 0.0466
 IR Inten    --      0.2293                 0.0652                 0.4332

                      7                      8                      9
                      A                      A                      A
 Frequencies --    152.4750               208.9341               238.8962
 Red. masses --      5.1334                 1.8032                 2.0091
 Frc consts  --      0.0703                 0.0464                 0.0676
 IR Inten    --      0.9156                 0.7962                 1.5390

                     10                     11                     12
                      A                      A                      A
 Frequencies --    247.4255               273.1759               362.8746
 Red. masses --      4.3015                 2.2198                 3.2152
 Frc consts  --      0.1552                 0.0976                 0.2494
 IR Inten    --     16.1353                 1.6629                 3.5156

                     13                     14                     15
                      A                      A                      A
 Frequencies --    408.7252               467.5005               511.0197
 Red. masses --      3.8526                 4.6693                 5.0847
 Frc consts  --      0.3792                 0.6013                 0.7823
 IR Inten    --     15.6214                 9.5489                 3.7974

                     16                     17                     18
                      A                      A                      A
 Frequencies --    528.6198               554.3938               577.3905
 Red. masses --      1.5425                 2.8518                 2.9852
 Frc consts  --      0.2540                 0.5164                 0.5864
 IR Inten    --     30.7107                16.9701                11.7699

                     19                     20                     21
                      A                      A                      A
 Frequencies --    637.3043               644.3084               651.1588
 Red. masses --      3.4068                 4.5853                 4.0062
 Frc consts  --      0.8153                 1.1215                 1.0008
 IR Inten    --     23.6969                16.9132                27.4014

                     22                     23                     24
                      A                      A                      A
 Frequencies --    678.5718               718.1342               764.5721
 Red. masses --      2.5278                 1.4762                 4.4712
 Frc consts  --      0.6858                 0.4485                 1.5400
 IR Inten    --      3.0103                 3.2540                49.6306

                     25                     26                     27
                      A                      A                      A
 Frequencies --    806.8474               814.1797               869.8938
 Red. masses --      1.2040                 1.1746                 1.3391
 Frc consts  --      0.4618                 0.4588                 0.5970
 IR Inten    --     63.8403                39.4289                 0.4939

                     28                     29                     30
                      A                      A                      A
 Frequencies --    919.6309               947.7917               988.2534
 Red. masses --      2.3463                 3.3341                 3.6385
 Frc consts  --      1.1691                 1.7646                 2.0936
 IR Inten    --     17.2568                31.7040                 0.7889

                     31                     32                     33
                      A                      A                      A
 Frequencies --   1011.5148              1053.5257              1076.6517
 Red. masses --      2.4951                 1.7786                 1.8439
 Frc consts  --      1.5041                 1.1631                 1.2593
 IR Inten    --      1.1633                 2.7105                11.5453

                     34                     35                     36
                      A                      A                      A
 Frequencies --   1095.9390              1110.1814              1127.0207
 Red. masses --      1.4127                 1.6275                 1.6755
 Frc consts  --      0.9997                 1.1818                 1.2539
 IR Inten    --     24.7603                35.0651                28.9083

                     37                     38                     39
                      A                      A                      A
 Frequencies --   1200.0484              1224.9226              1269.6349
 Red. masses --      2.2979                 3.0793                 1.4061
 Frc consts  --      1.9498                 2.7222                 1.3354
 IR Inten    --     12.7447               141.7479                31.1126

                     40                     41                     42
                      A                      A                      A
 Frequencies --   1327.2965              1354.2148              1390.2785
 Red. masses --      1.4229                 2.3174                 1.9345
 Frc consts  --      1.4770                 2.5040                 2.2030
 IR Inten    --    191.1819               237.8307               107.5918

                     43                     44                     45
                      A                      A                      A
 Frequencies --   1411.5652              1429.8671              1440.5476
 Red. masses --      1.4071                 1.9377                 1.4675
 Frc consts  --      1.6518                 2.3342                 1.7943
 IR Inten    --     38.9117               123.8166                20.9622

                     46                     47                     48
                      A                      A                      A
 Frequencies --   1445.5078              1465.5878              1494.3610
 Red. masses --      3.3193                 5.0476                 1.7838
 Frc consts  --      4.0864                 6.3880                 2.3470
 IR Inten    --     53.0127                55.8468                67.5721

                     49                     50                     51
                      A                      A                      A
 Frequencies --   1498.1358              1503.7065              1517.7797
 Red. masses --      1.0664                 1.0474                 1.4741
 Frc consts  --      1.4101                 1.3954                 2.0008
 IR Inten    --      9.2934                 9.5729                 2.5169

                     52                     53                     54
                      A                      A                      A
 Frequencies --   1523.7995              1535.3282              1548.5294
 Red. masses --      1.0829                 1.2452                 1.8446
 Frc consts  --      1.4814                 1.7294                 2.6061
 IR Inten    --      1.1021                 7.2374                22.0331

                     55                     56                     57
                      A                      A                      A
 Frequencies --   1590.1471              1742.1050              1762.3724
 Red. masses --      4.1287                 7.2756                10.2641
 Frc consts  --      6.1509                13.0096                18.7830
 IR Inten    --     78.1000               195.1714               336.2460

                     58                     59                     60
                      A                      A                      A
 Frequencies --   3055.7070              3055.8163              3076.2889
 Red. masses --      1.0359                 1.0377                 1.0653
 Frc consts  --      5.6991                 5.7092                 5.9397
 IR Inten    --     21.3290                 2.4249                32.8337

                     61                     62                     63
                      A                      A                      A
 Frequencies --   3114.8893              3115.2900              3128.2878
 Red. masses --      1.1016                 1.1001                 1.0998
 Frc consts  --      6.2975                 6.2904                 6.3412
 IR Inten    --      2.4018                 9.1623                31.4907

                     64                     65                     66
                      A                      A                      A
 Frequencies --   3141.5720              3172.1527              3263.7537
 Red. masses --      1.1041                 1.1017                 1.0943
 Frc consts  --      6.4205                 6.5316                 6.8678
 IR Inten    --     41.3258                11.3200                 4.3082

                     67                     68                     69
                      A                      A                      A
 Frequencies --   3300.0091              3603.7908              3622.6541
 Red. masses --      1.0968                 1.0759                 1.0796
 Frc consts  --      7.0373                 8.2330                 8.3479
 IR Inten    --      4.1817                40.7356               116.2713

 - Thermochemistry -
 -------------------
 Temperature   298.150 Kelvin.  Pressure   1.00000 Atm.
 Atom     1 has atomic number  6 and mass  12.00000

 Molecular mass:   180.08988 amu.
 Principal axes and moments of inertia in atomic units:
                           1         2         3
     Eigenvalues --  1001.246774385.725755237.76557
           X            1.00000   0.00171  -0.00259
           Y           -0.00173   0.99997  -0.00719
           Z            0.00258   0.00720   0.99997
 This molecule is an asymmetric top.
 Rotational symmetry number  1.
 Warning -- assumption of classical behavior for rotation
           may cause significant error
 Rotational temperatures (Kelvin)      0.08651     0.01975     0.01654
 Rotational constants (GHZ):           1.80249     0.41150     0.34456
 Zero-point vibrational energy     539931.6 (Joules/Mol)
                                  129.04674 (Kcal/Mol)
 Warning -- explicit consideration of  18 degrees of freedom as
           vibrations may cause significant error
 Vibrational temperatures:     31.60    91.45   123.68   138.06   146.09
          (Kelvin)            183.68   219.38   300.61   343.72   355.99
                              393.04   522.10   588.06   672.63   735.24
                              760.57   797.65   830.74   916.94   927.02
                              936.87   976.31  1033.23  1100.05  1160.87
                             1171.42  1251.58  1323.14  1363.66  1421.88
                             1455.34  1515.79  1549.06  1576.81  1597.30
                             1621.53  1726.60  1762.39  1826.72  1909.68
                             1948.41  2000.30  2030.93  2057.26  2072.63
                             2079.76  2108.65  2150.05  2155.48  2163.50
                             2183.75  2192.41  2208.99  2227.99  2287.87
                             2506.50  2535.66  4396.48  4396.64  4426.09
                             4481.63  4482.21  4500.91  4520.02  4564.02
                             4695.81  4747.98  5185.05  5212.19

 Zero-point correction=                           0.205649 (Hartree/Particle)
 Thermal correction to Energy=                    0.218792
 Thermal correction to Enthalpy=                  0.219736
 Thermal correction to Gibbs Free Energy=         0.164633
 Sum of electronic and zero-point Energies=           -609.992840
 Sum of electronic and thermal Energies=              -609.979697
 Sum of electronic and thermal Enthalpies=            -609.978753
 Sum of electronic and thermal Free Energies=         -610.033856

                     E (Thermal)             CV                S
                      KCal/Mol        Cal/Mol-Kelvin    Cal/Mol-Kelvin
 Total                  137.294             47.753            115.974
 Electronic               0.000              0.000              0.000
 Translational            0.889              2.981             41.472
 Rotational               0.889              2.981             31.509
 Vibrational            135.516             41.792             42.993
 Vibration     1          0.593              1.985              6.448
 Vibration     2          0.597              1.972              4.343
 Vibration     3          0.601              1.959              3.750
 Vibration     4          0.603              1.952              3.535
 Vibration     5          0.604              1.948              3.425
 Vibration     6          0.611              1.926              2.981
 Vibration     7          0.619              1.900              2.641
 Vibration     8          0.642              1.827              2.053
 Vibration     9          0.657              1.781              1.811
 Vibration    10          0.661              1.767              1.749
 Vibration    11          0.676              1.723              1.576
 Vibration    12          0.737              1.549              1.110
 Vibration    13          0.773              1.451              0.931
 Vibration    14          0.825              1.322              0.745
 Vibration    15          0.866              1.226              0.631
 Vibration    16          0.884              1.187              0.590
 Vibration    17          0.910              1.130              0.535
 Vibration    18          0.934              1.080              0.490

                           ! Non-Optimized Parameters !
 Normal termination of Gaussian 16 at Wed Dec  9 23:48:29 2020.

 ----------------------------------------------------------------------
 # B3LYP/6-311++G(d,p) empiricaldispersion=gd3bj scf=xqc pop=npa geom=c
 heck
 ----------------------------------------------------------------------

 ---------------------------------------
 CID_108478634_JID_3580_Energie_neutraal
 ---------------------------------------
 Structure from the checkpoint file:  "JID_3580.chk"
 Charge =  0 Multiplicity = 1

 SCF Done:  E(RB3LYP) =  -610.378001318     A.U. after   15 cycles
 Normal termination of Gaussian 16 at Wed Dec  9 23:50:55 2020.

 ----------------------------------------------------------------------
 # B3LYP/6-311++G(d,p) empiricaldispersion=gd3bj scf=xqc pop=npa geom=c
 heck
 ----------------------------------------------------------------------

 -------------------------------------
 CID_108478634_JID_3580_Energie_kation
 -------------------------------------
 Structure from the checkpoint file:  "JID_3580.chk"
 Charge =  1 Multiplicity = 2

 SCF Done:  E(UB3LYP) =  -610.063158444     A.U. after   32 cycles
 Normal termination of Gaussian 16 at Wed Dec  9 23:58:05 2020.
 Gaussian 16:  ES64L-G16RevA.03 25-Dec-2016

 ----------------------------------------------------------------------
 # B3LYP/6-311++G(d,p) empiricaldispersion=gd3bj scf=xqc pop=npa geom=c
 heck
 ----------------------------------------------------------------------

 ------------------------------------
 CID_108478634_JID_3580_Energie_anion
 ------------------------------------
 Structure from the checkpoint file:  "JID_3580.chk"
 Charge = -1 Multiplicity = 2

                         Standard orientation:
 ---------------------------------------------------------------------
 Center     Atomic      Atomic             Coordinates (Angstroms)
 Number     Number       Type             X           Y           Z
 ---------------------------------------------------------------------
      1          6           0       -3.682158   -1.400063    0.739516
      2          6           0       -3.405627   -0.586119   -0.527839
      3          7           0       -2.865936    0.739626   -0.262330
      4          6           0       -1.579018    1.135433   -0.040814
      5          8           0       -1.314519    2.319042    0.187722
      6          6           0       -0.466108    0.155047   -0.091773
      7          6           0       -0.296664   -1.234425   -0.184387
      8          6           0        1.086969   -1.494372   -0.147976
      9          6           0        1.742515   -0.266170   -0.032555
     10          7           0        0.779976    0.701573    0.000124
     11          6           0        3.156096    0.111618    0.053866
     12          8           0        3.475004    1.290871    0.154792
     13          6           0        4.181224   -1.003985    0.013519
     14          1           0       -2.767174   -1.536231    1.323914
     15          1           0       -4.081426   -2.388413    0.483972
     16          1           0       -4.413701   -0.888673    1.374002
     17          1           0       -2.721530   -1.115389   -1.196178
     18          1           0       -4.333963   -0.445400   -1.091306
     19          1           0       -3.518790    1.504938   -0.150193
     20          1           0       -1.073284   -1.979258   -0.249828
     21          1           0        1.562098   -2.464343   -0.197352
     22          1           0        0.945494    1.696095    0.100036
     23          1           0        4.019467   -1.706675    0.839347
     24          1           0        4.096127   -1.572104   -0.920295
     25          1           0        5.181155   -0.574024    0.089866
 ---------------------------------------------------------------------

 SCF Done:  E(UB3LYP) =  -610.388842909     A.U. after   31 cycles

 The electronic state is 2-A.
 Alpha  occ. eigenvalues --  -18.94297 -18.93470 -14.20989 -14.19818 -10.13105
 Alpha  occ. eigenvalues --  -10.10634 -10.08264 -10.06490 -10.05911 -10.04886
 Alpha  occ. eigenvalues --  -10.04018 -10.03593 -10.02939  -0.90157  -0.87643
 Alpha  occ. eigenvalues --   -0.83348  -0.79921  -0.65132  -0.64371  -0.62329
 Alpha  occ. eigenvalues --   -0.59150  -0.53859  -0.50040  -0.45330  -0.45185
 Alpha  occ. eigenvalues --   -0.43045  -0.38821  -0.35854  -0.33873  -0.32470
 Alpha  occ. eigenvalues --   -0.31867  -0.31085  -0.30299  -0.29323  -0.28759
 Alpha  occ. eigenvalues --   -0.28426  -0.28051  -0.26096  -0.25790  -0.25139
 Alpha  occ. eigenvalues --   -0.24883  -0.24234  -0.21064  -0.13434  -0.12840
 Alpha  occ. eigenvalues --   -0.12200  -0.10073  -0.09241   0.04229
 Alpha virt. eigenvalues --    0.06293   0.08308   0.08804   0.09106   0.10664
 Alpha virt. eigenvalues --    0.11460   0.11898   0.12396   0.12863   0.13480
 Alpha virt. eigenvalues --    0.13606   0.14740   0.15509   0.16117   0.16483

  Beta  occ. eigenvalues --  -18.94134 -18.93012 -14.20950 -14.19510 -10.12951
  Beta  occ. eigenvalues --  -10.10628 -10.07948 -10.06468 -10.05781 -10.04810
  Beta  occ. eigenvalues --  -10.04046 -10.03634 -10.02906  -0.89846  -0.86833
  Beta  occ. eigenvalues --   -0.82906  -0.79779  -0.65066  -0.64129  -0.61878
  Beta  occ. eigenvalues --   -0.58920  -0.53758  -0.49575  -0.45142  -0.45019
  Beta  occ. eigenvalues --   -0.42676  -0.38739  -0.35560  -0.33688  -0.32200
  Beta  occ. eigenvalues --   -0.31673  -0.30367  -0.30113  -0.29102  -0.28607
  Beta  occ. eigenvalues --   -0.28028  -0.27684  -0.25938  -0.25676  -0.25013
  Beta  occ. eigenvalues --   -0.24078  -0.23942  -0.19029  -0.12855  -0.12652
  Beta  occ. eigenvalues --   -0.11353  -0.09659  -0.07982
  Beta virt. eigenvalues --    0.06550   0.08368   0.08808   0.09191   0.10019
  Beta virt. eigenvalues --    0.10603   0.11782   0.11976   0.12413   0.13075
  Beta virt. eigenvalues --    0.13487   0.14444   0.14718   0.15459   0.16046

 Mulliken charges and spin densities:
               1          2
     1  C    0.201386  -0.602491
     2  C   -0.359059   0.103876
     3  N   -0.256448  -0.009423
     4  C   -0.207179   0.065599
     5  O   -0.431571   0.062550
     6  C   -0.211402   0.155592
     7  C    0.151446  -0.008117
     8  C    0.145887  -0.044640
     9  C    0.248076  -0.013657
    10  N   -0.093519   0.133270
    11  C   -0.396754   0.151096
    12  O   -0.423696   0.164324
    13  C   -0.495970  -0.023831
    14  H    0.045168   0.107169
    15  H   -0.071089   0.173292
    16  H   -0.022464   0.150382
    17  H    0.064326   0.078589
    18  H   -0.123609   0.284570
    19  H    0.289901   0.016826
    20  H    0.124203   0.006842
    21  H    0.125060   0.019179
    22  H    0.331959  -0.009755
    23  H    0.095294   0.028848
    24  H    0.111098   0.011482
    25  H    0.158956  -0.001571
 Sum of Mulliken charges =  -1.00000   1.00000

 Dipole moment (field-independent basis, Debye):
    X=             -3.0598    Y=             -4.2268    Z=             -0.9129  Tot=              5.2973
 Quadrupole moment (field-independent basis, Debye-Ang):
   XX=           -126.3279   YY=           -103.9696   ZZ=            -88.4479
   XY=             -9.9309   XZ=              0.6765   YZ=             -0.5429

 Summary of Natural Population Analysis:

                                       Natural Population
                Natural  -----------------------------------------------
    Atom  No    Charge         Core      Valence    Rydberg      Total
 -----------------------------------------------------------------------
      C    1   -0.29416      0.99966     2.28901    0.00548     3.29416
      C    2   -0.09326      0.99964     2.08175    0.01186     3.09326
      N    3   -0.31642      0.99967     2.80694    0.00980     3.81642
      C    4    0.34349      0.99962     1.63551    0.02139     2.65651
      O    5   -0.32872      0.99988     3.32335    0.00549     4.32872
      C    6    0.04651      0.99953     1.94298    0.01098     2.95349
      C    7   -0.15672      0.99955     2.14856    0.00860     3.15672
      C    8   -0.13543      0.99955     2.12725    0.00864     3.13543
      C    9    0.04612      0.99953     1.94255    0.01181     2.95388
      N   10   -0.19915      0.99962     2.69039    0.00914     3.69915
      C   11    0.29343      0.99963     1.68728    0.01965     2.70657
      O   12   -0.26478      0.99988     3.25769    0.00721     4.26478
      C   13   -0.32847      0.99965     2.32488    0.00394     3.32847
      H   14    0.10515      0.00000     0.39363    0.00122     0.39485
      H   15    0.09478      0.00000     0.40395    0.00127     0.40522
      H   16    0.09592      0.00000     0.40291    0.00117     0.40408
      H   17    0.09923      0.00000     0.39936    0.00141     0.40077
      H   18    0.09122      0.00000     0.40771    0.00107     0.40878
      H   19    0.18719      0.00000     0.30985    0.00296     0.31281
      H   20    0.09732      0.00000     0.40158    0.00110     0.40268
      H   21    0.09727      0.00000     0.40187    0.00086     0.40273
      H   22    0.21568      0.00000     0.28279    0.00153     0.28432
      H   23    0.10162      0.00000     0.39717    0.00122     0.39838
      H   24    0.10121      0.00000     0.39760    0.00119     0.39879
      H   25    0.10099      0.00000     0.39736    0.00165     0.39901
 =======================================================================
   * Total *   -0.00000     12.99543    34.85393    0.15064    48.00000

 Normal termination of Gaussian 16 at Thu Dec 10 00:05:07 2020.
