 Gaussian 16, Revision A.03,

 -----------------------------------------------------------
 # opt freq B3LYP/6-31G(d) empiricaldispersion=gd3bj scf=xqc
 -----------------------------------------------------------

 ------------------------------
 CID_64453519_JID_4102_neutraal
 ------------------------------
 Symbolic Z-matrix:
 Charge =  0 Multiplicity = 1

 SCF Done:  E(RB3LYP) =  -609.708419847     A.U. after   15 cycles
 SCF Done:  E(RB3LYP) =  -609.713383303     A.U. after   13 cycles
 SCF Done:  E(RB3LYP) =  -609.716289894     A.U. after   14 cycles
 SCF Done:  E(RB3LYP) =  -609.716167736     A.U. after   14 cycles
 SCF Done:  E(RB3LYP) =  -609.717008358     A.U. after   12 cycles
 SCF Done:  E(RB3LYP) =  -609.717316428     A.U. after   11 cycles
 SCF Done:  E(RB3LYP) =  -609.717407754     A.U. after   11 cycles
 SCF Done:  E(RB3LYP) =  -609.717444307     A.U. after   11 cycles
 SCF Done:  E(RB3LYP) =  -609.717471778     A.U. after   10 cycles
 SCF Done:  E(RB3LYP) =  -609.717499196     A.U. after   10 cycles
 SCF Done:  E(RB3LYP) =  -609.717624169     A.U. after   10 cycles
 SCF Done:  E(RB3LYP) =  -609.717673551     A.U. after   10 cycles
 SCF Done:  E(RB3LYP) =  -609.717676874     A.U. after    9 cycles
 SCF Done:  E(RB3LYP) =  -609.717677241     A.U. after    7 cycles
 SCF Done:  E(RB3LYP) =  -609.717677506     A.U. after    7 cycles
 SCF Done:  E(RB3LYP) =  -609.717677545     A.U. after    7 cycles
 Optimization completed.
    -- Stationary point found.
 Normal termination of Gaussian 16 at Thu Dec 10 09:22:22 2020.

 --------------------------------------------------------------------
 #N Geom=AllCheck Guess=TCheck SCRF=Check GenChk RB3LYP/6-31G(d) Freq
 --------------------------------------------------------------------

 Structure from the checkpoint file:  "JID_4102.chk"
 ------------------------------
 CID_64453519_JID_4102_neutraal
 ------------------------------
 Charge =  0 Multiplicity = 1

 SCF Done:  E(RB3LYP) =  -609.717677545     A.U. after    1 cycles

  Exact polarizability: 140.461 -16.522 115.522   5.148   3.452 107.038
 Approx polarizability: 196.109 -27.083 167.989   7.997   6.928 175.469

                      1                      2                      3
                      A                      A                      A
 Frequencies --     43.9710                57.8122                68.6024
 Red. masses --      3.9847                 4.3234                 3.3057
 Frc consts  --      0.0045                 0.0085                 0.0092
 IR Inten    --      0.5079                 2.6186                 1.2142

                      4                      5                      6
                      A                      A                      A
 Frequencies --     85.3607                99.4688               126.8101
 Red. masses --      1.1470                 2.5680                 6.3003
 Frc consts  --      0.0049                 0.0150                 0.0597
 IR Inten    --      0.0976                 1.7338                 6.5091

                      7                      8                      9
                      A                      A                      A
 Frequencies --    155.8269               167.8714               211.5918
 Red. masses --      3.7496                 2.1779                 3.2797
 Frc consts  --      0.0536                 0.0362                 0.0865
 IR Inten    --      2.7815                 2.6863                 3.2241

                     10                     11                     12
                      A                      A                      A
 Frequencies --    239.6557               261.0288               287.9126
 Red. masses --      1.6778                 2.2254                 3.1449
 Frc consts  --      0.0568                 0.0893                 0.1536
 IR Inten    --      2.0941                 1.9136                 5.0441

                     13                     14                     15
                      A                      A                      A
 Frequencies --    307.2475               327.8717               360.9033
 Red. masses --      2.1866                 1.1862                 3.3400
 Frc consts  --      0.1216                 0.0751                 0.2563
 IR Inten    --      1.3023                 0.5303                 1.1333

                     16                     17                     18
                      A                      A                      A
 Frequencies --    372.7629               418.9287               428.1247
 Red. masses --      2.2921                 2.9897                 2.2602
 Frc consts  --      0.1876                 0.3091                 0.2441
 IR Inten    --      0.0800                15.4379                 7.4106

                     19                     20                     21
                      A                      A                      A
 Frequencies --    519.9801               566.8186               592.6356
 Red. masses --      3.3455                 5.2591                 4.5153
 Frc consts  --      0.5330                 0.9955                 0.9344
 IR Inten    --      2.9242                 0.3508                 3.3090

                     22                     23                     24
                      A                      A                      A
 Frequencies --    628.3421               649.0577               679.5313
 Red. masses --      4.6349                 3.6915                 5.1756
 Frc consts  --      1.0782                 0.9163                 1.4081
 IR Inten    --      2.3978                 3.6147                 3.1075

                     25                     26                     27
                      A                      A                      A
 Frequencies --    688.4856               719.2971               751.5641
 Red. masses --      3.1450                 3.4363                 1.3169
 Frc consts  --      0.8783                 1.0475                 0.4383
 IR Inten    --     25.4903                 8.4688                81.3028

                     28                     29                     30
                      A                      A                      A
 Frequencies --    758.8736               826.7015               865.0624
 Red. masses --      1.5529                 1.2619                 1.9813
 Frc consts  --      0.5269                 0.5081                 0.8736
 IR Inten    --     29.3342                 1.1854                 4.5202

                     31                     32                     33
                      A                      A                      A
 Frequencies --    908.7349               964.0517               994.5183
 Red. masses --      2.0247                 2.1572                 1.7332
 Frc consts  --      0.9851                 1.1812                 1.0100
 IR Inten    --      0.8783                12.4638                 1.0148

                     34                     35                     36
                      A                      A                      A
 Frequencies --    999.8385              1021.6479              1036.3984
 Red. masses --      1.8982                 2.1866                 4.0587
 Frc consts  --      1.1180                 1.3447                 2.5686
 IR Inten    --      4.5023                 0.4954                 8.2418

                     37                     38                     39
                      A                      A                      A
 Frequencies --   1058.8606              1076.8371              1079.1048
 Red. masses --      2.4345                 1.4754                 1.4269
 Frc consts  --      1.6082                 1.0080                 0.9790
 IR Inten    --      5.0474                 2.4054                24.0362

                     40                     41                     42
                      A                      A                      A
 Frequencies --   1107.3739              1130.0763              1163.2671
 Red. masses --      1.8109                 3.3902                 1.4449
 Frc consts  --      1.3084                 2.5509                 1.1520
 IR Inten    --      0.9128                16.3698                 3.8858

                     43                     44                     45
                      A                      A                      A
 Frequencies --   1180.0778              1181.8003              1235.9090
 Red. masses --      1.6092                 1.7217                 2.0596
 Frc consts  --      1.3204                 1.4168                 1.8536
 IR Inten    --     18.6606                22.6615                33.1346

                     46                     47                     48
                      A                      A                      A
 Frequencies --   1245.6257              1262.3928              1325.4820
 Red. masses --      1.9974                 2.1611                 1.5532
 Frc consts  --      1.8259                 2.0292                 1.6078
 IR Inten    --     27.8409                 8.9911                10.2025

                     49                     50                     51
                      A                      A                      A
 Frequencies --   1365.0188              1403.1071              1414.7502
 Red. masses --      2.0915                 1.5887                 2.3254
 Frc consts  --      2.2961                 1.8427                 2.7422
 IR Inten    --      6.2341                 5.3541                36.9181

                     52                     53                     54
                      A                      A                      A
 Frequencies --   1422.4840              1436.1047              1436.7489
 Red. masses --      1.8969                 1.3656                 1.2814
 Frc consts  --      2.2615                 1.6594                 1.5585
 IR Inten    --      8.8073                 4.9906                19.0015

                     55                     56                     57
                      A                      A                      A
 Frequencies --   1463.1568              1482.7528              1498.5199
 Red. masses --      3.0023                 1.1732                 1.1257
 Frc consts  --      3.7869                 1.5197                 1.4894
 IR Inten    --     14.3151                 0.3821                 7.1863

                     58                     59                     60
                      A                      A                      A
 Frequencies --   1503.6464              1514.1011              1516.4710
 Red. masses --      1.2732                 1.0455                 1.0877
 Frc consts  --      1.6961                 1.4122                 1.4738
 IR Inten    --      9.7284                 5.4801                 5.6862

                     61                     62                     63
                      A                      A                      A
 Frequencies --   1520.4137              1528.7764              1530.8489
 Red. masses --      1.1713                 1.3411                 1.6180
 Frc consts  --      1.5952                 1.8468                 2.2341
 IR Inten    --     14.9498                 0.6276                 8.3291

                     64                     65                     66
                      A                      A                      A
 Frequencies --   1531.6345              1550.6767              1555.6441
 Red. masses --      1.1210                 1.0616                 1.0879
 Frc consts  --      1.5495                 1.5041                 1.5512
 IR Inten    --      1.0352                 6.5552                 5.2646

                     67                     68                     69
                      A                      A                      A
 Frequencies --   1592.8562              2338.6586              2990.0786
 Red. masses --      4.3448                12.7235                 1.0566
 Frc consts  --      6.4950                41.0007                 5.5659
 IR Inten    --     41.1922                 5.1840                56.6570

                     70                     71                     72
                      A                      A                      A
 Frequencies --   3048.4365              3050.7012              3069.0243
 Red. masses --      1.0379                 1.0629                 1.0406
 Frc consts  --      5.6826                 5.8286                 5.7747
 IR Inten    --     34.7406                13.6921                19.0852

                     73                     74                     75
                      A                      A                      A
 Frequencies --   3071.3160              3095.2390              3098.6640
 Red. masses --      1.0640                 1.1008                 1.1012
 Frc consts  --      5.9137                 6.2138                 6.2297
 IR Inten    --     35.4687                23.4094                22.9980

                     76                     77                     78
                      A                      A                      A
 Frequencies --   3104.4474              3139.7075              3142.1497
 Red. masses --      1.0775                 1.1035                 1.1001
 Frc consts  --      6.1186                 6.4091                 6.3991
 IR Inten    --     20.8264                24.0974                11.5790

                     79                     80                     81
                      A                      A                      A
 Frequencies --   3145.4257              3152.3513              3163.6262
 Red. masses --      1.1021                 1.0963                 1.1048
 Frc consts  --      6.4242                 6.4190                 6.5147
 IR Inten    --     11.8092                 9.3438                 1.1504

                     82                     83                     84
                      A                      A                      A
 Frequencies --   3256.9661              3276.5464              3512.3546
 Red. masses --      1.0906                 1.1046                 1.0744
 Frc consts  --      6.8161                 6.9869                 7.8093
 IR Inten    --      2.6436                 3.8146                 0.4202

 - Thermochemistry -
 -------------------
 Temperature   298.150 Kelvin.  Pressure   1.00000 Atm.
 Atom     1 has atomic number  6 and mass  12.00000

 Molecular mass:   192.13750 amu.
 Principal axes and moments of inertia in atomic units:
                           1         2         3
     Eigenvalues --  1455.330333885.455624382.87751
           X            0.99983  -0.01702   0.00659
           Y            0.01696   0.99980   0.01023
           Z           -0.00676  -0.01011   0.99993
 This molecule is an asymmetric top.
 Rotational symmetry number  1.
 Warning -- assumption of classical behavior for rotation
           may cause significant error
 Rotational temperatures (Kelvin)      0.05951     0.02229     0.01976
 Rotational constants (GHZ):           1.24009     0.46449     0.41177
 Zero-point vibrational energy     676868.1 (Joules/Mol)
                                  161.77535 (Kcal/Mol)
 Warning -- explicit consideration of  21 degrees of freedom as
           vibrations may cause significant error
 Vibrational temperatures:     63.26    83.18    98.70   122.81   143.11
          (Kelvin)            182.45   224.20   241.53   304.43   344.81
                              375.56   414.24   442.06   471.73   519.26
                              536.32   602.74   615.98   748.14   815.53
                              852.67   904.04   933.85   977.69   990.58
                             1034.91  1081.33  1091.85  1189.44  1244.63
                             1307.47  1387.06  1430.89  1438.54  1469.92
                             1491.15  1523.46  1549.33  1552.59  1593.26
                             1625.93  1673.68  1697.87  1700.35  1778.20
                             1792.18  1816.30  1907.07  1963.96  2018.76
                             2035.51  2046.64  2066.23  2067.16  2105.16
                             2133.35  2156.04  2163.41  2178.45  2181.86
                             2187.54  2199.57  2202.55  2203.68  2231.08
                             2238.22  2291.76  3364.81  4302.06  4386.02
                             4389.28  4415.64  4418.94  4453.36  4458.29
                             4466.61  4517.34  4520.85  4525.57  4535.53
                             4551.75  4686.05  4714.22  5053.49

 Zero-point correction=                           0.257805 (Hartree/Particle)
 Thermal correction to Energy=                    0.272606
 Thermal correction to Enthalpy=                  0.273550
 Thermal correction to Gibbs Free Energy=         0.215840
 Sum of electronic and zero-point Energies=           -609.459872
 Sum of electronic and thermal Energies=              -609.445071
 Sum of electronic and thermal Enthalpies=            -609.444127
 Sum of electronic and thermal Free Energies=         -609.501838

                     E (Thermal)             CV                S
                      KCal/Mol        Cal/Mol-Kelvin    Cal/Mol-Kelvin
 Total                  171.063             54.777            121.462
 Electronic               0.000              0.000              0.000
 Translational            0.889              2.981             41.665
 Rotational               0.889              2.981             31.583
 Vibrational            169.286             48.816             48.215
 Vibration     1          0.595              1.980              5.072
 Vibration     2          0.596              1.974              4.531
 Vibration     3          0.598              1.969              4.193
 Vibration     4          0.601              1.959              3.764
 Vibration     5          0.604              1.949              3.465
 Vibration     6          0.611              1.926              2.994
 Vibration     7          0.620              1.896              2.600
 Vibration     8          0.625              1.882              2.459
 Vibration     9          0.643              1.823              2.030
 Vibration    10          0.657              1.780              1.805
 Vibration    11          0.669              1.744              1.655
 Vibration    12          0.685              1.696              1.486
 Vibration    13          0.697              1.660              1.377
 Vibration    14          0.711              1.620              1.271
 Vibration    15          0.735              1.553              1.118
 Vibration    16          0.744              1.528              1.068
 Vibration    17          0.782              1.429              0.896
 Vibration    18          0.790              1.409              0.865
 Vibration    19          0.875              1.206              0.610
 Vibration    20          0.923              1.103              0.510
 Vibration    21          0.950              1.047              0.462

 Optimization completed.
    -- Stationary point found.
 Normal termination of Gaussian 16 at Thu Dec 10 09:31:29 2020.

 ----------------------------------------------------------------------
 # B3LYP/6-311++G(d,p) empiricaldispersion=gd3bj scf=xqc pop=npa geom=c
 heck
 ----------------------------------------------------------------------

 --------------------------------------
 CID_64453519_JID_4102_Energie_neutraal
 --------------------------------------
 Structure from the checkpoint file:  "JID_4102.chk"
 Charge =  0 Multiplicity = 1

 SCF Done:  E(RB3LYP) =  -609.887012027     A.U. after   14 cycles
 Normal termination of Gaussian 16 at Thu Dec 10 09:35:07 2020.

 ----------------------------------------------------------------------
 # B3LYP/6-311++G(d,p) empiricaldispersion=gd3bj scf=xqc pop=npa geom=c
 heck
 ----------------------------------------------------------------------

 ------------------------------------
 CID_64453519_JID_4102_Energie_kation
 ------------------------------------
 Structure from the checkpoint file:  "JID_4102.chk"
 Charge =  1 Multiplicity = 2

 SCF Done:  E(UB3LYP) =  -609.581984557     A.U. after   24 cycles
 Normal termination of Gaussian 16 at Thu Dec 10 09:43:41 2020.
 Gaussian 16:  ES64L-G16RevA.03 25-Dec-2016

 ----------------------------------------------------------------------
 # B3LYP/6-311++G(d,p) empiricaldispersion=gd3bj scf=xqc pop=npa geom=c
 heck
 ----------------------------------------------------------------------

 -----------------------------------
 CID_64453519_JID_4102_Energie_anion
 -----------------------------------
 Structure from the checkpoint file:  "JID_4102.chk"
 Charge = -1 Multiplicity = 2

                         Standard orientation:
 ---------------------------------------------------------------------
 Center     Atomic      Atomic             Coordinates (Angstroms)
 Number     Number       Type             X           Y           Z
 ---------------------------------------------------------------------
      1          6           0       -3.411887    1.536757    0.657589
      2          6           0       -2.621694    0.390544    0.106713
      3          7           0       -1.714291   -0.230348    0.862273
      4          7           0       -1.204210   -1.210712    0.078758
      5          6           0       -1.759349   -1.213177   -1.160882
      6          6           0       -2.689936   -0.194772   -1.183010
      7          6           0       -0.058901   -1.968944    0.540256
      8          6           0        1.290534   -1.523550   -0.043660
      9          6           0        1.677736   -0.039056    0.182227
     10          6           0        1.496535    0.376847    1.653172
     11          6           0        3.123339    0.095985   -0.176798
     12          7           0        4.222917    0.246331   -0.520853
     13          7           0        0.856959    0.794171   -0.697144
     14          6           0        1.078470    2.235242   -0.625033
     15          1           0       -3.102279    1.740316    1.686093
     16          1           0       -4.487529    1.323386    0.657677
     17          1           0       -3.259539    2.446723    0.064929
     18          1           0       -1.461720   -1.933186   -1.910705
     19          1           0       -3.341314    0.079225   -2.000700
     20          1           0       -0.062244   -1.889381    1.628322
     21          1           0       -0.211825   -3.023957    0.285811
     22          1           0        2.064853   -2.159543    0.400945
     23          1           0        1.309509   -1.723351   -1.122557
     24          1           0        1.981176   -0.350649    2.311776
     25          1           0        1.949804    1.352177    1.844930
     26          1           0        0.427711    0.424865    1.875533
     27          1           0        0.979142    0.477246   -1.655695
     28          1           0        2.134574    2.535670   -0.731502
     29          1           0        0.501184    2.707341   -1.424609
     30          1           0        0.699794    2.621758    0.325076
 ---------------------------------------------------------------------

 SCF Done:  E(UB3LYP) =  -609.876520671     A.U. after   32 cycles

 The electronic state is 2-A.
 Alpha  occ. eigenvalues --  -14.28211 -14.22140 -14.21738 -14.21525 -10.15804
 Alpha  occ. eigenvalues --  -10.11861 -10.11166 -10.09974 -10.09706 -10.09420
 Alpha  occ. eigenvalues --  -10.09128 -10.07614 -10.07450 -10.06029  -0.94542
 Alpha  occ. eigenvalues --   -0.84166  -0.80497  -0.75472  -0.70395  -0.67961
 Alpha  occ. eigenvalues --   -0.65181  -0.61430  -0.59216  -0.55426  -0.52112
 Alpha  occ. eigenvalues --   -0.48905  -0.45239  -0.44105  -0.42397  -0.39733
 Alpha  occ. eigenvalues --   -0.37716  -0.36393  -0.34791  -0.33666  -0.33215
 Alpha  occ. eigenvalues --   -0.32827  -0.31650  -0.31121  -0.30673  -0.29376
 Alpha  occ. eigenvalues --   -0.28684  -0.28143  -0.27709  -0.27202  -0.26671
 Alpha  occ. eigenvalues --   -0.26289  -0.23962  -0.23086  -0.19338  -0.14990
 Alpha  occ. eigenvalues --   -0.14764  -0.13868   0.04204
 Alpha virt. eigenvalues --    0.06352   0.07042   0.07473   0.08740   0.09043
 Alpha virt. eigenvalues --    0.09187   0.09991   0.10287   0.10843   0.11495
 Alpha virt. eigenvalues --    0.11636   0.11913   0.12319   0.12466   0.12769

  Beta  occ. eigenvalues --  -14.28214 -14.22132 -14.21732 -14.21507 -10.15801
  Beta  occ. eigenvalues --  -10.11831 -10.11166 -10.09942 -10.09685 -10.09420
  Beta  occ. eigenvalues --  -10.09096 -10.07590 -10.07435 -10.06019  -0.94532
  Beta  occ. eigenvalues --   -0.84142  -0.80482  -0.75448  -0.70362  -0.67930
  Beta  occ. eigenvalues --   -0.65145  -0.61387  -0.59171  -0.55371  -0.52069
  Beta  occ. eigenvalues --   -0.48866  -0.45190  -0.44058  -0.42340  -0.39677
  Beta  occ. eigenvalues --   -0.37672  -0.36366  -0.34752  -0.33638  -0.33172
  Beta  occ. eigenvalues --   -0.32800  -0.31622  -0.31095  -0.30643  -0.29350
  Beta  occ. eigenvalues --   -0.28646  -0.28121  -0.27679  -0.27169  -0.26645
  Beta  occ. eigenvalues --   -0.26246  -0.23946  -0.23062  -0.19326  -0.14965
  Beta  occ. eigenvalues --   -0.14738  -0.13853
  Beta virt. eigenvalues --    0.06355   0.07337   0.07749   0.07999   0.09334
  Beta virt. eigenvalues --    0.09576   0.09858   0.10064   0.10544   0.11070
  Beta virt. eigenvalues --    0.11575   0.11990   0.12203   0.12570   0.12589

 Mulliken charges and spin densities:
               1          2
     1  C    1.052705  -1.694975
     2  C    0.077701  -0.110632
     3  N   -0.430179   0.205679
     4  N    0.579941  -0.105213
     5  C    0.125412  -0.406387
     6  C    0.016785  -0.070055
     7  C   -0.247539  -0.099943
     8  C    0.730260  -1.317106
     9  C   -0.445214   1.548150
    10  C    0.138292  -0.929832
    11  C    0.149077  -0.878104
    12  N   -0.252570  -0.008781
    13  N   -0.047724   0.063916
    14  C    0.262792  -0.679399
    15  H    0.026008   0.118493
    16  H    0.014709   0.123752
    17  H    0.025256   0.129711
    18  H   -1.204925   1.370634
    19  H   -0.435691   0.605178
    20  H    0.088492   0.091726
    21  H   -0.865649   1.102824
    22  H   -0.303602   0.483346
    23  H   -0.134442   0.336002
    24  H   -0.232744   0.399670
    25  H    0.142478   0.019082
    26  H    0.244327  -0.055455
    27  H    0.017341   0.231952
    28  H    0.109256   0.041532
    29  H   -0.131524   0.274626
    30  H   -0.069031   0.209609
 Sum of Mulliken charges =  -1.00000   1.00000

 Dipole moment (field-independent basis, Debye):
    X=             -1.5444    Y=              4.6806    Z=              3.4378  Tot=              6.0093
 Quadrupole moment (field-independent basis, Debye-Ang):
   XX=           -150.6257   YY=           -136.1646   ZZ=           -124.1531
   XY=              0.1531   XZ=             -1.0469   YZ=             -4.6357

 Summary of Natural Population Analysis:

                                       Natural Population
                Natural  -----------------------------------------------
    Atom  No    Charge         Core      Valence    Rydberg      Total
 -----------------------------------------------------------------------
      C    1   -0.29583      0.99963     2.29187    0.00433     3.29583
      C    2    0.07120      0.99960     1.91404    0.01517     2.92880
      N    3   -0.16196      0.99969     2.65122    0.01104     3.66196
      N    4   -0.11008      0.99966     2.59508    0.01535     3.61008
      C    5    0.00399      0.99954     1.98394    0.01253     2.99601
      C    6   -0.16147      0.99951     2.15262    0.00934     3.16147
      C    7   -0.08310      0.99959     2.07070    0.01282     3.08310
      C    8   -0.18622      0.99958     2.17526    0.01138     3.18622
      C    9    0.01497      0.99950     1.97065    0.01488     2.98503
      C   10   -0.29223      0.99962     2.28574    0.00687     3.29223
      C   11    0.15756      0.99962     1.82148    0.02135     2.84244
      N   12   -0.19006      0.99979     2.67810    0.01218     3.69006
      N   13   -0.32690      0.99973     2.81429    0.01288     3.82690
      C   14   -0.18241      0.99965     2.17393    0.00883     3.18241
      H   15    0.10687      0.00000     0.39213    0.00099     0.39313
      H   16    0.10080      0.00000     0.39814    0.00106     0.39920
      H   17    0.10304      0.00000     0.39584    0.00112     0.39696
      H   18    0.10822      0.00000     0.38817    0.00361     0.39178
      H   19    0.10715      0.00000     0.39185    0.00100     0.39285
      H   20    0.10739      0.00000     0.39077    0.00184     0.39261
      H   21    0.10921      0.00000     0.38771    0.00308     0.39079
      H   22    0.10926      0.00000     0.38844    0.00230     0.39074
      H   23    0.10572      0.00000     0.39101    0.00328     0.39428
      H   24    0.10439      0.00000     0.39454    0.00108     0.39561
      H   25    0.10377      0.00000     0.39527    0.00097     0.39623
      H   26    0.12198      0.00000     0.37648    0.00154     0.37802
      H   27    0.17731      0.00000     0.31905    0.00364     0.32269
      H   28    0.08350      0.00000     0.41516    0.00134     0.41650
      H   29    0.10030      0.00000     0.39890    0.00080     0.39970
      H   30    0.09366      0.00000     0.40525    0.00109     0.40634
 =======================================================================
   * Total *   -0.00000     13.99469    37.80764    0.19767    52.00000

 Normal termination of Gaussian 16 at Thu Dec 10 09:54:42 2020.
