 Gaussian 16, Revision A.03,

 -----------------------------------------------------------
 # opt freq B3LYP/6-31G(d) empiricaldispersion=gd3bj scf=xqc
 -----------------------------------------------------------

 -------------------------------
 CID_150024210_JID_5017_neutraal
 -------------------------------
 Symbolic Z-matrix:
 Charge =  0 Multiplicity = 1

 SCF Done:  E(RB3LYP) =  -1559.49720522     A.U. after   18 cycles
 SCF Done:  E(RB3LYP) =  -1559.53037871     A.U. after   16 cycles
 SCF Done:  E(RB3LYP) =  -1559.54401597     A.U. after   15 cycles
 SCF Done:  E(RB3LYP) =  -1559.55467663     A.U. after   15 cycles
 SCF Done:  E(RB3LYP) =  -1559.56196274     A.U. after   15 cycles
 SCF Done:  E(RB3LYP) =  -1559.56865512     A.U. after   16 cycles
 SCF Done:  E(RB3LYP) =  -1559.57172373     A.U. after   15 cycles
 SCF Done:  E(RB3LYP) =  -1559.57619398     A.U. after   17 cycles
 SCF Done:  E(RB3LYP) =  -1559.57872072     A.U. after   16 cycles
 SCF Done:  E(RB3LYP) =  -1559.58046189     A.U. after   14 cycles
 SCF Done:  E(RB3LYP) =  -1559.58183083     A.U. after   12 cycles
 SCF Done:  E(RB3LYP) =  -1559.58184197     A.U. after   12 cycles
 SCF Done:  E(RB3LYP) =  -1559.58184527     A.U. after   10 cycles
 SCF Done:  E(RB3LYP) =  -1559.58184656     A.U. after   10 cycles
 SCF Done:  E(RB3LYP) =  -1559.58184683     A.U. after    8 cycles
 SCF Done:  E(RB3LYP) =  -1559.58184685     A.U. after    9 cycles
 Optimization completed.
    -- Stationary point found.
 Normal termination of Gaussian 16 at Thu Dec 10 14:51:59 2020.

 --------------------------------------------------------------------
 #N Geom=AllCheck Guess=TCheck SCRF=Check GenChk RB3LYP/6-31G(d) Freq
 --------------------------------------------------------------------

 Structure from the checkpoint file:  "JID_5017.chk"
 -------------------------------
 CID_150024210_JID_5017_neutraal
 -------------------------------
 Charge =  0 Multiplicity = 1

 SCF Done:  E(RB3LYP) =  -1559.58184685     A.U. after    1 cycles

  Exact polarizability: 136.708  25.041 126.953  10.659   3.599  82.897
 Approx polarizability: 205.088  64.368 226.825  15.062   7.639 139.347

                      1                      2                      3
                      A                      A                      A
 Frequencies --     18.2875                34.4509                45.1987
 Red. masses --     13.2026                11.4583                12.7555
 Frc consts  --      0.0026                 0.0080                 0.0154
 IR Inten    --      0.2288                 1.0539                 0.0627

                      4                      5                      6
                      A                      A                      A
 Frequencies --     51.3926                75.8636                88.2809
 Red. masses --     14.4080                10.9598                10.3681
 Frc consts  --      0.0224                 0.0372                 0.0476
 IR Inten    --      0.3668                 0.4677                 1.7895

                      7                      8                      9
                      A                      A                      A
 Frequencies --    119.6907               141.6798               165.5077
 Red. masses --      9.2777                 8.6597                 8.8294
 Frc consts  --      0.0783                 0.1024                 0.1425
 IR Inten    --      0.8220                 2.6619                 1.3285

                     10                     11                     12
                      A                      A                      A
 Frequencies --    192.5140               239.8661               254.8277
 Red. masses --      2.4814                 9.0627                 4.7396
 Frc consts  --      0.0542                 0.3072                 0.1813
 IR Inten    --      0.0917                 2.5055                 7.9113

                     13                     14                     15
                      A                      A                      A
 Frequencies --    287.2628               307.0937               337.4435
 Red. masses --      6.3619                 1.6897                 4.6171
 Frc consts  --      0.3093                 0.0939                 0.3098
 IR Inten    --      8.7227                 7.9790                12.7650

                     16                     17                     18
                      A                      A                      A
 Frequencies --    352.6315               376.4166               402.8339
 Red. masses --      4.2690                 8.1322                12.6928
 Frc consts  --      0.3128                 0.6789                 1.2136
 IR Inten    --     13.6983                 1.9531                 3.0388

                     19                     20                     21
                      A                      A                      A
 Frequencies --    431.4685               496.1614               511.0348
 Red. masses --     11.9730                 7.4753                12.4079
 Frc consts  --      1.3133                 1.0842                 1.9092
 IR Inten    --      0.5328                 4.9767                40.4585

                     22                     23                     24
                      A                      A                      A
 Frequencies --    551.7068               556.7695               559.0887
 Red. masses --      1.6669                 6.8711                 5.0820
 Frc consts  --      0.2989                 1.2549                 0.9359
 IR Inten    --     48.0241                55.7662                44.9724

                     25                     26                     27
                      A                      A                      A
 Frequencies --    575.7712               616.6032               663.5094
 Red. masses --      3.7345                 1.4998                 2.7169
 Frc consts  --      0.7294                 0.3360                 0.7047
 IR Inten    --     99.2343               141.9721               215.2024

                     28                     29                     30
                      A                      A                      A
 Frequencies --    700.1782               732.4513               757.0324
 Red. masses --     10.1534                 3.4159                 9.8978
 Frc consts  --      2.9328                 1.0797                 3.3421
 IR Inten    --     45.1843                91.7212                38.9718

                     31                     32                     33
                      A                      A                      A
 Frequencies --    771.8581               866.6209               965.8870
 Red. masses --      4.6664                 3.4137                 1.9525
 Frc consts  --      1.6380                 1.5105                 1.0732
 IR Inten    --     79.9302                 4.7648                37.4232

                     34                     35                     36
                      A                      A                      A
 Frequencies --   1025.9999              1045.0287              1129.7365
 Red. masses --      1.5563                 1.5257                 6.6567
 Frc consts  --      0.9653                 0.9817                 5.0056
 IR Inten    --      3.0016                30.3062                14.0423

                     37                     38                     39
                      A                      A                      A
 Frequencies --   1158.6280              1208.9419              1232.0437
 Red. masses --     14.2843                 6.8651                 3.7255
 Frc consts  --     11.2979                 5.9116                 3.3319
 IR Inten    --    121.9649                15.3632               259.7066

                     40                     41                     42
                      A                      A                      A
 Frequencies --   1265.8465              1382.9186              1384.6384
 Red. masses --     13.4050                 2.8664                 2.8012
 Frc consts  --     12.6555                 3.2299                 3.1642
 IR Inten    --    204.1045                94.6749               208.0249

                     43                     44                     45
                      A                      A                      A
 Frequencies --   1391.0030              1434.3673              1461.6414
 Red. masses --      1.9398                 1.5026                 1.3415
 Frc consts  --      2.2114                 1.8215                 1.6886
 IR Inten    --    199.5224                87.0813                 5.3111

                     46                     47                     48
                      A                      A                      A
 Frequencies --   1512.4748              1824.8936              1846.2027
 Red. masses --      1.4735                 7.5158                 7.5870
 Frc consts  --      1.9859                14.7469                15.2363
 IR Inten    --     35.1184               433.7814               338.2393

                     49                     50                     51
                      A                      A                      A
 Frequencies --   2279.4318              2623.7370              3054.6964
 Red. masses --     13.9831                 1.0401                 1.0898
 Frc consts  --     42.8063                 4.2184                 5.9916
 IR Inten    --    537.3415                28.3859                46.7687

                     52                     53                     54
                      A                      A                      A
 Frequencies --   3497.8728              3518.4706              3593.9872
 Red. masses --      1.0756                 1.0772                 1.0761
 Frc consts  --      7.7536                 7.8569                 8.1891
 IR Inten    --     21.2315                14.9205                67.1193

 - Thermochemistry -
 -------------------
 Temperature   298.150 Kelvin.  Pressure   1.00000 Atm.
 Atom     1 has atomic number  6 and mass  12.00000

 Molecular mass:   254.98445 amu.
 Principal axes and moments of inertia in atomic units:
                           1         2         3
     Eigenvalues --  3080.122384190.237256043.93461
           X            0.99993  -0.00747   0.00903
           Y            0.00751   0.99996  -0.00463
           Z           -0.00900   0.00469   0.99995
 This molecule is an asymmetric top.
 Rotational symmetry number  1.
 Warning -- assumption of classical behavior for rotation
           may cause significant error
 Rotational temperatures (Kelvin)      0.02812     0.02067     0.01433
 Rotational constants (GHZ):           0.58593     0.43070     0.29860
 Zero-point vibrational energy     311746.5 (Joules/Mol)
                                   74.50920 (Kcal/Mol)
 Warning -- explicit consideration of  26 degrees of freedom as
           vibrations may cause significant error
 Vibrational temperatures:     26.31    49.57    65.03    73.94   109.15
          (Kelvin)            127.02   172.21   203.85   238.13   276.98
                              345.11   366.64   413.31   441.84   485.51
                              507.36   541.58   579.59   620.79   713.87
                              735.27   793.78   801.07   804.40   828.41
                              887.15   954.64  1007.40  1053.83  1089.20
                             1110.53  1246.87  1389.70  1476.19  1503.56
                             1625.44  1667.01  1739.40  1772.64  1821.27
                             1989.71  1992.19  2001.34  2063.73  2102.98
                             2176.11  2625.61  2656.27  3279.59  3774.97
                             4395.03  5032.66  5062.29  5170.95

 Zero-point correction=                           0.118738 (Hartree/Particle)
 Thermal correction to Energy=                    0.134726
 Thermal correction to Enthalpy=                  0.135670
 Thermal correction to Gibbs Free Energy=         0.072376
 Sum of electronic and zero-point Energies=          -1559.463109
 Sum of electronic and thermal Energies=             -1559.447121
 Sum of electronic and thermal Enthalpies=           -1559.446177
 Sum of electronic and thermal Free Energies=        -1559.509471

                     E (Thermal)             CV                S
                      KCal/Mol        Cal/Mol-Kelvin    Cal/Mol-Kelvin
 Total                   84.542             55.018            133.214
 Electronic               0.000              0.000              0.000
 Translational            0.889              2.981             42.508
 Rotational               0.889              2.981             32.722
 Vibrational             82.764             49.057             57.983
 Vibration     1          0.593              1.986              6.812
 Vibration     2          0.594              1.983              5.555
 Vibration     3          0.595              1.979              5.017
 Vibration     4          0.596              1.977              4.763
 Vibration     5          0.599              1.965              3.995
 Vibration     6          0.601              1.957              3.698
 Vibration     7          0.609              1.933              3.105
 Vibration     8          0.615              1.912              2.781
 Vibration     9          0.624              1.885              2.486
 Vibration    10          0.634              1.850              2.203
 Vibration    11          0.657              1.779              1.804
 Vibration    12          0.665              1.755              1.697
 Vibration    13          0.684              1.697              1.490
 Vibration    14          0.697              1.660              1.378
 Vibration    15          0.718              1.601              1.224
 Vibration    16          0.729              1.570              1.154
 Vibration    17          0.747              1.520              1.054
 Vibration    18          0.768              1.464              0.952
 Vibration    19          0.793              1.402              0.854
 Vibration    20          0.852              1.259              0.668
 Vibration    21          0.866              1.226              0.631
 Vibration    22          0.907              1.136              0.541
 Vibration    23          0.912              1.125              0.530
 Vibration    24          0.915              1.120              0.526
 Vibration    25          0.932              1.084              0.493
 Vibration    26          0.976              0.997              0.422

                           ! Non-Optimized Parameters !
 Normal termination of Gaussian 16 at Thu Dec 10 14:57:40 2020.

 ----------------------------------------------------------------------
 # B3LYP/6-311++G(d,p) empiricaldispersion=gd3bj scf=xqc pop=npa geom=c
 heck
 ----------------------------------------------------------------------

 ---------------------------------------
 CID_150024210_JID_5017_Energie_neutraal
 ---------------------------------------
 Structure from the checkpoint file:  "JID_5017.chk"
 Charge =  0 Multiplicity = 1

 SCF Done:  E(RB3LYP) =  -1559.87690996     A.U. after   18 cycles
 Normal termination of Gaussian 16 at Thu Dec 10 14:59:59 2020.

 ----------------------------------------------------------------------
 # B3LYP/6-311++G(d,p) empiricaldispersion=gd3bj scf=xqc pop=npa geom=c
 heck
 ----------------------------------------------------------------------

 -------------------------------------
 CID_150024210_JID_5017_Energie_kation
 -------------------------------------
 Structure from the checkpoint file:  "JID_5017.chk"
 Charge =  1 Multiplicity = 2

 SCF Done:  E(UB3LYP) =  -1559.52246768     A.U. after   32 cycles
 Normal termination of Gaussian 16 at Thu Dec 10 15:11:12 2020.
 Gaussian 16:  ES64L-G16RevA.03 25-Dec-2016

 ----------------------------------------------------------------------
 # B3LYP/6-311++G(d,p) empiricaldispersion=gd3bj scf=xqc pop=npa geom=c
 heck
 ----------------------------------------------------------------------

 ------------------------------------
 CID_150024210_JID_5017_Energie_anion
 ------------------------------------
 Structure from the checkpoint file:  "JID_5017.chk"
 Charge = -1 Multiplicity = 2

                         Standard orientation:
 ---------------------------------------------------------------------
 Center     Atomic      Atomic             Coordinates (Angstroms)
 Number     Number       Type             X           Y           Z
 ---------------------------------------------------------------------
      1          6           0        1.339349    2.552868   -0.343138
      2          8           0        1.442720    3.670013   -0.790290
      3          7           0        0.510958    1.595673   -0.905755
      4          7           0        0.302926    0.395299   -0.259665
      5          7           0        0.389903   -0.717407   -1.088266
      6          6           0        0.880369   -1.944074   -0.605415
      7          8           0        0.427201   -2.985223   -1.039909
      8          7           0        1.884572   -1.908709    0.342146
      9         16           0        3.094943   -0.704087    0.536179
     10         16           0       -1.130401    0.393940    0.735488
     11          8           0       -1.222497   -0.900971    1.390555
     12          8           0       -1.151605    1.655114    1.450732
     13          7           0       -2.320615    0.465397   -0.568697
     14          7           0       -3.277049   -0.317656   -0.389383
     15          7           0       -4.178955   -0.998516   -0.302721
     16          1           0        1.885037    2.155700    0.527160
     17          1           0       -0.140207    1.881987   -1.634805
     18          1           0       -0.413386   -0.866843   -1.698167
     19          1           0        2.160954   -2.846816    0.608370
     20          1           0        2.607903   -0.124478    1.659766
 ---------------------------------------------------------------------

 SCF Done:  E(UB3LYP) =  -1559.91754151     A.U. after   26 cycles

 The electronic state is 2-A.
 Alpha  occ. eigenvalues --  -88.93058 -88.79574 -19.01152 -19.00974 -19.00933
 Alpha  occ. eigenvalues --  -19.00417 -14.30955 -14.29249 -14.27967 -14.27621
 Alpha  occ. eigenvalues --  -14.26892 -14.22246 -14.20550 -10.21556 -10.18190
 Alpha  occ. eigenvalues --   -7.99675  -7.87992  -5.95853  -5.95823  -5.95756
 Alpha  occ. eigenvalues --   -5.84543  -5.83994  -5.83256  -1.02619  -0.98255
 Alpha  occ. eigenvalues --   -0.97356  -0.96360  -0.93770  -0.90772  -0.84763
 Alpha  occ. eigenvalues --   -0.82404  -0.81956  -0.69392  -0.64664  -0.58172
 Alpha  occ. eigenvalues --   -0.55097  -0.52614  -0.48786  -0.48248  -0.43113
 Alpha  occ. eigenvalues --   -0.40915  -0.40488  -0.39679  -0.36649  -0.35733
 Alpha  occ. eigenvalues --   -0.35377  -0.34251  -0.34092  -0.33631  -0.31824
 Alpha  occ. eigenvalues --   -0.30531  -0.30129  -0.27111  -0.26114  -0.22920
 Alpha  occ. eigenvalues --   -0.22534  -0.21746  -0.20274  -0.19231  -0.18744
 Alpha  occ. eigenvalues --   -0.18510  -0.17345  -0.16869  -0.16112  -0.12926
 Alpha  occ. eigenvalues --    0.02787
 Alpha virt. eigenvalues --    0.05755   0.06932   0.08976   0.09614   0.09837
 Alpha virt. eigenvalues --    0.11447   0.12045   0.12161   0.12728   0.13618
 Alpha virt. eigenvalues --    0.14267   0.14845   0.15677   0.16415   0.16581

  Beta  occ. eigenvalues --  -88.92851 -88.79558 -19.01049 -19.00879 -19.00874
  Beta  occ. eigenvalues --  -19.00376 -14.30813 -14.28745 -14.27979 -14.27632
  Beta  occ. eigenvalues --  -14.26847 -14.22196 -14.19674 -10.21519 -10.18146
  Beta  occ. eigenvalues --   -7.99434  -7.87977  -5.95687  -5.95659  -5.95387
  Beta  occ. eigenvalues --   -5.84493  -5.83986  -5.83247  -1.02213  -0.97998
  Beta  occ. eigenvalues --   -0.96497  -0.96148  -0.93635  -0.90463  -0.84686
  Beta  occ. eigenvalues --   -0.82354  -0.81209  -0.69130  -0.64563  -0.57406
  Beta  occ. eigenvalues --   -0.54948  -0.52527  -0.48723  -0.47570  -0.42978
  Beta  occ. eigenvalues --   -0.40728  -0.40304  -0.39635  -0.35643  -0.35576
  Beta  occ. eigenvalues --   -0.34367  -0.34035  -0.33841  -0.32957  -0.31546
  Beta  occ. eigenvalues --   -0.30315  -0.28196  -0.26219  -0.25868  -0.22777
  Beta  occ. eigenvalues --   -0.22356  -0.21442  -0.20162  -0.18937  -0.18601
  Beta  occ. eigenvalues --   -0.18257  -0.17238  -0.16646  -0.15160  -0.12541
  Beta virt. eigenvalues --    0.06031   0.06880   0.08849   0.09802   0.09888
  Beta virt. eigenvalues --    0.11215   0.12004   0.12040   0.12293   0.12828
  Beta virt. eigenvalues --    0.13827   0.14418   0.15360   0.15699   0.16431

 Mulliken charges and spin densities:
               1          2
     1  C    0.095787   0.037389
     2  O   -0.323131   0.016129
     3  N   -0.320573  -0.009483
     4  N    0.253980   0.033381
     5  N   -0.658376   0.004204
     6  C    0.183987   0.000258
     7  O   -0.313809   0.012615
     8  N   -0.314712  -0.012835
     9  S   -0.141147   0.071487
    10  S    0.425960   0.164901
    11  O   -0.218145   0.024735
    12  O   -0.140213   0.021744
    13  N   -0.376459   0.008662
    14  N    0.108615   0.130979
    15  N   -0.364106   0.466832
    16  H    0.064717  -0.002776
    17  H    0.297391  -0.000221
    18  H    0.311449  -0.000214
    19  H    0.340183   0.024226
    20  H    0.088603   0.007984
 Sum of Mulliken charges =  -1.00000   1.00000

 Dipole moment (field-independent basis, Debye):
    X=              7.1010    Y=             -0.5308    Z=             -0.1969  Tot=              7.1235
 Quadrupole moment (field-independent basis, Debye-Ang):
   XX=           -143.4118   YY=           -142.4106   ZZ=           -109.1333
   XY=            -13.4785   XZ=              6.4976   YZ=             -1.7354

 Summary of Natural Population Analysis:

                                       Natural Population
                Natural  -----------------------------------------------
    Atom  No    Charge         Core      Valence    Rydberg      Total
 -----------------------------------------------------------------------
      C    1    0.28543      0.99977     1.69226    0.02255     2.71457
      O    2   -0.30042      0.99988     3.29348    0.00706     4.30042
      N    3   -0.23029      0.99969     2.71824    0.01235     3.73029
      N    4   -0.17660      0.99974     2.65287    0.02400     3.67660
      N    5   -0.24381      0.99966     2.73068    0.01346     3.74381
      C    6    0.41183      0.99970     1.56421    0.02425     2.58817
      O    7   -0.31150      0.99987     3.30558    0.00605     4.31150
      N    8   -0.39003      0.99966     2.88097    0.00940     3.89003
      S    9    0.09700      4.99965     2.88312    0.02022     7.90300
      S   10    1.15750      4.99936     1.73987    0.10327     6.84250
      O   11   -0.44190      0.99990     3.43585    0.00615     4.44190
      O   12   -0.44235      0.99990     3.43642    0.00604     4.44235
      N   13   -0.34691      0.99974     2.83307    0.01410     3.84691
      N   14    0.13881      0.99972     2.34506    0.01642     3.36119
      N   15    0.09637      0.99982     2.39173    0.01209     3.40363
      H   16    0.05684      0.00000     0.44133    0.00182     0.44316
      H   17    0.19312      0.00000     0.30515    0.00173     0.30688
      H   18    0.19586      0.00000     0.30222    0.00192     0.30414
      H   19    0.19731      0.00000     0.30012    0.00257     0.30269
      H   20    0.05373      0.00000     0.44262    0.00365     0.44627
 =======================================================================
   * Total *    0.00000     22.99606    41.69483    0.30911    65.00000

 Normal termination of Gaussian 16 at Thu Dec 10 15:18:33 2020.
