 Gaussian 16, Revision A.03,

 -----------------------------------------------------------
 # opt freq B3LYP/6-31G(d) empiricaldispersion=gd3bj scf=xqc
 -----------------------------------------------------------

 -------------------------------
 CID_104095269_JID_6788_neutraal
 -------------------------------
 Symbolic Z-matrix:
 Charge =  0 Multiplicity = 1

 SCF Done:  E(RB3LYP) =  -731.735012862     A.U. after   14 cycles
 SCF Done:  E(RB3LYP) =  -731.739488669     A.U. after   12 cycles
 SCF Done:  E(RB3LYP) =  -731.735974829     A.U. after   14 cycles
 SCF Done:  E(RB3LYP) =  -731.736175138     A.U. after   12 cycles
 SCF Done:  E(RB3LYP) =  -731.741189562     A.U. after    9 cycles
 SCF Done:  E(RB3LYP) =  -731.742225100     A.U. after   12 cycles
 SCF Done:  E(RB3LYP) =  -731.742737544     A.U. after   12 cycles
 SCF Done:  E(RB3LYP) =  -731.742827433     A.U. after   11 cycles
 SCF Done:  E(RB3LYP) =  -731.743064865     A.U. after   11 cycles
 SCF Done:  E(RB3LYP) =  -731.743093629     A.U. after   11 cycles
 SCF Done:  E(RB3LYP) =  -731.743146259     A.U. after    8 cycles
 SCF Done:  E(RB3LYP) =  -731.743147123     A.U. after    8 cycles
 SCF Done:  E(RB3LYP) =  -731.743147417     A.U. after    8 cycles
 SCF Done:  E(RB3LYP) =  -731.743147581     A.U. after    7 cycles
 SCF Done:  E(RB3LYP) =  -731.743147613     A.U. after    7 cycles
 Optimization completed.
    -- Stationary point found.
 Normal termination of Gaussian 16 at Fri Dec 11 00:43:48 2020.

 --------------------------------------------------------------------
 #N Geom=AllCheck Guess=TCheck SCRF=Check GenChk RB3LYP/6-31G(d) Freq
 --------------------------------------------------------------------

 Structure from the checkpoint file:  "JID_6788.chk"
 -------------------------------
 CID_104095269_JID_6788_neutraal
 -------------------------------
 Charge =  0 Multiplicity = 1

 SCF Done:  E(RB3LYP) =  -731.743147613     A.U. after    1 cycles

  Exact polarizability: 158.536   3.108 146.943  -0.104  -0.255 123.226
 Approx polarizability: 210.375   8.736 200.503  -6.139 -11.023 187.369

                      1                      2                      3
                      A                      A                      A
 Frequencies --     27.9668                48.1041                58.2754
 Red. masses --      3.3907                 3.8463                 2.7077
 Frc consts  --      0.0016                 0.0052                 0.0054
 IR Inten    --      0.2543                 0.1546                 0.0205

                      4                      5                      6
                      A                      A                      A
 Frequencies --     82.4098               115.8192               117.4503
 Red. masses --      3.1782                 3.3137                 3.4187
 Frc consts  --      0.0127                 0.0262                 0.0278
 IR Inten    --      2.5237                 0.4630                 1.1678

                      7                      8                      9
                      A                      A                      A
 Frequencies --    133.9998               160.1616               178.2875
 Red. masses --      3.9475                 2.7056                 2.0615
 Frc consts  --      0.0418                 0.0409                 0.0386
 IR Inten    --      2.3222                 0.0812                 3.7063

                     10                     11                     12
                      A                      A                      A
 Frequencies --    193.0180               215.2418               222.3948
 Red. masses --      1.5359                 1.1980                 1.6450
 Frc consts  --      0.0337                 0.0327                 0.0479
 IR Inten    --      0.6929                 1.3661                 0.0864

                     13                     14                     15
                      A                      A                      A
 Frequencies --    240.5444               258.5774               268.2799
 Red. masses --      2.4832                 1.8132                 1.9406
 Frc consts  --      0.0847                 0.0714                 0.0823
 IR Inten    --      1.2847                 0.8243                 2.2690

                     16                     17                     18
                      A                      A                      A
 Frequencies --    277.4470               293.9752               310.7625
 Red. masses --      2.5240                 2.6111                 3.4482
 Frc consts  --      0.1145                 0.1330                 0.1962
 IR Inten    --      1.6747                 2.0089                10.6528

                     19                     20                     21
                      A                      A                      A
 Frequencies --    377.7904               385.7022               426.7688
 Red. masses --      2.4086                 2.0004                 2.2412
 Frc consts  --      0.2025                 0.1753                 0.2405
 IR Inten    --      0.4381                 0.2253                 3.4619

                     22                     23                     24
                      A                      A                      A
 Frequencies --    460.2311               471.4851               505.9385
 Red. masses --      3.0770                 3.2205                 3.1193
 Frc consts  --      0.3840                 0.4218                 0.4704
 IR Inten    --      9.2277                 3.8717                 9.5338

                     25                     26                     27
                      A                      A                      A
 Frequencies --    512.0176               554.4306               615.2091
 Red. masses --      2.5523                 3.4153                 3.7052
 Frc consts  --      0.3942                 0.6186                 0.8262
 IR Inten    --     18.3943                10.0161                12.1449

                     28                     29                     30
                      A                      A                      A
 Frequencies --    652.8385               738.6622               744.5728
 Red. masses --      2.4638                 4.4373                 2.1307
 Frc consts  --      0.6187                 1.4265                 0.6960
 IR Inten    --     10.4752                 1.5370                31.3444

                     31                     32                     33
                      A                      A                      A
 Frequencies --    786.8462               789.2023               837.2905
 Red. masses --      1.5459                 1.7964                 2.8677
 Frc consts  --      0.5639                 0.6592                 1.1845
 IR Inten    --     28.4728                 6.7703                 3.0626

                     34                     35                     36
                      A                      A                      A
 Frequencies --    867.0311               867.8562               874.5871
 Red. masses --      2.0506                 2.1789                 2.1246
 Frc consts  --      0.9082                 0.9669                 0.9575
 IR Inten    --      6.8230                19.0201                 2.1429

                     37                     38                     39
                      A                      A                      A
 Frequencies --    891.7464               908.8415               933.2848
 Red. masses --      1.8558                 2.1658                 1.6369
 Frc consts  --      0.8695                 1.0540                 0.8400
 IR Inten    --      6.6275                 6.7726                 8.3458

                     40                     41                     42
                      A                      A                      A
 Frequencies --    967.4479               987.7070              1042.4011
 Red. masses --      1.8677                 1.7682                 2.1332
 Frc consts  --      1.0299                 1.0163                 1.3657
 IR Inten    --     21.8902                22.8604                19.6821

                     43                     44                     45
                      A                      A                      A
 Frequencies --   1056.7398              1066.0215              1076.4154
 Red. masses --      2.3247                 2.1467                 1.6644
 Frc consts  --      1.5295                 1.4373                 1.1362
 IR Inten    --     22.4780                12.6706                 0.4350

                     46                     47                     48
                      A                      A                      A
 Frequencies --   1098.5247              1112.0815              1121.1093
 Red. masses --      2.1247                 1.9742                 2.0112
 Frc consts  --      1.5107                 1.4385                 1.4893
 IR Inten    --     16.6582                 7.1120                22.2560

                     49                     50                     51
                      A                      A                      A
 Frequencies --   1127.0382              1144.9678              1154.1726
 Red. masses --      1.9740                 1.7591                 4.3581
 Frc consts  --      1.4774                 1.3587                 3.4205
 IR Inten    --     10.9257                22.3953                73.8281

                     52                     53                     54
                      A                      A                      A
 Frequencies --   1156.9523              1183.9520              1193.5588
 Red. masses --      2.7322                 2.2662                 1.3045
 Frc consts  --      2.1548                 1.8716                 1.0949
 IR Inten    --     67.1776                13.9609                 3.2862

                     55                     56                     57
                      A                      A                      A
 Frequencies --   1202.0114              1218.7653              1235.0440
 Red. masses --      1.3118                 1.3560                 2.0855
 Frc consts  --      1.1167                 1.1868                 1.8743
 IR Inten    --      7.6478                 6.9086                18.6261

                     58                     59                     60
                      A                      A                      A
 Frequencies --   1248.3494              1308.3521              1314.4851
 Red. masses --      1.7392                 1.2072                 1.3408
 Frc consts  --      1.5969                 1.2176                 1.3650
 IR Inten    --     20.1219                12.6227                60.0690

                     61                     62                     63
                      A                      A                      A
 Frequencies --   1326.0940              1344.4286              1348.6978
 Red. masses --      1.3851                 1.3087                 1.8185
 Frc consts  --      1.4351                 1.3937                 1.9489
 IR Inten    --     11.8629                12.1879                18.7769

                     64                     65                     66
                      A                      A                      A
 Frequencies --   1353.5040              1366.9663              1383.7952
 Red. masses --      1.3539                 1.3276                 1.5404
 Frc consts  --      1.4614                 1.4617                 1.7379
 IR Inten    --     18.7548                24.0703                33.4921

                     67                     68                     69
                      A                      A                      A
 Frequencies --   1391.1489              1400.6410              1404.1486
 Red. masses --      1.4281                 1.2040                 1.3890
 Frc consts  --      1.6283                 1.3917                 1.6135
 IR Inten    --      2.0147                16.3664                 0.2722

                     70                     71                     72
                      A                      A                      A
 Frequencies --   1422.5317              1426.1899              1434.4561
 Red. masses --      1.2587                 1.5314                 1.2689
 Frc consts  --      1.5008                 1.8352                 1.5383
 IR Inten    --     10.9688                12.3987                 9.2520

                     73                     74                     75
                      A                      A                      A
 Frequencies --   1446.7717              1448.8344              1488.8180
 Red. masses --      1.3650                 1.3977                 1.1733
 Frc consts  --      1.6834                 1.7286                 1.5324
 IR Inten    --      1.6446                 4.9470                36.0607

                     76                     77                     78
                      A                      A                      A
 Frequencies --   1495.9138              1502.7373              1503.9987
 Red. masses --      1.2336                 1.1299                 1.1225
 Frc consts  --      1.6265                 1.5033                 1.4960
 IR Inten    --      7.8430                 9.4462                 2.2189

                     79                     80                     81
                      A                      A                      A
 Frequencies --   1507.9504              1515.3228              1517.3599
 Red. masses --      1.2146                 1.0715                 1.0889
 Frc consts  --      1.6273                 1.4497                 1.4771
 IR Inten    --     16.4027                 0.7161                14.6501

                     82                     83                     84
                      A                      A                      A
 Frequencies --   1519.2521              1523.0142              1526.1845
 Red. masses --      1.0682                 1.0853                 1.0979
 Frc consts  --      1.4527                 1.4832                 1.5067
 IR Inten    --      0.2609                 6.6710                13.5370

                     85                     86                     87
                      A                      A                      A
 Frequencies --   1530.2304              1531.9484              1537.5606
 Red. masses --      1.0947                 1.0771                 1.0968
 Frc consts  --      1.5103                 1.4893                 1.5277
 IR Inten    --     10.0602                 1.7528                 1.1320

                     88                     89                     90
                      A                      A                      A
 Frequencies --   1537.8199              1541.2181              1732.6200
 Red. masses --      1.0681                 1.0755                 9.0346
 Frc consts  --      1.4883                 1.5052                15.9796
 IR Inten    --      6.2062                 7.7360               248.4974

                     91                     92                     93
                      A                      A                      A
 Frequencies --   2914.9389              2922.1308              3009.4496
 Red. masses --      1.0743                 1.0730                 1.0358
 Frc consts  --      5.3780                 5.3983                 5.5271
 IR Inten    --     50.4715               129.4783                43.1877

                     94                     95                     96
                      A                      A                      A
 Frequencies --   3035.0657              3037.6422              3043.4171
 Red. masses --      1.0702                 1.0703                 1.0850
 Frc consts  --      5.8082                 5.8187                 5.9209
 IR Inten    --     26.2820                34.5474                33.5014

                     97                     98                     99
                      A                      A                      A
 Frequencies --   3051.4817              3057.0445              3059.7613
 Red. masses --      1.0380                 1.0653                 1.1039
 Frc consts  --      5.6946                 5.8657                 6.0891
 IR Inten    --     26.7547                34.1715                55.2980

                    100                    101                    102
                      A                      A                      A
 Frequencies --   3066.7264              3086.5339              3095.3849
 Red. masses --      1.0344                 1.0885                 1.0880
 Frc consts  --      5.7318                 6.1099                 6.1421
 IR Inten    --     11.8261                55.9576                14.1180

                    103                    104                    105
                      A                      A                      A
 Frequencies --   3099.9372              3100.8246              3107.1995
 Red. masses --      1.0949                 1.0881                 1.1002
 Frc consts  --      6.1992                 6.1641                 6.2583
 IR Inten    --     18.2864                37.7945                53.5700

                    106                    107                    108
                      A                      A                      A
 Frequencies --   3111.3228              3120.1115              3140.4091
 Red. masses --      1.0952                 1.0709                 1.1029
 Frc consts  --      6.2462                 6.1426                 6.4084
 IR Inten    --     28.3840                41.4079                31.3757

                    109                    110                    111
                      A                      A                      A
 Frequencies --   3143.5477              3143.6737              3146.2726
 Red. masses --      1.1011                 1.1010                 1.0998
 Frc consts  --      6.4110                 6.4105                 6.4141
 IR Inten    --      2.2564                39.7437                24.2338

                    112                    113                    114
                      A                      A                      A
 Frequencies --   3181.9404              3205.2560              3507.3154
 Red. masses --      1.1003                 1.0837                 1.0747
 Frc consts  --      6.5634                 6.5599                 7.7895
 IR Inten    --     11.0902                 5.9759                 0.2641

 - Thermochemistry -
 -------------------
 Temperature   298.150 Kelvin.  Pressure   1.00000 Atm.
 Atom     1 has atomic number  6 and mass  12.00000

 Molecular mass:   228.18378 amu.
 Principal axes and moments of inertia in atomic units:
                           1         2         3
     Eigenvalues --  2815.099323985.402805403.58266
           X            0.99995  -0.00633   0.00822
           Y            0.00612   0.99966   0.02551
           Z           -0.00837  -0.02545   0.99964
 This molecule is an asymmetric top.
 Rotational symmetry number  1.
 Warning -- assumption of classical behavior for rotation
           may cause significant error
 Rotational temperatures (Kelvin)      0.03077     0.02173     0.01603
 Rotational constants (GHZ):           0.64109     0.45284     0.33399
 Zero-point vibrational energy     955928.1 (Joules/Mol)
                                  228.47229 (Kcal/Mol)
 Warning -- explicit consideration of  27 degrees of freedom as
           vibrations may cause significant error
 Vibrational temperatures:     40.24    69.21    83.85   118.57   166.64
          (Kelvin)            168.98   192.80   230.44   256.52   277.71
                              309.68   319.98   346.09   372.04   385.99
                              399.18   422.96   447.12   543.56   554.94
                              614.03   662.17   678.36   727.93   736.68
                              797.70   885.15   939.29  1062.77  1071.27
                             1132.10  1135.49  1204.67  1247.46  1248.65
                             1258.34  1283.02  1307.62  1342.79  1391.94
                             1421.09  1499.78  1520.41  1533.77  1548.72
                             1580.53  1600.04  1613.03  1621.56  1647.35
                             1660.60  1664.60  1703.44  1717.26  1729.43
                             1753.53  1776.95  1796.10  1882.43  1891.25
                             1907.95  1934.33  1940.48  1947.39  1966.76
                             1990.97  2001.55  2015.21  2020.26  2046.71
                             2051.97  2063.86  2081.58  2084.55  2142.08
                             2152.29  2162.10  2163.92  2169.60  2180.21
                             2183.14  2185.86  2191.28  2195.84  2201.66
                             2204.13  2212.21  2212.58  2217.47  2492.85
                             4193.95  4204.29  4329.93  4366.78  4370.49
                             4378.80  4390.40  4398.41  4402.31  4412.34
                             4440.83  4453.57  4460.12  4461.39  4470.57
                             4476.50  4489.14  4518.35  4522.86  4523.05
                             4526.78  4578.10  4611.65  5046.24

 Zero-point correction=                           0.364094 (Hartree/Particle)
 Thermal correction to Energy=                    0.381647
 Thermal correction to Enthalpy=                  0.382591
 Thermal correction to Gibbs Free Energy=         0.318844
 Sum of electronic and zero-point Energies=           -731.379054
 Sum of electronic and thermal Energies=              -731.361501
 Sum of electronic and thermal Enthalpies=            -731.360557
 Sum of electronic and thermal Free Energies=         -731.424304

                     E (Thermal)             CV                S
                      KCal/Mol        Cal/Mol-Kelvin    Cal/Mol-Kelvin
 Total                  239.487             66.249            134.167
 Electronic               0.000              0.000              0.000
 Translational            0.889              2.981             42.177
 Rotational               0.889              2.981             32.472
 Vibrational            237.709             60.288             59.518
 Vibration     1          0.593              1.984              5.969
 Vibration     2          0.595              1.978              4.894
 Vibration     3          0.596              1.974              4.515
 Vibration     4          0.600              1.961              3.833
 Vibration     5          0.608              1.936              3.169
 Vibration     6          0.608              1.935              3.142
 Vibration     7          0.613              1.919              2.888
 Vibration     8          0.622              1.891              2.548
 Vibration     9          0.629              1.869              2.346
 Vibration    10          0.635              1.850              2.199
 Vibration    11          0.645              1.818              1.999
 Vibration    12          0.648              1.807              1.940
 Vibration    13          0.658              1.778              1.799
 Vibration    14          0.667              1.748              1.671
 Vibration    15          0.673              1.731              1.607
 Vibration    16          0.678              1.715              1.549
 Vibration    17          0.689              1.685              1.451
 Vibration    18          0.700              1.653              1.358
 Vibration    19          0.748              1.517              1.048
 Vibration    20          0.754              1.501              1.017
 Vibration    21          0.788              1.412              0.869
 Vibration    22          0.818              1.338              0.765
 Vibration    23          0.828              1.313              0.733
 Vibration    24          0.861              1.237              0.643
 Vibration    25          0.867              1.223              0.629
 Vibration    26          0.910              1.130              0.535
 Vibration    27          0.975              1.000              0.424

 Optimization completed.
    -- Stationary point found.
 Normal termination of Gaussian 16 at Fri Dec 11 01:02:03 2020.

 ----------------------------------------------------------------------
 # B3LYP/6-311++G(d,p) empiricaldispersion=gd3bj scf=xqc pop=npa geom=c
 heck
 ----------------------------------------------------------------------

 ---------------------------------------
 CID_104095269_JID_6788_Energie_neutraal
 ---------------------------------------
 Structure from the checkpoint file:  "JID_6788.chk"
 Charge =  0 Multiplicity = 1

 SCF Done:  E(RB3LYP) =  -731.954155143     A.U. after   14 cycles
 Normal termination of Gaussian 16 at Fri Dec 11 01:10:55 2020.

 ----------------------------------------------------------------------
 # B3LYP/6-311++G(d,p) empiricaldispersion=gd3bj scf=xqc pop=npa geom=c
 heck
 ----------------------------------------------------------------------

 -------------------------------------
 CID_104095269_JID_6788_Energie_kation
 -------------------------------------
 Structure from the checkpoint file:  "JID_6788.chk"
 Charge =  1 Multiplicity = 2

 SCF Done:  E(UB3LYP) =  -731.659697890     A.U. after   27 cycles
 Normal termination of Gaussian 16 at Fri Dec 11 01:34:52 2020.
 Gaussian 16:  ES64L-G16RevA.03 25-Dec-2016

 ----------------------------------------------------------------------
 # B3LYP/6-311++G(d,p) empiricaldispersion=gd3bj scf=xqc pop=npa geom=c
 heck
 ----------------------------------------------------------------------

 ------------------------------------
 CID_104095269_JID_6788_Energie_anion
 ------------------------------------
 Structure from the checkpoint file:  "JID_6788.chk"
 Charge = -1 Multiplicity = 2

                         Standard orientation:
 ---------------------------------------------------------------------
 Center     Atomic      Atomic             Coordinates (Angstroms)
 Number     Number       Type             X           Y           Z
 ---------------------------------------------------------------------
      1          6           0        0.014475    3.382335    0.216333
      2          6           0       -1.111617    2.593491   -0.454102
      3          6           0       -0.672185    1.310942   -1.177948
      4          7           0        0.146505    0.390400   -0.368085
      5          6           0       -0.476474   -0.682692    0.423890
      6          6           0       -1.033602   -1.859149   -0.417718
      7          6           0       -2.473702   -1.684233   -0.922910
      8          6           0       -3.385385   -1.184197    0.198670
      9          7           0       -2.829432    0.048070    0.758163
     10          6           0       -1.544579   -0.188410    1.413716
     11          6           0        1.505222    0.552581   -0.472241
     12          8           0        2.008652    1.415664   -1.192376
     13          6           0        2.488149   -0.285073    0.384814
     14          6           0        2.514746    0.196001    1.833580
     15          8           0        2.279969   -1.692518    0.382573
     16          6           0        2.561329   -2.282077   -0.874140
     17          1           0        0.489359    2.792103    1.008507
     18          1           0       -0.377124    4.297612    0.675314
     19          1           0        0.795804    3.653089   -0.498398
     20          1           0       -1.884386    2.336404    0.277366
     21          1           0       -1.604442    3.223803   -1.207588
     22          1           0       -1.562555    0.776166   -1.503504
     23          1           0       -0.071948    1.569481   -2.052029
     24          1           0        0.324256   -1.109473    1.017364
     25          1           0       -0.351502   -2.062434   -1.248700
     26          1           0       -1.006798   -2.744460    0.232708
     27          1           0       -2.512882   -0.976042   -1.756623
     28          1           0       -2.847816   -2.642824   -1.303125
     29          1           0       -4.387725   -0.971325   -0.188224
     30          1           0       -3.487429   -1.981137    0.963245
     31          1           0       -3.481346    0.450640    1.426842
     32          1           0       -1.624672   -0.958043    2.207278
     33          1           0       -1.205663    0.738148    1.887043
     34          1           0        3.458959   -0.065042   -0.078410
     35          1           0        1.560704    0.022455    2.339861
     36          1           0        3.296886   -0.336397    2.383005
     37          1           0        2.729107    1.268684    1.859247
     38          1           0        2.365948   -3.352404   -0.774925
     39          1           0        1.925437   -1.872406   -1.671962
     40          1           0        3.613084   -2.128166   -1.158069
 ---------------------------------------------------------------------

 SCF Done:  E(UB3LYP) =  -731.942152763     A.U. after   33 cycles
 SCF Done:  E(UB3LYP) =  -731.942152763     a.u. after    1 cycles

 The electronic state is 2-A.
 Alpha  occ. eigenvalues --  -19.04598 -18.99112 -14.24608 -14.19632 -10.17337
 Alpha  occ. eigenvalues --  -10.14349 -10.12708 -10.11008 -10.09609 -10.09421
 Alpha  occ. eigenvalues --  -10.08823 -10.08155 -10.07038 -10.06627 -10.06614
 Alpha  occ. eigenvalues --  -10.05866  -0.96222  -0.93916  -0.84116  -0.80715
 Alpha  occ. eigenvalues --   -0.69669  -0.68992  -0.67309  -0.65368  -0.59743
 Alpha  occ. eigenvalues --   -0.59617  -0.55100  -0.54340  -0.53134  -0.50086
 Alpha  occ. eigenvalues --   -0.47960  -0.43588  -0.42722  -0.41438  -0.39481
 Alpha  occ. eigenvalues --   -0.38599  -0.37023  -0.36599  -0.35393  -0.35310
 Alpha  occ. eigenvalues --   -0.33822  -0.33622  -0.32673  -0.32217  -0.31563
 Alpha  occ. eigenvalues --   -0.30852  -0.30228  -0.29985  -0.28984  -0.28236
 Alpha  occ. eigenvalues --   -0.27430  -0.26813  -0.25398  -0.25158  -0.24972
 Alpha  occ. eigenvalues --   -0.24150  -0.22885  -0.22592  -0.22101  -0.19081
 Alpha  occ. eigenvalues --   -0.15471  -0.14675  -0.12869   0.04210
 Alpha virt. eigenvalues --    0.06230   0.06665   0.07371   0.08070   0.08202
 Alpha virt. eigenvalues --    0.09195   0.09339   0.09480   0.10076   0.10499
 Alpha virt. eigenvalues --    0.10723   0.11395   0.11676   0.12134   0.12458

  Beta  occ. eigenvalues --  -19.04591 -18.99110 -14.24606 -14.19602 -10.17337
  Beta  occ. eigenvalues --  -10.14345 -10.12684 -10.11009 -10.09606 -10.09394
  Beta  occ. eigenvalues --  -10.08792 -10.08140 -10.07019 -10.06611 -10.06608
  Beta  occ. eigenvalues --  -10.05856  -0.96213  -0.93912  -0.84106  -0.80674
  Beta  occ. eigenvalues --   -0.69654  -0.68965  -0.67284  -0.65330  -0.59726
  Beta  occ. eigenvalues --   -0.59573  -0.55065  -0.54276  -0.53094  -0.50066
  Beta  occ. eigenvalues --   -0.47910  -0.43567  -0.42688  -0.41350  -0.39456
  Beta  occ. eigenvalues --   -0.38571  -0.37002  -0.36574  -0.35372  -0.35290
  Beta  occ. eigenvalues --   -0.33784  -0.33609  -0.32651  -0.32189  -0.31542
  Beta  occ. eigenvalues --   -0.30806  -0.30210  -0.29959  -0.28940  -0.28218
  Beta  occ. eigenvalues --   -0.27406  -0.26793  -0.25382  -0.25140  -0.24943
  Beta  occ. eigenvalues --   -0.24124  -0.22867  -0.22552  -0.22064  -0.19067
  Beta  occ. eigenvalues --   -0.15462  -0.14662  -0.12812
  Beta virt. eigenvalues --    0.06300   0.07031   0.07195   0.07730   0.08624
  Beta virt. eigenvalues --    0.08895   0.09430   0.09536   0.09805   0.10187
  Beta virt. eigenvalues --    0.10934   0.11149   0.11667   0.11812   0.12258

 Mulliken charges and spin densities:
               1          2
     1  C   -0.485250  -0.047817
     2  C   -0.315735  -0.058477
     3  C    0.280906  -0.110819
     4  N    0.322824   0.064277
     5  C   -1.715556   1.295544
     6  C    0.345174  -0.732602
     7  C   -0.329140   0.115080
     8  C    1.098541  -1.438739
     9  N   -0.460702   0.334635
    10  C    1.472051  -2.172582
    11  C    0.277687  -0.356021
    12  O   -0.243017   0.006929
    13  C   -1.189876   0.769195
    14  C    0.427337  -0.930061
    15  O    0.000275   0.015205
    16  C    0.278759  -0.529283
    17  H    0.110347   0.018034
    18  H   -0.143945   0.277215
    19  H    0.203922  -0.038012
    20  H    0.296332  -0.109251
    21  H    0.028975   0.104274
    22  H    0.268027  -0.146170
    23  H    0.167458   0.048176
    24  H    0.614836  -0.377057
    25  H   -0.147784   0.248125
    26  H   -0.043686   0.225209
    27  H    0.109895   0.035169
    28  H   -0.521795   0.704721
    29  H   -0.533248   0.711982
    30  H   -0.156375   0.283146
    31  H   -0.280248   0.552753
    32  H   -0.519863   0.668137
    33  H   -0.079486   0.278248
    34  H    0.111569   0.097962
    35  H   -0.029761   0.189340
    36  H   -0.050767   0.220472
    37  H    0.061300   0.095341
    38  H   -0.298760   0.472639
    39  H    0.112406   0.051018
    40  H   -0.043625   0.164062
 Sum of Mulliken charges =  -1.00000   1.00000

 Dipole moment (field-independent basis, Debye):
    X=              5.1066    Y=              2.7522    Z=             -2.1326  Tot=              6.1806
 Quadrupole moment (field-independent basis, Debye-Ang):
   XX=           -173.9899   YY=           -156.8201   ZZ=           -140.2083
   XY=             -7.8764   XZ=             10.5064   YZ=             -0.7726

 Summary of Natural Population Analysis:

                                       Natural Population
                Natural  -----------------------------------------------
    Atom  No    Charge         Core      Valence    Rydberg      Total
 -----------------------------------------------------------------------
      C    1   -0.28918      0.99966     2.28404    0.00548     3.28918
      C    2   -0.19520      0.99963     2.18837    0.00720     3.19520
      C    3   -0.08900      0.99959     2.07975    0.00967     3.08900
      N    4   -0.25402      0.99962     2.74195    0.01245     3.75402
      C    5   -0.01495      0.99953     2.00121    0.01421     3.01495
      C    6   -0.19343      0.99960     2.18424    0.00959     3.19343
      C    7   -0.19316      0.99962     2.18507    0.00847     3.19316
      C    8   -0.08448      0.99962     2.07340    0.01146     3.08448
      N    9   -0.34684      0.99974     2.83364    0.01347     3.84684
      C   10   -0.09202      0.99959     2.07968    0.01275     3.09202
      C   11    0.33482      0.99960     1.64263    0.02295     2.66518
      O   12   -0.33338      0.99988     3.32801    0.00548     4.33338
      C   13    0.02891      0.99953     1.95731    0.01425     2.97109
      C   14   -0.28981      0.99963     2.28354    0.00664     3.28981
      O   15   -0.30057      0.99988     3.29076    0.00994     4.30057
      C   16   -0.09931      0.99961     2.09007    0.00963     3.09931
      H   17    0.09592      0.00000     0.40309    0.00099     0.40408
      H   18    0.09479      0.00000     0.40451    0.00070     0.40521
      H   19    0.10348      0.00000     0.39570    0.00082     0.39652
      H   20    0.10330      0.00000     0.39482    0.00188     0.39670
      H   21    0.09234      0.00000     0.40678    0.00089     0.40766
      H   22    0.10299      0.00000     0.39517    0.00184     0.39701
      H   23    0.10502      0.00000     0.39378    0.00121     0.39498
      H   24    0.11413      0.00000     0.38247    0.00341     0.38587
      H   25    0.10151      0.00000     0.39706    0.00142     0.39849
      H   26    0.10160      0.00000     0.39683    0.00157     0.39840
      H   27    0.09259      0.00000     0.40596    0.00145     0.40741
      H   28    0.10175      0.00000     0.39693    0.00132     0.39825
      H   29    0.09717      0.00000     0.40123    0.00160     0.40283
      H   30    0.07864      0.00000     0.41886    0.00250     0.42136
      H   31    0.18093      0.00000     0.31397    0.00510     0.31907
      H   32    0.08600      0.00000     0.41211    0.00189     0.41400
      H   33    0.10005      0.00000     0.39832    0.00163     0.39995
      H   34    0.09345      0.00000     0.40448    0.00207     0.40655
      H   35    0.10265      0.00000     0.39606    0.00128     0.39735
      H   36    0.10350      0.00000     0.39545    0.00105     0.39650
      H   37    0.10502      0.00000     0.39422    0.00076     0.39498
      H   38    0.09399      0.00000     0.40486    0.00115     0.40601
      H   39    0.08165      0.00000     0.41692    0.00143     0.41835
      H   40    0.07916      0.00000     0.41969    0.00116     0.42084
 =======================================================================
   * Total *    0.00000     15.99431    46.79293    0.21275    63.00000

 Normal termination of Gaussian 16 at Fri Dec 11 02:04:07 2020.
