 Gaussian 16, Revision A.03,

 -----------------------------------------------------------
 # opt freq B3LYP/6-31G(d) empiricaldispersion=gd3bj scf=xqc
 -----------------------------------------------------------

 -------------------------------
 CID_122611429_JID_2502_neutraal
 -------------------------------
 Symbolic Z-matrix:
 Charge =  0 Multiplicity = 1

 SCF Done:  E(RB3LYP) =  -1260.12056448     A.U. after   16 cycles
 SCF Done:  E(RB3LYP) =  -1260.13066058     A.U. after   15 cycles
 SCF Done:  E(RB3LYP) =  -1260.13242771     A.U. after   15 cycles
 SCF Done:  E(RB3LYP) =  -1260.13374580     A.U. after   13 cycles
 SCF Done:  E(RB3LYP) =  -1260.13408804     A.U. after   13 cycles
 SCF Done:  E(RB3LYP) =  -1260.13480826     A.U. after   13 cycles
 SCF Done:  E(RB3LYP) =  -1260.13509996     A.U. after   13 cycles
 SCF Done:  E(RB3LYP) =  -1260.13538907     A.U. after   12 cycles
 SCF Done:  E(RB3LYP) =  -1260.13542623     A.U. after   11 cycles
 SCF Done:  E(RB3LYP) =  -1260.13545466     A.U. after   11 cycles
 SCF Done:  E(RB3LYP) =  -1260.13547733     A.U. after   10 cycles
 SCF Done:  E(RB3LYP) =  -1260.13548097     A.U. after   10 cycles
 SCF Done:  E(RB3LYP) =  -1260.13548292     A.U. after    9 cycles
 SCF Done:  E(RB3LYP) =  -1260.13548340     A.U. after    8 cycles
 SCF Done:  E(RB3LYP) =  -1260.13548349     A.U. after    7 cycles
 SCF Done:  E(RB3LYP) =  -1260.13548350     A.U. after    7 cycles
 Optimization completed.
    -- Stationary point found.
 Normal termination of Gaussian 16 at Wed Dec  9 17:05:58 2020.

 --------------------------------------------------------------------
 #N Geom=AllCheck Guess=TCheck SCRF=Check GenChk RB3LYP/6-31G(d) Freq
 --------------------------------------------------------------------

 Structure from the checkpoint file:  "JID_2502.chk"
 -------------------------------
 CID_122611429_JID_2502_neutraal
 -------------------------------
 Charge =  0 Multiplicity = 1

 SCF Done:  E(RB3LYP) =  -1260.13548350     A.U. after    1 cycles

  Exact polarizability: 156.695  -3.052 128.569  18.073  12.666  95.446
 Approx polarizability: 210.538   6.883 205.297  37.800  32.741 158.532

                      1                      2                      3
                      A                      A                      A
 Frequencies --     28.6605                31.9779                43.2233
 Red. masses --      3.4142                 4.5307                 6.6042
 Frc consts  --      0.0017                 0.0027                 0.0073
 IR Inten    --      0.5760                 0.3290                 0.4887

                      4                      5                      6
                      A                      A                      A
 Frequencies --     70.7606                74.8200               105.6177
 Red. masses --      7.0626                 5.4033                 3.3779
 Frc consts  --      0.0208                 0.0178                 0.0222
 IR Inten    --      0.7809                 6.0685                 0.9599

                      7                      8                      9
                      A                      A                      A
 Frequencies --    145.8146               170.1640               194.8871
 Red. masses --      2.8176                 1.0348                 3.5545
 Frc consts  --      0.0353                 0.0177                 0.0795
 IR Inten    --      2.8191                 0.3552                 2.8012

                     10                     11                     12
                      A                      A                      A
 Frequencies --    230.7791               245.9686               266.9361
 Red. masses --      5.4780                 2.9373                 3.9803
 Frc consts  --      0.1719                 0.1047                 0.1671
 IR Inten    --     13.5510                 0.3755                 2.7200

                     13                     14                     15
                      A                      A                      A
 Frequencies --    303.9188               327.2706               364.2661
 Red. masses --      2.4885                 3.5521                 4.3891
 Frc consts  --      0.1354                 0.2242                 0.3431
 IR Inten    --      6.3880                 9.5138                 5.8840

                     16                     17                     18
                      A                      A                      A
 Frequencies --    369.8779               438.0203               467.7951
 Red. masses --      4.0903                 4.2964                 1.3857
 Frc consts  --      0.3297                 0.4857                 0.1787
 IR Inten    --      0.8022                 6.8176               103.7438

                     19                     20                     21
                      A                      A                      A
 Frequencies --    493.5745               505.0363               613.1121
 Red. masses --      1.8052                 4.3250                 1.6547
 Frc consts  --      0.2591                 0.6500                 0.3665
 IR Inten    --    109.8877                 5.5935                 8.6751

                     22                     23                     24
                      A                      A                      A
 Frequencies --    662.2546               666.2305               708.4361
 Red. masses --      3.5708                 4.8478                 7.2372
 Frc consts  --      0.9227                 1.2678                 2.1400
 IR Inten    --      8.3581                16.8396                28.5995

                     25                     26                     27
                      A                      A                      A
 Frequencies --    721.8255               772.9917               776.5963
 Red. masses --      2.0053                 1.9645                 1.8716
 Frc consts  --      0.6156                 0.6916                 0.6651
 IR Inten    --      0.1868                 2.5867                 4.5892

                     28                     29                     30
                      A                      A                      A
 Frequencies --    843.9979               910.7544               940.8090
 Red. masses --      1.7411                 3.6220                 2.1914
 Frc consts  --      0.7307                 1.7701                 1.1428
 IR Inten    --      2.2709                55.4826                11.2213

                     31                     32                     33
                      A                      A                      A
 Frequencies --    968.1945               977.1335              1002.5644
 Red. masses --      1.3405                 1.5102                 1.6477
 Frc consts  --      0.7404                 0.8495                 0.9758
 IR Inten    --     31.8812                16.0775                63.7444

                     34                     35                     36
                      A                      A                      A
 Frequencies --   1043.9802              1053.3052              1062.1740
 Red. masses --      4.2818                 1.5867                 1.7448
 Frc consts  --      2.7496                 1.0372                 1.1598
 IR Inten    --      2.0778                15.1028                85.9989

                     37                     38                     39
                      A                      A                      A
 Frequencies --   1085.3626              1094.4986              1180.7809
 Red. masses --      1.4606                 3.7776                 1.1032
 Frc consts  --      1.0138                 2.6662                 0.9063
 IR Inten    --      1.1606                73.5263                 4.9615

                     40                     41                     42
                      A                      A                      A
 Frequencies --   1206.7340              1242.8438              1262.4803
 Red. masses --      1.1367                 1.2583                 1.1701
 Frc consts  --      0.9752                 1.1451                 1.0988
 IR Inten    --     12.3953                 0.6214                19.8486

                     43                     44                     45
                      A                      A                      A
 Frequencies --   1319.3944              1328.7654              1339.9482
 Red. masses --      3.4351                 1.1499                 1.2201
 Frc consts  --      3.5232                 1.1962                 1.2907
 IR Inten    --     32.7483                 2.0470                 9.3230

                     46                     47                     48
                      A                      A                      A
 Frequencies --   1349.0851              1412.4604              1435.8403
 Red. masses --      1.2480                 1.1951                 1.2392
 Frc consts  --      1.3382                 1.4048                 1.5052
 IR Inten    --      5.3387                 3.8519                43.8334

                     49                     50                     51
                      A                      A                      A
 Frequencies --   1438.8656              1467.6819              1483.3429
 Red. masses --      1.2219                 1.2338                 1.0936
 Frc consts  --      1.4905                 1.5659                 1.4177
 IR Inten    --      7.9304                 6.5945                 7.6717

                     52                     53                     54
                      A                      A                      A
 Frequencies --   1489.4233              1503.2359              1511.0900
 Red. masses --      1.0921                 1.0447                 1.0846
 Frc consts  --      1.4274                 1.3909                 1.4592
 IR Inten    --     14.4091                 7.7050                 1.2043

                     55                     56                     57
                      A                      A                      A
 Frequencies --   1520.6914              1529.2463              1716.2733
 Red. masses --      1.0552                 1.0924                 4.9025
 Frc consts  --      1.4378                 1.5052                 8.5083
 IR Inten    --     17.6180                 0.2865                19.5192

                     58                     59                     60
                      A                      A                      A
 Frequencies --   1745.9301              3009.1414              3060.8758
 Red. masses --     11.1939                 1.0695                 1.0359
 Frc consts  --     20.1042                 5.7058                 5.7182
 IR Inten    --    167.5825                73.3278                14.1997

                     61                     62                     63
                      A                      A                      A
 Frequencies --   3080.8962              3096.4520              3096.9836
 Red. masses --      1.0624                 1.0612                 1.0912
 Frc consts  --      5.9414                 5.9949                 6.1662
 IR Inten    --     12.8699                13.1810                27.2623

                     64                     65                     66
                      A                      A                      A
 Frequencies --   3107.2175              3119.6913              3143.1383
 Red. masses --      1.0595                 1.0998                 1.1070
 Frc consts  --      6.0267                 6.3067                 6.4436
 IR Inten    --      7.9682                10.4863                 3.1050

                     67                     68                     69
                      A                      A                      A
 Frequencies --   3146.7251              3153.0661              3171.1883
 Red. masses --      1.1040                 1.1050                 1.1083
 Frc consts  --      6.4408                 6.4724                 6.5666
 IR Inten    --     14.2975                 0.9981                 2.3116

                     70                     71                     72
                      A                      A                      A
 Frequencies --   3176.3172              3258.0306              3696.1655
 Red. masses --      1.0607                 1.1160                 1.0652
 Frc consts  --      6.3049                 6.9797                 8.5738
 IR Inten    --      3.4971                 9.3257                15.9344

 - Thermochemistry -
 -------------------
 Temperature   298.150 Kelvin.  Pressure   1.00000 Atm.
 Atom     1 has atomic number  6 and mass  12.00000

 Molecular mass:   206.04352 amu.
 Principal axes and moments of inertia in atomic units:
                           1         2         3
     Eigenvalues --  1662.144794905.396485920.46708
           X            0.99997  -0.00644   0.00534
           Y            0.00633   0.99980   0.01893
           Z           -0.00546  -0.01889   0.99981
 This molecule is an asymmetric top.
 Rotational symmetry number  1.
 Warning -- assumption of classical behavior for rotation
           may cause significant error
 Rotational temperatures (Kelvin)      0.05211     0.01766     0.01463
 Rotational constants (GHZ):           1.08579     0.36791     0.30483
 Zero-point vibrational energy     559754.2 (Joules/Mol)
                                  133.78446 (Kcal/Mol)
 Warning -- explicit consideration of  21 degrees of freedom as
           vibrations may cause significant error
 Vibrational temperatures:     41.24    46.01    62.19   101.81   107.65
          (Kelvin)            151.96   209.79   244.83   280.40   332.04
                              353.89   384.06   437.27   470.87   524.10
                              532.17   630.21   673.05   710.14   726.63
                              882.13   952.84   958.56  1019.28  1038.55
                             1112.16  1117.35  1214.32  1310.37  1353.61
                             1393.02  1405.88  1442.47  1502.05  1515.47
                             1528.23  1561.59  1574.74  1698.88  1736.22
                             1788.17  1816.43  1898.31  1911.80  1927.89
                             1941.03  2032.22  2065.85  2070.21  2111.67
                             2134.20  2142.95  2162.82  2174.12  2187.94
                             2200.24  2469.33  2512.00  4329.48  4403.92
                             4432.72  4455.10  4455.87  4470.59  4488.54
                             4522.27  4527.44  4536.56  4562.63  4570.01
                             4687.58  5317.96

 Zero-point correction=                           0.213199 (Hartree/Particle)
 Thermal correction to Energy=                    0.228070
 Thermal correction to Enthalpy=                  0.229015
 Thermal correction to Gibbs Free Energy=         0.168994
 Sum of electronic and zero-point Energies=          -1259.922284
 Sum of electronic and thermal Energies=             -1259.907413
 Sum of electronic and thermal Enthalpies=           -1259.906469
 Sum of electronic and thermal Free Energies=        -1259.966489

                     E (Thermal)             CV                S
                      KCal/Mol        Cal/Mol-Kelvin    Cal/Mol-Kelvin
 Total                  143.116             52.508            126.323
 Electronic               0.000              0.000              0.000
 Translational            0.889              2.981             41.873
 Rotational               0.889              2.981             32.246
 Vibrational            141.339             46.547             52.205
 Vibration     1          0.593              1.984              5.920
 Vibration     2          0.594              1.983              5.703
 Vibration     3          0.595              1.980              5.106
 Vibration     4          0.598              1.968              4.132
 Vibration     5          0.599              1.966              4.022
 Vibration     6          0.605              1.945              3.348
 Vibration     7          0.617              1.907              2.726
 Vibration     8          0.625              1.879              2.434
 Vibration     9          0.636              1.847              2.181
 Vibration    10          0.652              1.794              1.873
 Vibration    11          0.660              1.769              1.759
 Vibration    12          0.672              1.734              1.616
 Vibration    13          0.695              1.666              1.395
 Vibration    14          0.711              1.621              1.274
 Vibration    15          0.738              1.546              1.104
 Vibration    16          0.742              1.534              1.080
 Vibration    17          0.798              1.387              0.833
 Vibration    18          0.825              1.321              0.744
 Vibration    19          0.849              1.264              0.674
 Vibration    20          0.860              1.239              0.646
 Vibration    21          0.972              1.004              0.428

 Optimization completed.
    -- Stationary point found.
 Normal termination of Gaussian 16 at Wed Dec  9 17:11:59 2020.

 ----------------------------------------------------------------------
 # B3LYP/6-311++G(d,p) empiricaldispersion=gd3bj scf=xqc pop=npa geom=c
 heck
 ----------------------------------------------------------------------

 ---------------------------------------
 CID_122611429_JID_2502_Energie_neutraal
 ---------------------------------------
 Structure from the checkpoint file:  "JID_2502.chk"
 Charge =  0 Multiplicity = 1

 SCF Done:  E(RB3LYP) =  -1260.33488895     A.U. after   14 cycles
 Normal termination of Gaussian 16 at Wed Dec  9 17:14:48 2020.

 ----------------------------------------------------------------------
 # B3LYP/6-311++G(d,p) empiricaldispersion=gd3bj scf=xqc pop=npa geom=c
 heck
 ----------------------------------------------------------------------

 -------------------------------------
 CID_122611429_JID_2502_Energie_kation
 -------------------------------------
 Structure from the checkpoint file:  "JID_2502.chk"
 Charge =  1 Multiplicity = 2

 SCF Done:  E(UB3LYP) =  -1260.02807517     A.U. after   23 cycles
 Normal termination of Gaussian 16 at Wed Dec  9 17:20:43 2020.
 Gaussian 16:  ES64L-G16RevA.03 25-Dec-2016

 ----------------------------------------------------------------------
 # B3LYP/6-311++G(d,p) empiricaldispersion=gd3bj scf=xqc pop=npa geom=c
 heck
 ----------------------------------------------------------------------

 ------------------------------------
 CID_122611429_JID_2502_Energie_anion
 ------------------------------------
 Structure from the checkpoint file:  "JID_2502.chk"
 Charge = -1 Multiplicity = 2

                         Standard orientation:
 ---------------------------------------------------------------------
 Center     Atomic      Atomic             Coordinates (Angstroms)
 Number     Number       Type             X           Y           Z
 ---------------------------------------------------------------------
      1          6           0       -3.469149    1.987333    0.495521
      2          6           0       -3.141411    0.650594   -0.115095
      3          6           0       -3.931799    0.021692   -0.994111
      4          6           0       -1.820511    0.090539    0.297726
      5          8           0       -0.983079    0.772332    0.860193
      6         16           0       -1.539167   -1.667533   -0.039162
      7          6           0        0.215925   -1.734461    0.485629
      8          6           0        1.154586   -1.182602   -0.584003
      9         16           0        2.864480   -0.966729    0.060590
     10          6           0        2.648397    0.673770    0.878241
     11          6           0        3.109234    1.821497   -0.023545
     12          8           0        2.480162    1.810171   -1.294172
     13          1           0       -4.441342    2.346477    0.148084
     14          1           0       -2.701994    2.724179    0.236264
     15          1           0       -3.485244    1.924288    1.589389
     16          1           0       -3.657909   -0.923184   -1.452274
     17          1           0       -4.882981    0.451224   -1.295174
     18          1           0        0.290691   -1.158632    1.409343
     19          1           0        0.433580   -2.781888    0.706930
     20          1           0        1.215048   -1.864162   -1.436836
     21          1           0        0.813670   -0.210183   -0.943380
     22          1           0        1.589832    0.784129    1.129083
     23          1           0        3.226198    0.659679    1.807818
     24          1           0        2.839073    2.775001    0.443373
     25          1           0        4.205269    1.795990   -0.125568
     26          1           0        2.782823    0.995086   -1.730260
 ---------------------------------------------------------------------

 SCF Done:  E(UB3LYP) =  -1260.34448757     A.U. after   30 cycles

 The electronic state is 2-A.
 Alpha  occ. eigenvalues --  -88.73822 -88.69575 -19.02678 -18.92347 -10.12759
 Alpha  occ. eigenvalues --  -10.09612 -10.08623 -10.07255 -10.07157 -10.02029
 Alpha  occ. eigenvalues --  -10.00922  -9.98554  -7.82446  -7.78238  -5.78810
 Alpha  occ. eigenvalues --   -5.78464  -5.77864  -5.74604  -5.74192  -5.73707
 Alpha  occ. eigenvalues --   -0.93036  -0.86788  -0.71077  -0.66680  -0.64056
 Alpha  occ. eigenvalues --   -0.61331  -0.55801  -0.53353  -0.50510  -0.47221
 Alpha  occ. eigenvalues --   -0.43677  -0.41874  -0.36764  -0.35697  -0.34675
 Alpha  occ. eigenvalues --   -0.33755  -0.30971  -0.30812  -0.29006  -0.28819
 Alpha  occ. eigenvalues --   -0.27604  -0.27105  -0.25631  -0.24993  -0.23644
 Alpha  occ. eigenvalues --   -0.22757  -0.22696  -0.21058  -0.20275  -0.18770
 Alpha  occ. eigenvalues --   -0.18197  -0.13066  -0.11568  -0.09488  -0.08903
 Alpha  occ. eigenvalues --    0.05385
 Alpha virt. eigenvalues --    0.07343   0.08608   0.09585   0.09927   0.10667
 Alpha virt. eigenvalues --    0.11259   0.11587   0.11940   0.12357   0.12953
 Alpha virt. eigenvalues --    0.13641   0.14227   0.15146   0.15828   0.16026

  Beta  occ. eigenvalues --  -88.73820 -88.69578 -19.02676 -18.91792 -10.12758
  Beta  occ. eigenvalues --  -10.09612 -10.08607 -10.07256 -10.06667 -10.02032
  Beta  occ. eigenvalues --  -10.00870  -9.98085  -7.82444  -7.78241  -5.78806
  Beta  occ. eigenvalues --   -5.78462  -5.77863  -5.74612  -5.74208  -5.73693
  Beta  occ. eigenvalues --   -0.93032  -0.85746  -0.71060  -0.66630  -0.63546
  Beta  occ. eigenvalues --   -0.61278  -0.55668  -0.53013  -0.50230  -0.47092
  Beta  occ. eigenvalues --   -0.42684  -0.41871  -0.36747  -0.35632  -0.34667
  Beta  occ. eigenvalues --   -0.33366  -0.30829  -0.30611  -0.28706  -0.28531
  Beta  occ. eigenvalues --   -0.27190  -0.26930  -0.25606  -0.24921  -0.23289
  Beta  occ. eigenvalues --   -0.22601  -0.21567  -0.20068  -0.19686  -0.18745
  Beta  occ. eigenvalues --   -0.18087  -0.13047  -0.09738  -0.08458  -0.08284
  Beta virt. eigenvalues --    0.07307   0.08530   0.09507   0.09833   0.10583
  Beta virt. eigenvalues --    0.11166   0.11457   0.11804   0.12311   0.12585
  Beta virt. eigenvalues --    0.12981   0.13644   0.14351   0.15362   0.15748

 Mulliken charges and spin densities:
               1          2
     1  C   -0.627303   0.029889
     2  C    0.726962  -0.065599
     3  C   -0.978822   0.523199
     4  C   -0.259752   0.264597
     5  O   -0.318246   0.191367
     6  S   -0.174916   0.022254
     7  C   -0.176678   0.072623
     8  C   -0.235864  -0.160024
     9  S    0.090245   0.020573
    10  C   -0.362452   0.002512
    11  C   -0.419531  -0.004044
    12  O   -0.246370  -0.001803
    13  H    0.110863   0.000297
    14  H    0.128682   0.022009
    15  H    0.122415   0.004788
    16  H    0.097228  -0.014732
    17  H    0.073229  -0.030045
    18  H    0.141159   0.002127
    19  H    0.187695  -0.000791
    20  H    0.088234   0.092679
    21  H    0.132975   0.025010
    22  H    0.265682  -0.007050
    23  H    0.172360   0.001281
    24  H    0.145911   0.002675
    25  H    0.107510   0.001541
    26  H    0.208787   0.004666
 Sum of Mulliken charges =  -1.00000   1.00000

 Dipole moment (field-independent basis, Debye):
    X=              7.8884    Y=             -0.2734    Z=              1.2121  Tot=              7.9857
 Quadrupole moment (field-independent basis, Debye-Ang):
   XX=           -134.4677   YY=           -107.3041   ZZ=           -101.2230
   XY=              0.8207   XZ=             -0.6419   YZ=              3.4649

 Summary of Natural Population Analysis:

                                       Natural Population
                Natural  -----------------------------------------------
    Atom  No    Charge         Core      Valence    Rydberg      Total
 -----------------------------------------------------------------------
      C    1   -0.28883      0.99964     2.28369    0.00551     3.28883
      C    2   -0.06362      0.99947     2.05375    0.01039     3.06362
      C    3   -0.08713      0.99953     2.07859    0.00900     3.08713
      C    4    0.26300      0.99960     1.71111    0.02629     2.73700
      O    5   -0.26420      0.99987     3.25688    0.00745     4.26420
      S    6    0.05843      4.99956     2.92434    0.01766     7.94157
      C    7   -0.26489      0.99957     2.25145    0.01387     3.26489
      C    8   -0.25971      0.99957     2.24385    0.01629     3.25971
      S    9    0.05765      4.99963     2.92456    0.01816     7.94235
      C   10   -0.26882      0.99959     2.26099    0.00824     3.26882
      C   11   -0.01404      0.99960     2.00217    0.01227     3.01404
      O   12   -0.36671      0.99990     3.35967    0.00714     4.36671
      H   13    0.08951      0.00000     0.40961    0.00088     0.41049
      H   14    0.10291      0.00000     0.39590    0.00119     0.39709
      H   15    0.09691      0.00000     0.40188    0.00121     0.40309
      H   16    0.08821      0.00000     0.41096    0.00083     0.41179
      H   17    0.07650      0.00000     0.42257    0.00093     0.42350
      H   18    0.11342      0.00000     0.38500    0.00158     0.38658
      H   19    0.09930      0.00000     0.39986    0.00085     0.40070
      H   20    0.10224      0.00000     0.39598    0.00178     0.39776
      H   21    0.11980      0.00000     0.37797    0.00223     0.38020
      H   22    0.12771      0.00000     0.37092    0.00136     0.37229
      H   23    0.09912      0.00000     0.39987    0.00101     0.40088
      H   24    0.08729      0.00000     0.41147    0.00124     0.41271
      H   25    0.06935      0.00000     0.42910    0.00155     0.43065
      H   26    0.22659      0.00000     0.26855    0.00487     0.27341
 =======================================================================
   * Total *    0.00000     19.99553    34.83070    0.17377    55.00000

 Normal termination of Gaussian 16 at Wed Dec  9 17:28:31 2020.
