 Gaussian 16, Revision A.03,

 -----------------------------------------------------------
 # opt freq B3LYP/6-31G(d) empiricaldispersion=gd3bj scf=xqc
 -----------------------------------------------------------

 ------------------------------
 CID_70183908_JID_8686_neutraal
 ------------------------------
 Symbolic Z-matrix:
 Charge =  0 Multiplicity = 1

 SCF Done:  E(RB3LYP) =  -805.460048527     A.U. after   28 cycles
 SCF Done:  E(RB3LYP) =  -805.494915956     A.U. after   18 cycles
 SCF Done:  E(RB3LYP) =  -805.511868685     A.U. after   17 cycles
 SCF Done:  E(RB3LYP) =  -805.521234022     A.U. after   17 cycles
 SCF Done:  E(RB3LYP) =  -805.533503701     A.U. after   16 cycles
 SCF Done:  E(RB3LYP) =  -805.539433162     A.U. after   14 cycles
 SCF Done:  E(RB3LYP) =  -805.542787207     A.U. after   14 cycles
 SCF Done:  E(RB3LYP) =  -805.544346750     A.U. after   13 cycles
 SCF Done:  E(RB3LYP) =  -805.544971708     A.U. after   14 cycles
 SCF Done:  E(RB3LYP) =  -805.545542678     A.U. after   13 cycles
 SCF Done:  E(RB3LYP) =  -805.547733809     A.U. after   13 cycles
 SCF Done:  E(RB3LYP) =  -805.547841365     A.U. after   13 cycles
 SCF Done:  E(RB3LYP) =  -805.547850097     A.U. after   12 cycles
 SCF Done:  E(RB3LYP) =  -805.547850947     A.U. after   10 cycles
 SCF Done:  E(RB3LYP) =  -805.547852356     A.U. after    9 cycles
 SCF Done:  E(RB3LYP) =  -805.547852503     A.U. after    8 cycles
 Optimization completed.
    -- Stationary point found.
 Normal termination of Gaussian 16 at Fri Dec 11 21:51:26 2020.

 --------------------------------------------------------------------
 #N Geom=AllCheck Guess=TCheck SCRF=Check GenChk RB3LYP/6-31G(d) Freq
 --------------------------------------------------------------------

 Structure from the checkpoint file:  "JID_8686.chk"
 ------------------------------
 CID_70183908_JID_8686_neutraal
 ------------------------------
 Charge =  0 Multiplicity = 1

 SCF Done:  E(RB3LYP) =  -805.547852503     A.U. after    1 cycles

  Exact polarizability: 282.580 -25.196 149.590  -8.653 -20.068 130.588
 Approx polarizability: 521.057 -82.514 263.404 -12.140 -62.264 236.506

                      1                      2                      3
                      A                      A                      A
 Frequencies --     32.6000                49.4507                66.5154
 Red. masses --      5.4621                 4.6471                 4.7913
 Frc consts  --      0.0034                 0.0067                 0.0125
 IR Inten    --      0.1995                 0.9681                 0.3217

                      4                      5                      6
                      A                      A                      A
 Frequencies --    107.2654               151.5682               168.3805
 Red. masses --      4.5759                 4.3761                 4.1122
 Frc consts  --      0.0310                 0.0592                 0.0687
 IR Inten    --      4.5219                 0.8606                 0.6274

                      7                      8                      9
                      A                      A                      A
 Frequencies --    188.3733               213.8526               234.0723
 Red. masses --      2.4108                 1.4778                 2.4041
 Frc consts  --      0.0504                 0.0398                 0.0776
 IR Inten    --      0.1116                 0.4509                 0.7058

                     10                     11                     12
                      A                      A                      A
 Frequencies --    237.3152               265.4454               288.7970
 Red. masses --      3.5774                 1.7693                 2.3252
 Frc consts  --      0.1187                 0.0735                 0.1143
 IR Inten    --      1.5090                 2.3248                 3.6062

                     13                     14                     15
                      A                      A                      A
 Frequencies --    331.5904               359.4142               366.3087
 Red. masses --      3.0740                 1.1148                 2.4666
 Frc consts  --      0.1991                 0.0849                 0.1950
 IR Inten    --      3.4713               103.4786                 5.3527

                     16                     17                     18
                      A                      A                      A
 Frequencies --    379.3342               415.1326               423.6027
 Red. masses --      3.4102                 4.7155                 2.7752
 Frc consts  --      0.2891                 0.4788                 0.2934
 IR Inten    --      6.3280                20.0385                12.4267

                     19                     20                     21
                      A                      A                      A
 Frequencies --    443.0460               468.8203               474.0227
 Red. masses --      3.4017                 3.7090                 1.2961
 Frc consts  --      0.3934                 0.4803                 0.1716
 IR Inten    --      2.6143                15.3650                75.6711

                     22                     23                     24
                      A                      A                      A
 Frequencies --    503.4701               539.2509               540.6588
 Red. masses --      4.7527                 6.5214                 5.1306
 Frc consts  --      0.7098                 1.1173                 0.8836
 IR Inten    --      8.3368                 0.5029                 7.3205

                     25                     26                     27
                      A                      A                      A
 Frequencies --    565.0956               580.9810               629.7398
 Red. masses --      3.5770                 4.9931                 5.0756
 Frc consts  --      0.6730                 0.9930                 1.1859
 IR Inten    --      0.5804                34.7891                 7.7651

                     28                     29                     30
                      A                      A                      A
 Frequencies --    642.4608               685.5783               693.8693
 Red. masses --      5.7816                 4.7499                 2.5873
 Frc consts  --      1.4060                 1.3154                 0.7339
 IR Inten    --      5.4906                43.3152                 2.1494

                     31                     32                     33
                      A                      A                      A
 Frequencies --    699.8992               752.3022               785.1547
 Red. masses --      5.3549                 3.6724                 2.1781
 Frc consts  --      1.5455                 1.2246                 0.7911
 IR Inten    --     22.2217                28.7598                 5.9347

                     34                     35                     36
                      A                      A                      A
 Frequencies --    788.3319               820.8169               828.1823
 Red. masses --      1.4918                 3.8450                 2.4902
 Frc consts  --      0.5462                 1.5263                 1.0063
 IR Inten    --     37.3396                11.8924                69.7671

                     37                     38                     39
                      A                      A                      A
 Frequencies --    833.3794               855.9941               875.5272
 Red. masses --      3.5303                 4.2355                 1.4190
 Frc consts  --      1.4446                 1.8285                 0.6409
 IR Inten    --     31.7183                17.6123                 0.0751

                     40                     41                     42
                      A                      A                      A
 Frequencies --    913.8307               944.5870               953.3134
 Red. masses --      1.6291                 2.9572                 1.6573
 Frc consts  --      0.8016                 1.5546                 0.8874
 IR Inten    --     20.8465                 5.0667                 1.0055

                     43                     44                     45
                      A                      A                      A
 Frequencies --    965.4098               968.4864               996.9150
 Red. masses --      1.3594                 2.8720                 2.9504
 Frc consts  --      0.7465                 1.5872                 1.7276
 IR Inten    --      6.8069                60.7545                15.0079

                     46                     47                     48
                      A                      A                      A
 Frequencies --   1011.8040              1017.0043              1021.0761
 Red. masses --      5.8163                 2.1176                 1.5582
 Frc consts  --      3.5083                 1.2905                 0.9572
 IR Inten    --      0.4395                 4.3051                 2.1806

                     49                     50                     51
                      A                      A                      A
 Frequencies --   1104.7909              1109.2182              1132.3120
 Red. masses --      1.2997                 1.4334                 2.7699
 Frc consts  --      0.9347                 1.0391                 2.0924
 IR Inten    --      7.3620                20.3701                18.4793

                     52                     53                     54
                      A                      A                      A
 Frequencies --   1142.0997              1184.3506              1197.1705
 Red. masses --      2.0437                 1.4028                 1.9073
 Frc consts  --      1.5707                 1.1593                 1.6105
 IR Inten    --    102.2056                64.3957                69.6091

                     55                     56                     57
                      A                      A                      A
 Frequencies --   1204.7952              1214.2877              1260.9087
 Red. masses --      1.7845                 1.4401                 2.8242
 Frc consts  --      1.5261                 1.2511                 2.6456
 IR Inten    --     72.1390               227.5969                27.1102

                     58                     59                     60
                      A                      A                      A
 Frequencies --   1264.0311              1304.2720              1349.7521
 Red. masses --      3.1278                 3.0870                 1.6013
 Frc consts  --      2.9444                 3.0940                 1.7188
 IR Inten    --     44.7786                79.1985                 1.0702

                     61                     62                     63
                      A                      A                      A
 Frequencies --   1357.6058              1370.2671              1412.9537
 Red. masses --      1.6848                 4.8229                 4.8395
 Frc consts  --      1.8296                 5.3354                 5.6926
 IR Inten    --      8.7828                 4.7886               272.2972

                     64                     65                     66
                      A                      A                      A
 Frequencies --   1429.7721              1443.9411              1487.0474
 Red. masses --      1.3234                 1.2474                 2.9182
 Frc consts  --      1.5940                 1.5323                 3.8020
 IR Inten    --     26.3636                 5.7816                99.7949

                     67                     68                     69
                      A                      A                      A
 Frequencies --   1492.2663              1505.1073              1511.7978
 Red. masses --      3.5445                 1.0565                 1.0485
 Frc consts  --      4.6505                 1.4101                 1.4119
 IR Inten    --    166.4659                 0.9717                 5.2738

                     70                     71                     72
                      A                      A                      A
 Frequencies --   1523.7035              1526.0702              1535.6219
 Red. masses --      1.1697                 2.1883                 1.0686
 Frc consts  --      1.6000                 3.0027                 1.4847
 IR Inten    --      7.7650                23.7867                10.7138

                     73                     74                     75
                      A                      A                      A
 Frequencies --   1550.4987              1585.3378              1636.6278
 Red. masses --      4.6066                 7.0319                 5.3086
 Frc consts  --      6.5248                10.4127                 8.3778
 IR Inten    --     79.5661                32.5031                80.0745

                     76                     77                     78
                      A                      A                      A
 Frequencies --   1652.0659              3050.0083              3057.3671
 Red. masses --      5.8386                 1.0371                 1.0391
 Frc consts  --      9.3889                 5.6841                 5.7225
 IR Inten    --    119.9244                 9.1215                37.3334

                     79                     80                     81
                      A                      A                      A
 Frequencies --   3112.3815              3119.8356              3142.5165
 Red. masses --      1.1021                 1.1016                 1.1018
 Frc consts  --      6.2902                 6.3174                 6.4106
 IR Inten    --      0.5091                33.9392                18.0761

                     82                     83                     84
                      A                      A                      A
 Frequencies --   3164.3819              3172.5633              3188.0516
 Red. masses --      1.0894                 1.0977                 1.0871
 Frc consts  --      6.4272                 6.5098                 6.5096
 IR Inten    --     17.5371                 5.9978                17.2259

                     85                     86                     87
                      A                      A                      A
 Frequencies --   3211.5250              3216.6053              3222.7178
 Red. masses --      1.0920                 1.0870                 1.0940
 Frc consts  --      6.6359                 6.6262                 6.6944
 IR Inten    --     10.7764                 7.8744                11.4771

                     88                     89                     90
                      A                      A                      A
 Frequencies --   3237.0617              3733.0326              3751.4475
 Red. masses --      1.1015                 1.0658                 1.0658
 Frc consts  --      6.8001                 8.7507                 8.8374
 IR Inten    --     13.8540                69.9287                31.8268

 - Thermochemistry -
 -------------------
 Temperature   298.150 Kelvin.  Pressure   1.00000 Atm.
 Atom     1 has atomic number  6 and mass  12.00000

 Molecular mass:   242.09429 amu.
 Principal axes and moments of inertia in atomic units:
                           1         2         3
     Eigenvalues --  2483.505946142.614166919.22592
           X            0.99991   0.01310   0.00109
           Y           -0.01309   0.99991  -0.00224
           Z           -0.00111   0.00222   1.00000
 This molecule is an asymmetric top.
 Rotational symmetry number  1.
 Warning -- assumption of classical behavior for rotation
           may cause significant error
 Rotational temperatures (Kelvin)      0.03488     0.01410     0.01252
 Rotational constants (GHZ):           0.72669     0.29381     0.26083
 Zero-point vibrational energy     663605.6 (Joules/Mol)
                                  158.60555 (Kcal/Mol)
 Warning -- explicit consideration of  26 degrees of freedom as
           vibrations may cause significant error
 Vibrational temperatures:     46.90    71.15    95.70   154.33   218.07
          (Kelvin)            242.26   271.03   307.69   336.78   341.44
                              381.92   415.51   477.08   517.12   527.04
                              545.78   597.28   609.47   637.44   674.53
                              682.01   724.38   775.86   777.89   813.05
                              835.90   906.06   924.36   986.39   998.32
                             1007.00  1082.40  1129.66  1134.23  1180.97
                             1191.57  1199.05  1231.58  1259.69  1314.80
                             1359.05  1371.61  1389.01  1393.44  1434.34
                             1455.76  1463.24  1469.10  1589.55  1595.92
                             1629.14  1643.23  1704.02  1722.46  1733.43
                             1747.09  1814.17  1818.66  1876.56  1941.99
                             1953.29  1971.51  2032.93  2057.12  2077.51
                             2139.53  2147.04  2165.51  2175.14  2192.27
                             2195.67  2209.42  2230.82  2280.95  2354.74
                             2376.95  4388.28  4398.87  4478.02  4488.75
                             4521.38  4552.84  4564.61  4586.90  4620.67
                             4627.98  4636.77  4657.41  5371.00  5397.50

 Zero-point correction=                           0.252754 (Hartree/Particle)
 Thermal correction to Energy=                    0.268691
 Thermal correction to Enthalpy=                  0.269636
 Thermal correction to Gibbs Free Energy=         0.209824
 Sum of electronic and zero-point Energies=           -805.295098
 Sum of electronic and thermal Energies=              -805.279161
 Sum of electronic and thermal Enthalpies=            -805.278217
 Sum of electronic and thermal Free Energies=         -805.338028

                     E (Thermal)             CV                S
                      KCal/Mol        Cal/Mol-Kelvin    Cal/Mol-Kelvin
 Total                  168.606             63.918            125.883
 Electronic               0.000              0.000              0.000
 Translational            0.889              2.981             42.354
 Rotational               0.889              2.981             33.023
 Vibrational            166.829             57.956             50.507
 Vibration     1          0.594              1.983              5.665
 Vibration     2          0.595              1.978              4.839
 Vibration     3          0.598              1.970              4.254
 Vibration     4          0.606              1.943              3.318
 Vibration     5          0.619              1.901              2.652
 Vibration     6          0.625              1.881              2.453
 Vibration     7          0.633              1.856              2.244
 Vibration     8          0.644              1.820              2.011
 Vibration     9          0.654              1.789              1.847
 Vibration    10          0.656              1.784              1.823
 Vibration    11          0.671              1.736              1.626
 Vibration    12          0.685              1.695              1.481
 Vibration    13          0.714              1.612              1.252
 Vibration    14          0.734              1.556              1.125
 Vibration    15          0.739              1.542              1.095
 Vibration    16          0.749              1.514              1.042
 Vibration    17          0.779              1.437              0.909
 Vibration    18          0.786              1.419              0.880
 Vibration    19          0.803              1.376              0.817
 Vibration    20          0.826              1.319              0.741
 Vibration    21          0.831              1.308              0.726
 Vibration    22          0.859              1.242              0.650
 Vibration    23          0.894              1.163              0.567
 Vibration    24          0.896              1.160              0.564
 Vibration    25          0.921              1.107              0.514
 Vibration    26          0.938              1.072              0.484

 Optimization completed.
    -- Stationary point found.
 Normal termination of Gaussian 16 at Fri Dec 11 22:06:14 2020.

 ----------------------------------------------------------------------
 # B3LYP/6-311++G(d,p) empiricaldispersion=gd3bj scf=xqc pop=npa geom=c
 heck
 ----------------------------------------------------------------------

 --------------------------------------
 CID_70183908_JID_8686_Energie_neutraal
 --------------------------------------
 Structure from the checkpoint file:  "JID_8686.chk"
 Charge =  0 Multiplicity = 1

 SCF Done:  E(RB3LYP) =  -805.777828383     A.U. after   18 cycles
 Normal termination of Gaussian 16 at Fri Dec 11 22:14:39 2020.

 ----------------------------------------------------------------------
 # B3LYP/6-311++G(d,p) empiricaldispersion=gd3bj scf=xqc pop=npa geom=c
 heck
 ----------------------------------------------------------------------

 ------------------------------------
 CID_70183908_JID_8686_Energie_kation
 ------------------------------------
 Structure from the checkpoint file:  "JID_8686.chk"
 Charge =  1 Multiplicity = 2

 SCF Done:  E(UB3LYP) =  -805.539055944     A.U. after   24 cycles
 Normal termination of Gaussian 16 at Fri Dec 11 22:30:46 2020.
 Gaussian 16:  ES64L-G16RevA.03 25-Dec-2016

 ----------------------------------------------------------------------
 # B3LYP/6-311++G(d,p) empiricaldispersion=gd3bj scf=xqc pop=npa geom=c
 heck
 ----------------------------------------------------------------------

 -----------------------------------
 CID_70183908_JID_8686_Energie_anion
 -----------------------------------
 Structure from the checkpoint file:  "JID_8686.chk"
 Charge = -1 Multiplicity = 2

                         Standard orientation:
 ---------------------------------------------------------------------
 Center     Atomic      Atomic             Coordinates (Angstroms)
 Number     Number       Type             X           Y           Z
 ---------------------------------------------------------------------
      1          6           0       -3.025384   -2.039616   -0.723651
      2          6           0       -1.639015   -1.429707   -0.588153
      3          6           0       -1.482144   -0.446020    0.647929
      4          6           0       -0.221448    0.393590    0.517551
      5          6           0       -1.240076    0.617157   -0.438779
      6          6           0       -2.038532    1.733398    0.067310
      7          6           0       -2.940330    1.304955    1.098651
      8          6           0       -2.667725   -0.000530    1.399379
      9          8           0       -1.954368    3.015473   -0.305991
     10          8           0       -1.514439   -0.307273   -1.540570
     11          6           0        1.181380    0.119459    0.514481
     12          6           0        2.022259    0.652160   -0.486606
     13          6           0        3.394965    0.423785   -0.453297
     14          6           0        3.961408   -0.359366    0.560542
     15          6           0        3.131295   -0.900222    1.542533
     16          6           0        1.761702   -0.658821    1.539326
     17          8           0        4.244765    0.925313   -1.403017
     18          6           0       -0.540326   -2.456640   -0.796882
     19          1           0       -3.798478   -1.271736   -0.636807
     20          1           0       -3.191488   -2.798218    0.050480
     21          1           0       -3.123158   -2.523118   -1.701720
     22          1           0       -3.648167    1.961959    1.591950
     23          1           0       -3.253609   -0.630919    2.059628
     24          1           0       -1.356466    3.085249   -1.068620
     25          1           0        1.582012    1.232934   -1.295179
     26          1           0        5.032321   -0.531156    0.558549
     27          1           0        3.567650   -1.510603    2.328648
     28          1           0        1.119620   -1.067641    2.312671
     29          1           0        3.724693    1.429045   -2.047897
     30          1           0       -0.604773   -3.240379   -0.033268
     31          1           0       -0.654487   -2.924978   -1.781175
     32          1           0        0.448499   -2.000049   -0.742639
 ---------------------------------------------------------------------

 SCF Done:  E(UB3LYP) =  -805.820563204     A.U. after   26 cycles

 The electronic state is 2-A.
 Alpha  occ. eigenvalues --  -19.03773 -19.03532 -18.98198 -10.10360 -10.10166
 Alpha  occ. eigenvalues --  -10.09151 -10.07599 -10.04335 -10.04149 -10.04126
 Alpha  occ. eigenvalues --  -10.03879 -10.03439 -10.02810 -10.02714 -10.02555
 Alpha  occ. eigenvalues --  -10.02475 -10.02040 -10.00187  -0.95003  -0.94576
 Alpha  occ. eigenvalues --   -0.90335  -0.74021  -0.71248  -0.65393  -0.63921
 Alpha  occ. eigenvalues --   -0.60696  -0.60214  -0.57113  -0.55562  -0.50284
 Alpha  occ. eigenvalues --   -0.48438  -0.47715  -0.44213  -0.42868  -0.41287
 Alpha  occ. eigenvalues --   -0.38918  -0.37356  -0.36663  -0.34370  -0.32757
 Alpha  occ. eigenvalues --   -0.31548  -0.30861  -0.30386  -0.29700  -0.29311
 Alpha  occ. eigenvalues --   -0.28731  -0.28251  -0.27307  -0.27090  -0.26880
 Alpha  occ. eigenvalues --   -0.25701  -0.24309  -0.23130  -0.22685  -0.21864
 Alpha  occ. eigenvalues --   -0.20495  -0.20199  -0.18750  -0.15878  -0.13649
 Alpha  occ. eigenvalues --   -0.11975  -0.10027  -0.08914  -0.03303   0.01262
 Alpha virt. eigenvalues --    0.07856   0.08592   0.09194   0.09577   0.10022
 Alpha virt. eigenvalues --    0.10860   0.11202   0.11831   0.12429   0.12748
 Alpha virt. eigenvalues --    0.13430   0.13648   0.14143   0.14602   0.15170

  Beta  occ. eigenvalues --  -19.03778 -19.03290 -18.98150 -10.10319 -10.10194
  Beta  occ. eigenvalues --  -10.08372 -10.07629 -10.04331 -10.04166 -10.04125
  Beta  occ. eigenvalues --  -10.03916 -10.03440 -10.03018 -10.02646 -10.02395
  Beta  occ. eigenvalues --  -10.01994 -10.01909 -10.00020  -0.94587  -0.94405
  Beta  occ. eigenvalues --   -0.90211  -0.73575  -0.71123  -0.65329  -0.63516
  Beta  occ. eigenvalues --   -0.60540  -0.60107  -0.57075  -0.54377  -0.50147
  Beta  occ. eigenvalues --   -0.48282  -0.47484  -0.44020  -0.42491  -0.41139
  Beta  occ. eigenvalues --   -0.38666  -0.37071  -0.36575  -0.34236  -0.32667
  Beta  occ. eigenvalues --   -0.31442  -0.30779  -0.30193  -0.29594  -0.28707
  Beta  occ. eigenvalues --   -0.28687  -0.27874  -0.27197  -0.26856  -0.25935
  Beta  occ. eigenvalues --   -0.25484  -0.24167  -0.22990  -0.22571  -0.21713
  Beta  occ. eigenvalues --   -0.20315  -0.19914  -0.18081  -0.14655  -0.13178
  Beta  occ. eigenvalues --   -0.11591  -0.09789  -0.08650  -0.01775
  Beta virt. eigenvalues --    0.07823   0.08577   0.08822   0.09200   0.09588
  Beta virt. eigenvalues --    0.10030   0.10866   0.11199   0.11837   0.12634
  Beta virt. eigenvalues --    0.12760   0.13584   0.13785   0.14354   0.14644

 Mulliken charges and spin densities:
               1          2
     1  C   -0.485641  -0.001322
     2  C    0.019153  -0.009033
     3  C    1.162917   0.040800
     4  C   -0.119866   0.093019
     5  C   -0.085758  -0.021460
     6  C   -1.096183   0.349811
     7  C    0.706228  -0.063623
     8  C   -1.072382   0.457601
     9  O   -0.205234   0.058431
    10  O   -0.064497   0.010525
    11  C    0.845594  -0.106564
    12  C   -0.494730   0.174354
    13  C   -0.604362  -0.006806
    14  C    0.030822   0.063699
    15  C   -0.409256   0.001413
    16  C   -0.377389  -0.012922
    17  O   -0.256826  -0.000861
    18  C   -0.562639  -0.001030
    19  H    0.181242  -0.002842
    20  H    0.114673   0.001445
    21  H    0.119009  -0.000181
    22  H    0.136347   0.011378
    23  H    0.088334  -0.035048
    24  H    0.262343  -0.004566
    25  H    0.101562   0.010723
    26  H    0.133015  -0.005297
    27  H    0.127870   0.001744
    28  H    0.129088   0.000245
    29  H    0.249949   0.000067
    30  H    0.125475   0.000496
    31  H    0.109123   0.000694
    32  H    0.192020  -0.004889
 Sum of Mulliken charges =  -1.00000   1.00000

 Dipole moment (field-independent basis, Debye):
    X=             -0.8627    Y=             -0.9077    Z=             -1.8840  Tot=              2.2622
 Quadrupole moment (field-independent basis, Debye-Ang):
   XX=           -153.0136   YY=           -117.8268   ZZ=           -117.2457
   XY=              5.4643   XZ=             -2.8956   YZ=             -9.3256

 Summary of Natural Population Analysis:

                                       Natural Population
                Natural  -----------------------------------------------
    Atom  No    Charge         Core      Valence    Rydberg      Total
 -----------------------------------------------------------------------
      C    1   -0.29339      0.99960     2.28821    0.00558     3.29339
      C    2    0.14059      0.99954     1.84341    0.01646     2.85941
      C    3   -0.06427      0.99941     2.05063    0.01424     3.06427
      C    4   -0.06581      0.99935     2.05004    0.01642     3.06581
      C    5    0.07205      0.99910     1.90988    0.01897     2.92795
      C    6    0.36012      0.99940     1.62338    0.01710     2.63988
      C    7   -0.21146      0.99950     2.20276    0.00920     3.21146
      C    8    0.09959      0.99954     1.89152    0.00936     2.90041
      O    9   -0.30626      0.99986     3.30018    0.00622     4.30626
      O   10   -0.31673      0.99990     3.30783    0.00900     4.31673
      C   11   -0.02469      0.99948     2.01456    0.01065     3.02469
      C   12   -0.14117      0.99948     2.13287    0.00882     3.14117
      C   13    0.15091      0.99938     1.83750    0.01221     2.84909
      C   14   -0.15379      0.99953     2.14273    0.01153     3.15379
      C   15   -0.10103      0.99958     2.09257    0.00888     3.10103
      C   16   -0.11310      0.99953     2.10477    0.00880     3.11310
      O   17   -0.34985      0.99988     3.34369    0.00628     4.34985
      C   18   -0.29451      0.99960     2.28902    0.00589     3.29451
      H   19    0.10906      0.00000     0.39010    0.00084     0.39094
      H   20    0.09430      0.00000     0.40473    0.00096     0.40570
      H   21    0.09390      0.00000     0.40498    0.00112     0.40610
      H   22    0.09564      0.00000     0.40255    0.00181     0.40436
      H   23    0.08361      0.00000     0.41533    0.00106     0.41639
      H   24    0.23218      0.00000     0.26572    0.00210     0.26782
      H   25    0.09023      0.00000     0.40801    0.00176     0.40977
      H   26    0.09500      0.00000     0.40345    0.00155     0.40500
      H   27    0.09037      0.00000     0.40858    0.00105     0.40963
      H   28    0.09708      0.00000     0.40146    0.00146     0.40292
      H   29    0.22841      0.00000     0.26920    0.00239     0.27159
      H   30    0.09527      0.00000     0.40385    0.00088     0.40473
      H   31    0.09175      0.00000     0.40726    0.00099     0.40825
      H   32    0.11599      0.00000     0.38305    0.00097     0.38401
 =======================================================================
   * Total *    0.00000     17.99163    45.79384    0.21452    64.00000

 Normal termination of Gaussian 16 at Fri Dec 11 22:47:50 2020.
