 Gaussian 16, Revision A.03,

 -----------------------------------------------------------
 # opt freq B3LYP/6-31G(d) empiricaldispersion=gd3bj scf=xqc
 -----------------------------------------------------------

 ------------------------------
 CID_87754667_JID_1714_neutraal
 ------------------------------
 Symbolic Z-matrix:
 Charge =  0 Multiplicity = 1

 SCF Done:  E(RB3LYP) =  -913.920463522     A.U. after   15 cycles
 SCF Done:  E(RB3LYP) =  -913.926172337     A.U. after   13 cycles
 SCF Done:  E(RB3LYP) =  -913.926909204     A.U. after   13 cycles
 SCF Done:  E(RB3LYP) =  -913.926961960     A.U. after   14 cycles
 SCF Done:  E(RB3LYP) =  -913.927477745     A.U. after   13 cycles
 SCF Done:  E(RB3LYP) =  -913.927996164     A.U. after   11 cycles
 SCF Done:  E(RB3LYP) =  -913.927083291     A.U. after   13 cycles
 SCF Done:  E(RB3LYP) =  -913.927689065     A.U. after   13 cycles
 SCF Done:  E(RB3LYP) =  -913.928093773     A.U. after   10 cycles
 SCF Done:  E(RB3LYP) =  -913.928177084     A.U. after   12 cycles
 SCF Done:  E(RB3LYP) =  -913.928244440     A.U. after   11 cycles
 SCF Done:  E(RB3LYP) =  -913.928248753     A.U. after    9 cycles
 SCF Done:  E(RB3LYP) =  -913.928249680     A.U. after    9 cycles
 SCF Done:  E(RB3LYP) =  -913.928249857     A.U. after    8 cycles
 SCF Done:  E(RB3LYP) =  -913.928249918     A.U. after    8 cycles
 SCF Done:  E(RB3LYP) =  -913.928249945     A.U. after    7 cycles
 Optimization completed.
    -- Stationary point found.
 Normal termination of Gaussian 16 at Tue Dec  8 20:56:06 2020.

 --------------------------------------------------------------------
 #N Geom=AllCheck Guess=TCheck SCRF=Check GenChk RB3LYP/6-31G(d) Freq
 --------------------------------------------------------------------

 Structure from the checkpoint file:  "JID_1714.chk"
 ------------------------------
 CID_87754667_JID_1714_neutraal
 ------------------------------
 Charge =  0 Multiplicity = 1

 SCF Done:  E(RB3LYP) =  -913.928249945     A.U. after    1 cycles

  Exact polarizability: 104.792   4.010  95.007   3.811   0.656  84.925
 Approx polarizability: 140.991   8.675 137.924   9.434   7.344 147.332

                      1                      2                      3
                      A                      A                      A
 Frequencies --     34.0379                60.7888                72.5438
 Red. masses --      3.3726                 5.6418                 6.3839
 Frc consts  --      0.0023                 0.0123                 0.0198
 IR Inten    --      0.4830                 2.0703                 0.9723

                      4                      5                      6
                      A                      A                      A
 Frequencies --     85.4588               119.8888               140.4659
 Red. masses --      8.5549                 2.6766                 3.4787
 Frc consts  --      0.0368                 0.0227                 0.0404
 IR Inten    --      1.4121                 0.6969                 0.8135

                      7                      8                      9
                      A                      A                      A
 Frequencies --    175.2621               179.4034               207.4386
 Red. masses --      3.2982                 2.7509                 4.0942
 Frc consts  --      0.0597                 0.0522                 0.1038
 IR Inten    --      0.8088                 4.6139                 0.9883

                     10                     11                     12
                      A                      A                      A
 Frequencies --    248.5893               293.8044               350.6852
 Red. masses --      1.8349                 1.5439                 6.1056
 Frc consts  --      0.0668                 0.0785                 0.4424
 IR Inten    --      2.1576                 0.7297                11.4681

                     13                     14                     15
                      A                      A                      A
 Frequencies --    373.9107               406.2225               430.5474
 Red. masses --      7.5936                 3.3241                 3.6280
 Frc consts  --      0.6255                 0.3232                 0.3962
 IR Inten    --      2.2625                 5.6920                 0.6202

                     16                     17                     18
                      A                      A                      A
 Frequencies --    565.7426               625.8133               640.1715
 Red. masses --      2.1535                 1.9287                 2.8852
 Frc consts  --      0.4061                 0.4450                 0.6966
 IR Inten    --      8.2065               120.3148                 2.1994

                     19                     20                     21
                      A                      A                      A
 Frequencies --    647.9335               677.9868               697.6212
 Red. masses --      2.3266                 2.0888                 3.2456
 Frc consts  --      0.5755                 0.5657                 0.9306
 IR Inten    --     46.4310               232.4641                 1.2991

                     22                     23                     24
                      A                      A                      A
 Frequencies --    786.8574               800.3262               848.4256
 Red. masses --      1.4124                 4.7420                 1.6613
 Frc consts  --      0.5152                 1.7896                 0.7046
 IR Inten    --      5.9953                 8.9296                 2.9162

                     25                     26                     27
                      A                      A                      A
 Frequencies --    902.5302               943.3513              1037.3770
 Red. masses --      1.8432                 3.8646                 1.5639
 Frc consts  --      0.8846                 2.0263                 0.9916
 IR Inten    --      4.4865                 1.9654                 0.7318

                     28                     29                     30
                      A                      A                      A
 Frequencies --   1062.0154              1083.4903              1112.8199
 Red. masses --      1.7615                 1.5177                 1.6950
 Frc consts  --      1.1706                 1.0497                 1.2367
 IR Inten    --      1.4887                 4.2263                 4.2916

                     31                     32                     33
                      A                      A                      A
 Frequencies --   1159.5433              1176.1267              1254.0813
 Red. masses --      3.7830                 1.9965                 1.3556
 Frc consts  --      2.9968                 1.6271                 1.2561
 IR Inten    --    140.0265                92.3594                30.9908

                     34                     35                     36
                      A                      A                      A
 Frequencies --   1259.1339              1275.4227              1294.9712
 Red. masses --      1.6750                 1.9622                 1.2385
 Frc consts  --      1.5647                 1.8806                 1.2237
 IR Inten    --    147.3358                83.5915                 2.3400

                     37                     38                     39
                      A                      A                      A
 Frequencies --   1301.2949              1349.8324              1396.8112
 Red. masses --      1.1681                 1.1814                 1.4003
 Frc consts  --      1.1654                 1.2683                 1.6097
 IR Inten    --     12.5750                12.1778                 3.4529

                     40                     41                     42
                      A                      A                      A
 Frequencies --   1400.8370              1441.3326              1442.6142
 Red. masses --      1.7181                 1.3615                 1.4308
 Frc consts  --      1.9865                 1.6665                 1.7544
 IR Inten    --    126.9330                21.9131                13.3471

                     43                     44                     45
                      A                      A                      A
 Frequencies --   1498.5689              1505.1926              1514.2297
 Red. masses --      1.1067                 1.7766                 1.0863
 Frc consts  --      1.4644                 2.3715                 1.4676
 IR Inten    --      6.9021                41.2945                 0.5590

                     46                     47                     48
                      A                      A                      A
 Frequencies --   1529.1668              1536.5780              1823.0501
 Red. masses --      1.0485                 1.0598                 8.4522
 Frc consts  --      1.4445                 1.4743                16.5508
 IR Inten    --     10.2412                10.9508               502.7961

                     49                     50                     51
                      A                      A                      A
 Frequencies --   1832.9688              2981.0153              3035.5058
 Red. masses --      8.3247                 1.0863                 1.0622
 Frc consts  --     16.4788                 5.6874                 5.7664
 IR Inten    --    160.5991                57.0858                31.3385

                     52                     53                     54
                      A                      A                      A
 Frequencies --   3059.0302              3069.8260              3088.1665
 Red. masses --      1.0383                 1.0958                 1.0627
 Frc consts  --      5.7245                 6.0845                 5.9715
 IR Inten    --     14.4924                13.8493                20.3864

                     55                     56                     57
                      A                      A                      A
 Frequencies --   3121.7347              3123.7840              3135.6923
 Red. masses --      1.0869                 1.1024                 1.1025
 Frc consts  --      6.2405                 6.3381                 6.3867
 IR Inten    --      5.4904                32.1430                25.8690

                     58                     59                     60
                      A                      A                      A
 Frequencies --   3138.0923              3584.5595              3685.0647
 Red. masses --      1.1044                 1.0761                 1.0640
 Frc consts  --      6.4078                 8.1469                 8.5133
 IR Inten    --     12.4689                44.1636                73.3142

 - Thermochemistry -
 -------------------
 Temperature   298.150 Kelvin.  Pressure   1.00000 Atm.
 Atom     1 has atomic number  6 and mass  12.00000

 Molecular mass:   177.04597 amu.
 Principal axes and moments of inertia in atomic units:
                           1         2         3
     Eigenvalues --  1699.434582381.440023312.20663
           X            0.99781  -0.06513   0.01146
           Y            0.06548   0.99731  -0.03294
           Z           -0.00928   0.03362   0.99939
 This molecule is an asymmetric top.
 Rotational symmetry number  1.
 Warning -- assumption of classical behavior for rotation
           may cause significant error
 Rotational temperatures (Kelvin)      0.05097     0.03637     0.02615
 Rotational constants (GHZ):           1.06197     0.75784     0.54488
 Zero-point vibrational energy     464305.0 (Joules/Mol)
                                  110.97156 (Kcal/Mol)
 Warning -- explicit consideration of  16 degrees of freedom as
           vibrations may cause significant error
 Vibrational temperatures:     48.97    87.46   104.37   122.96   172.49
          (Kelvin)            202.10   252.16   258.12   298.46   357.66
                              422.72   504.56   537.97   584.46   619.46
                              813.98   900.41   921.06   932.23   975.47
                             1003.72  1132.11  1151.49  1220.70  1298.54
                             1357.27  1492.55  1528.00  1558.90  1601.10
                             1668.32  1692.18  1804.34  1811.61  1835.05
                             1863.17  1872.27  1942.11  2009.70  2015.49
                             2073.76  2075.60  2156.11  2165.64  2178.64
                             2200.13  2210.79  2622.96  2637.23  4289.02
                             4367.42  4401.26  4416.79  4443.18  4491.48
                             4494.43  4511.56  4515.01  5157.38  5301.99

 Zero-point correction=                           0.176844 (Hartree/Particle)
 Thermal correction to Energy=                    0.189641
 Thermal correction to Enthalpy=                  0.190586
 Thermal correction to Gibbs Free Energy=         0.136425
 Sum of electronic and zero-point Energies=           -913.751406
 Sum of electronic and thermal Energies=              -913.738608
 Sum of electronic and thermal Enthalpies=            -913.737664
 Sum of electronic and thermal Free Energies=         -913.791825

                     E (Thermal)             CV                S
                      KCal/Mol        Cal/Mol-Kelvin    Cal/Mol-Kelvin
 Total                  119.002             44.566            113.991
 Electronic               0.000              0.000              0.000
 Translational            0.889              2.981             41.421
 Rotational               0.889              2.981             30.973
 Vibrational            117.224             38.605             41.597
 Vibration     1          0.594              1.983              5.579
 Vibration     2          0.597              1.973              4.431
 Vibration     3          0.599              1.967              4.083
 Vibration     4          0.601              1.959              3.761
 Vibration     5          0.609              1.933              3.102
 Vibration     6          0.615              1.913              2.798
 Vibration     7          0.627              1.873              2.378
 Vibration     8          0.629              1.868              2.335
 Vibration     9          0.641              1.829              2.066
 Vibration    10          0.662              1.765              1.741
 Vibration    11          0.689              1.685              1.452
 Vibration    12          0.728              1.574              1.163
 Vibration    13          0.745              1.526              1.064
 Vibration    14          0.771              1.457              0.940
 Vibration    15          0.792              1.404              0.857
 Vibration    16          0.922              1.105              0.512

                           ! Non-Optimized Parameters !
 Normal termination of Gaussian 16 at Tue Dec  8 21:00:32 2020.

 ----------------------------------------------------------------------
 # B3LYP/6-311++G(d,p) empiricaldispersion=gd3bj scf=xqc pop=npa geom=c
 heck
 ----------------------------------------------------------------------

 --------------------------------------
 CID_87754667_JID_1714_Energie_neutraal
 --------------------------------------
 Structure from the checkpoint file:  "JID_1714.chk"
 Charge =  0 Multiplicity = 1

 SCF Done:  E(RB3LYP) =  -914.123094757     A.U. after   14 cycles
 Normal termination of Gaussian 16 at Tue Dec  8 21:03:36 2020.

 ----------------------------------------------------------------------
 # B3LYP/6-311++G(d,p) empiricaldispersion=gd3bj scf=xqc pop=npa geom=c
 heck
 ----------------------------------------------------------------------

 ------------------------------------
 CID_87754667_JID_1714_Energie_kation
 ------------------------------------
 Structure from the checkpoint file:  "JID_1714.chk"
 Charge =  1 Multiplicity = 2

 SCF Done:  E(UB3LYP) =  -913.798016718     A.U. after   24 cycles
 Normal termination of Gaussian 16 at Tue Dec  8 21:07:17 2020.
 Gaussian 16:  ES64L-G16RevA.03 25-Dec-2016

 ----------------------------------------------------------------------
 # B3LYP/6-311++G(d,p) empiricaldispersion=gd3bj scf=xqc pop=npa geom=c
 heck
 ----------------------------------------------------------------------

 -----------------------------------
 CID_87754667_JID_1714_Energie_anion
 -----------------------------------
 Structure from the checkpoint file:  "JID_1714.chk"
 Charge = -1 Multiplicity = 2

                         Standard orientation:
 ---------------------------------------------------------------------
 Center     Atomic      Atomic             Coordinates (Angstroms)
 Number     Number       Type             X           Y           Z
 ---------------------------------------------------------------------
      1          6           0        2.876290   -0.512737    0.310167
      2          6           0        2.144871   -1.850033    0.419772
      3          6           0        0.618036   -1.735105    0.453454
      4         16           0       -0.097253   -1.098908   -1.127898
      5          6           0       -0.939678    0.467560   -0.544865
      6          6           0       -2.083646    0.074040    0.369028
      7          8           0       -1.989623    0.025026    1.578118
      8          8           0       -3.195063   -0.244632   -0.313313
      9          7           0       -0.109750    1.401019    0.153642
     10          6           0        0.836478    2.189187   -0.442832
     11          8           0        1.630488    2.881395    0.162831
     12          1           0        2.639273   -0.010084   -0.632051
     13          1           0        3.960787   -0.659714    0.347113
     14          1           0        2.601559    0.166879    1.124517
     15          1           0        2.440729   -2.506649   -0.408449
     16          1           0        2.447649   -2.365195    1.342040
     17          1           0        0.160374   -2.710868    0.637816
     18          1           0        0.293118   -1.068757    1.257380
     19          1           0       -1.331472    0.898176   -1.469026
     20          1           0       -3.851576   -0.545958    0.343093
     21          1           0       -0.107150    1.346483    1.166624
     22          1           0        0.790485    2.139304   -1.547615
 ---------------------------------------------------------------------

 SCF Done:  E(UB3LYP) =  -914.116682135     A.U. after   32 cycles

 The electronic state is 2-A.
 Alpha  occ. eigenvalues --  -88.71093 -19.04499 -18.98376 -18.98279 -14.23094
 Alpha  occ. eigenvalues --  -10.16874 -10.15523 -10.12761 -10.08100 -10.06199
 Alpha  occ. eigenvalues --  -10.04810  -7.79748  -5.76140  -5.75799  -5.75120
 Alpha  occ. eigenvalues --   -0.98692  -0.93111  -0.89793  -0.82408  -0.69462
 Alpha  occ. eigenvalues --   -0.65185  -0.59653  -0.53890  -0.51878  -0.49480
 Alpha  occ. eigenvalues --   -0.46026  -0.39744  -0.39081  -0.36873  -0.36140
 Alpha  occ. eigenvalues --   -0.34323  -0.34107  -0.32683  -0.31254  -0.30634
 Alpha  occ. eigenvalues --   -0.29815  -0.27780  -0.26239  -0.24576  -0.23920
 Alpha  occ. eigenvalues --   -0.23242  -0.20643  -0.19922  -0.17292  -0.15612
 Alpha  occ. eigenvalues --   -0.14558  -0.10782   0.05220
 Alpha virt. eigenvalues --    0.07149   0.08071   0.09237   0.10027   0.10118
 Alpha virt. eigenvalues --    0.11254   0.11487   0.12531   0.13112   0.13379
 Alpha virt. eigenvalues --    0.14720   0.15291   0.15784   0.16104   0.17045

  Beta  occ. eigenvalues --  -88.71012 -19.04401 -18.98174 -18.98154 -14.23137
  Beta  occ. eigenvalues --  -10.16614 -10.15413 -10.12641 -10.08105 -10.06167
  Beta  occ. eigenvalues --  -10.04803  -7.79667  -5.75969  -5.75700  -5.75067
  Beta  occ. eigenvalues --   -0.98367  -0.92923  -0.89449  -0.82339  -0.69334
  Beta  occ. eigenvalues --   -0.64880  -0.59452  -0.53625  -0.51657  -0.49279
  Beta  occ. eigenvalues --   -0.45888  -0.39537  -0.38856  -0.36544  -0.35837
  Beta  occ. eigenvalues --   -0.34163  -0.33933  -0.32298  -0.31019  -0.30376
  Beta  occ. eigenvalues --   -0.29549  -0.27517  -0.25937  -0.24534  -0.23727
  Beta  occ. eigenvalues --   -0.23114  -0.20026  -0.19439  -0.17045  -0.15507
  Beta  occ. eigenvalues --   -0.14262  -0.10559
  Beta virt. eigenvalues --    0.07667   0.08774   0.09149   0.09665   0.10359
  Beta virt. eigenvalues --    0.10615   0.11489   0.12289   0.12538   0.13126
  Beta virt. eigenvalues --    0.13801   0.14614   0.15338   0.15998   0.16271

 Mulliken charges and spin densities:
               1          2
     1  C   -0.358379  -0.238713
     2  C    0.131963  -0.396991
     3  C   -0.275022   0.122603
     4  S    0.110075   0.056885
     5  C   -0.006992  -0.287968
     6  C   -0.087395  -0.085376
     7  O   -0.352501   0.091909
     8  O   -0.144745   0.031908
     9  N   -0.058568  -0.000033
    10  C    0.063202   0.050753
    11  O   -0.365476   0.039001
    12  H    0.119453   0.052066
    13  H   -0.066022   0.203939
    14  H    0.142948  -0.006315
    15  H   -0.228567   0.352842
    16  H   -0.122632   0.244272
    17  H    0.258104  -0.021432
    18  H    0.067977   0.009554
    19  H    0.330194  -0.039777
    20  H   -0.532714   0.819984
    21  H    0.297885  -0.000597
    22  H    0.077211   0.001487
 Sum of Mulliken charges =  -1.00000   1.00000

 Dipole moment (field-independent basis, Debye):
    X=              2.1524    Y=              0.7558    Z=             -0.6956  Tot=              2.3849
 Quadrupole moment (field-independent basis, Debye-Ang):
   XX=           -130.9579   YY=           -106.7556   ZZ=            -91.7396
   XY=             -8.1632   XZ=              4.1062   YZ=             -6.8200

 Summary of Natural Population Analysis:

                                       Natural Population
                Natural  -----------------------------------------------
    Atom  No    Charge         Core      Valence    Rydberg      Total
 -----------------------------------------------------------------------
      C    1   -0.29079      0.99966     2.28405    0.00707     3.29079
      C    2   -0.19509      0.99963     2.18599    0.00947     3.19509
      C    3   -0.25549      0.99958     2.24496    0.01094     3.25549
      S    4    0.10898      4.99964     2.87440    0.01698     7.89102
      C    5   -0.09515      0.99954     2.07876    0.01685     3.09515
      C    6    0.42723      0.99967     1.54636    0.02674     2.57277
      O    7   -0.31020      0.99987     3.30440    0.00593     4.31020
      O    8   -0.34193      0.99987     3.33522    0.00684     4.34193
      N    9   -0.32922      0.99967     2.81951    0.01004     3.82922
      C   10    0.28909      0.99975     1.68898    0.02218     2.71091
      O   11   -0.30718      0.99988     3.30054    0.00676     4.30718
      H   12    0.10386      0.00000     0.39494    0.00120     0.39614
      H   13    0.09445      0.00000     0.40481    0.00074     0.40555
      H   14    0.09900      0.00000     0.39993    0.00107     0.40100
      H   15    0.09668      0.00000     0.40161    0.00170     0.40332
      H   16    0.09312      0.00000     0.40563    0.00125     0.40688
      H   17    0.10132      0.00000     0.39782    0.00086     0.39868
      H   18    0.10864      0.00000     0.38981    0.00155     0.39136
      H   19    0.10923      0.00000     0.38977    0.00100     0.39077
      H   20    0.24180      0.00000     0.23803    0.02016     0.25820
      H   21    0.20486      0.00000     0.29356    0.00158     0.29514
      H   22    0.04677      0.00000     0.45185    0.00138     0.45323
 =======================================================================
   * Total *   -0.00000     14.99678    31.83095    0.17227    47.00000

 Normal termination of Gaussian 16 at Tue Dec  8 21:16:00 2020.
