 Gaussian 16, Revision A.03,

 -----------------------------------------------------------
 # opt freq B3LYP/6-31G(d) empiricaldispersion=gd3bj scf=xqc
 -----------------------------------------------------------

 -------------------------------
 CID_133624390_JID_3675_neutraal
 -------------------------------
 Symbolic Z-matrix:
 Charge =  0 Multiplicity = 1

 SCF Done:  E(RB3LYP) =  -638.591227100     A.U. after   16 cycles
 SCF Done:  E(RB3LYP) =  -638.621728808     A.U. after   14 cycles
 SCF Done:  E(RB3LYP) =  -638.622866232     A.U. after   14 cycles
 SCF Done:  E(RB3LYP) =  -638.610102544     A.U. after   16 cycles
 SCF Done:  E(RB3LYP) =  -638.624701260     A.U. after   13 cycles
 SCF Done:  E(RB3LYP) =  -638.622571794     A.U. after   14 cycles
 SCF Done:  E(RB3LYP) =  -638.624312748     A.U. after   13 cycles
 SCF Done:  E(RB3LYP) =  -638.625031706     A.U. after    9 cycles
 SCF Done:  E(RB3LYP) =  -638.625125200     A.U. after   11 cycles
 SCF Done:  E(RB3LYP) =  -638.625159630     A.U. after   11 cycles
 SCF Done:  E(RB3LYP) =  -638.625181985     A.U. after   10 cycles
 SCF Done:  E(RB3LYP) =  -638.625192874     A.U. after   11 cycles
 SCF Done:  E(RB3LYP) =  -638.625195188     A.U. after    9 cycles
 SCF Done:  E(RB3LYP) =  -638.625195913     A.U. after    9 cycles
 Optimization completed.
    -- Stationary point found.
 Normal termination of Gaussian 16 at Wed Dec  9 23:56:58 2020.

 --------------------------------------------------------------------
 #N Geom=AllCheck Guess=TCheck SCRF=Check GenChk RB3LYP/6-31G(d) Freq
 --------------------------------------------------------------------

 Structure from the checkpoint file:  "JID_3675.chk"
 -------------------------------
 CID_133624390_JID_3675_neutraal
 -------------------------------
 Charge =  0 Multiplicity = 1

 SCF Done:  E(RB3LYP) =  -638.625195913     A.U. after    1 cycles

  Exact polarizability: 157.716   0.264 115.149   0.100   0.078  37.700
 Approx polarizability: 263.635  13.457 199.732   0.799  -0.282  57.845

                      1                      2                      3
                      A                      A                      A
 Frequencies --     82.8389                88.2974               114.4832
 Red. masses --     10.9360                 9.4564                13.1619
 Frc consts  --      0.0442                 0.0434                 0.1016
 IR Inten    --      5.3759                 1.2911                 7.7402

                      4                      5                      6
                      A                      A                      A
 Frequencies --    145.1279               167.7541               211.5625
 Red. masses --      9.5436                 9.5830                 3.3973
 Frc consts  --      0.1184                 0.1589                 0.0896
 IR Inten    --      2.2682                 5.4607                44.9049

                      7                      8                      9
                      A                      A                      A
 Frequencies --    235.3759               256.0643               323.3546
 Red. masses --      2.6547                 2.1341                 4.9769
 Frc consts  --      0.0867                 0.0824                 0.3066
 IR Inten    --     71.8593               108.0290                 8.2599

                     10                     11                     12
                      A                      A                      A
 Frequencies --    343.0223               431.8201               434.5090
 Red. masses --      6.8982                 8.7319                 7.8330
 Frc consts  --      0.4782                 0.9593                 0.8713
 IR Inten    --      5.7350                 4.2324                 8.5672

                     13                     14                     15
                      A                      A                      A
 Frequencies --    463.2846               477.8565               508.8499
 Red. masses --      1.2877                 8.6026                11.2585
 Frc consts  --      0.1628                 1.1574                 1.7175
 IR Inten    --     65.4282                 1.7207                 0.5550

                     16                     17                     18
                      A                      A                      A
 Frequencies --    515.4696               526.6969               574.1251
 Red. masses --      7.7947                 2.4542                 1.4219
 Frc consts  --      1.2203                 0.4011                 0.2761
 IR Inten    --      6.7006                74.4057                81.0933

                     19                     20                     21
                      A                      A                      A
 Frequencies --    609.4509               609.8460               672.1259
 Red. masses --      5.1031                 1.3901                 8.8332
 Frc consts  --      1.1168                 0.3046                 2.3511
 IR Inten    --     15.3771                61.1890                 7.6281

                     22                     23                     24
                      A                      A                      A
 Frequencies --    683.2960               708.3639               725.0291
 Red. masses --      8.1443                 4.0959                 7.0690
 Frc consts  --      2.2404                 1.2109                 2.1894
 IR Inten    --      7.8460                 0.7246                 0.0119

                     25                     26                     27
                      A                      A                      A
 Frequencies --    748.4396               902.6377              1063.8575
 Red. masses --     10.9208                 5.2949                 2.5628
 Frc consts  --      3.6043                 2.5418                 1.7090
 IR Inten    --     47.2924                25.7766                20.9310

                     28                     29                     30
                      A                      A                      A
 Frequencies --   1125.5501              1185.4653              1273.3044
 Red. masses --      2.6875                 4.5932                 7.5046
 Frc consts  --      2.0060                 3.8031                 7.1687
 IR Inten    --     21.7595                43.7192                19.3151

                     31                     32                     33
                      A                      A                      A
 Frequencies --   1299.1897              1333.2475              1374.7821
 Red. masses --      2.3583                 2.7330                 1.7126
 Frc consts  --      2.3453                 2.8623                 1.9071
 IR Inten    --     73.8066                99.5704                21.2879

                     34                     35                     36
                      A                      A                      A
 Frequencies --   1497.7286              1555.8171              1616.4280
 Red. masses --      9.3158                 4.5520                 2.6306
 Frc consts  --     12.3123                 6.4919                 4.0496
 IR Inten    --     59.7034                67.2107               287.2830

                     37                     38                     39
                      A                      A                      A
 Frequencies --   1653.1327              1696.8694              1810.8569
 Red. masses --      5.8932                 1.5070                 9.2339
 Frc consts  --      9.4889                 2.5566                17.8404
 IR Inten    --    392.8597               441.0959               553.3048

                     40                     41                     42
                      A                      A                      A
 Frequencies --   2327.8052              2335.7795              3584.1284
 Red. masses --     12.6456                12.6382                 1.0505
 Frc consts  --     40.3723                40.6255                 7.9511
 IR Inten    --    100.2550                65.8784                99.2995

                     43                     44                     45
                      A                      A                      A
 Frequencies --   3591.1034              3643.7823              3702.5710
 Red. masses --      1.0749                 1.0656                 1.1032
 Frc consts  --      8.1673                 8.3360                 8.9110
 IR Inten    --     81.3598                92.7285                63.7358

 - Thermochemistry -
 -------------------
 Temperature   298.150 Kelvin.  Pressure   1.00000 Atm.
 Atom     1 has atomic number  6 and mass  12.00000

 Molecular mass:   176.03343 amu.
 Principal axes and moments of inertia in atomic units:
                           1         2         3
     Eigenvalues --  1414.393652594.009724007.89444
           X            0.99912  -0.04186  -0.00084
           Y            0.04186   0.99912   0.00114
           Z            0.00079  -0.00117   1.00000
 This molecule is an asymmetric top.
 Rotational symmetry number  1.
 Warning -- assumption of classical behavior for rotation
           may cause significant error
 Rotational temperatures (Kelvin)      0.06124     0.03339     0.02161
 Rotational constants (GHZ):           1.27598     0.69573     0.45030
 Zero-point vibrational energy     294467.3 (Joules/Mol)
                                   70.37936 (Kcal/Mol)
 Warning -- explicit consideration of  20 degrees of freedom as
           vibrations may cause significant error
 Vibrational temperatures:    119.19   127.04   164.72   208.81   241.36
          (Kelvin)            304.39   338.65   368.42   465.24   493.53
                              621.29   625.16   666.56   687.53   732.12
                              741.65   757.80   826.04   876.86   877.43
                              967.04   983.11  1019.18  1043.16  1076.84
                             1298.69  1530.65  1619.42  1705.62  1832.00
                             1869.24  1918.25  1978.00  2154.90  2238.47
                             2325.68  2378.49  2441.42  2605.42  3349.19
                             3360.67  5156.76  5166.80  5242.59  5327.17

 Zero-point correction=                           0.112157 (Hartree/Particle)
 Thermal correction to Energy=                    0.123680
 Thermal correction to Enthalpy=                  0.124624
 Thermal correction to Gibbs Free Energy=         0.074850
 Sum of electronic and zero-point Energies=           -638.513039
 Sum of electronic and thermal Energies=              -638.501516
 Sum of electronic and thermal Enthalpies=            -638.500572
 Sum of electronic and thermal Free Energies=         -638.550346

                     E (Thermal)             CV                S
                      KCal/Mol        Cal/Mol-Kelvin    Cal/Mol-Kelvin
 Total                   77.610             42.580            104.757
 Electronic               0.000              0.000              0.000
 Translational            0.889              2.981             41.404
 Rotational               0.889              2.981             31.065
 Vibrational             75.833             36.618             32.289
 Vibration     1          0.600              1.961              3.822
 Vibration     2          0.601              1.957              3.697
 Vibration     3          0.607              1.937              3.191
 Vibration     4          0.617              1.908              2.735
 Vibration     5          0.624              1.882              2.460
 Vibration     6          0.643              1.823              2.030
 Vibration     7          0.655              1.787              1.838
 Vibration     8          0.666              1.753              1.688
 Vibration     9          0.708              1.629              1.293
 Vibration    10          0.722              1.589              1.198
 Vibration    11          0.793              1.401              0.853
 Vibration    12          0.795              1.395              0.844
 Vibration    13          0.821              1.331              0.757
 Vibration    14          0.834              1.299              0.716
 Vibration    15          0.864              1.230              0.636
 Vibration    16          0.871              1.216              0.621
 Vibration    17          0.882              1.191              0.595
 Vibration    18          0.930              1.087              0.496
 Vibration    19          0.968              1.012              0.434
 Vibration    20          0.969              1.011              0.433

                           ! Non-Optimized Parameters !
 Normal termination of Gaussian 16 at Thu Dec 10 00:00:44 2020.

 ----------------------------------------------------------------------
 # B3LYP/6-311++G(d,p) empiricaldispersion=gd3bj scf=xqc pop=npa geom=c
 heck
 ----------------------------------------------------------------------

 ---------------------------------------
 CID_133624390_JID_3675_Energie_neutraal
 ---------------------------------------
 Structure from the checkpoint file:  "JID_3675.chk"
 Charge =  0 Multiplicity = 1

 SCF Done:  E(RB3LYP) =  -638.819450003     A.U. after   16 cycles
 Normal termination of Gaussian 16 at Thu Dec 10 00:01:56 2020.

 ----------------------------------------------------------------------
 # B3LYP/6-311++G(d,p) empiricaldispersion=gd3bj scf=xqc pop=npa geom=c
 heck
 ----------------------------------------------------------------------

 -------------------------------------
 CID_133624390_JID_3675_Energie_kation
 -------------------------------------
 Structure from the checkpoint file:  "JID_3675.chk"
 Charge =  1 Multiplicity = 2

 SCF Done:  E(UB3LYP) =  -638.498488604     A.U. after   23 cycles
 Normal termination of Gaussian 16 at Thu Dec 10 00:04:20 2020.
 Gaussian 16:  ES64L-G16RevA.03 25-Dec-2016

 ----------------------------------------------------------------------
 # B3LYP/6-311++G(d,p) empiricaldispersion=gd3bj scf=xqc pop=npa geom=c
 heck
 ----------------------------------------------------------------------

 ------------------------------------
 CID_133624390_JID_3675_Energie_anion
 ------------------------------------
 Structure from the checkpoint file:  "JID_3675.chk"
 Charge = -1 Multiplicity = 2

                         Standard orientation:
 ---------------------------------------------------------------------
 Center     Atomic      Atomic             Coordinates (Angstroms)
 Number     Number       Type             X           Y           Z
 ---------------------------------------------------------------------
      1          6           0        2.572473   -0.743949    0.001858
      2          7           0        3.547688   -1.382985    0.002906
      3          6           0        1.302314   -0.114406    0.001329
      4          6           0        0.166125   -0.923053   -0.006630
      5          6           0       -1.138920   -0.362560   -0.007031
      6          6           0       -1.266612    1.035069   -0.006180
      7          7           0       -0.148233    1.800211    0.005943
      8          6           0        1.199621    1.327499    0.005536
      9          8           0        2.105146    2.142197    0.005940
     10          7           0       -2.471368    1.646908   -0.046373
     11          6           0       -2.315758   -1.151022    0.005520
     12          7           0       -3.343138   -1.700955    0.019268
     13          8           0        0.232212   -2.257466   -0.009183
     14          1           0       -0.214094    2.811428   -0.025345
     15          1           0       -3.300833    1.074811    0.046498
     16          1           0       -2.561794    2.628042    0.170769
     17          1           0        1.167746   -2.539851   -0.004607
 ---------------------------------------------------------------------

 SCF Done:  E(UB3LYP) =  -638.841054140     A.U. after   32 cycles

 The electronic state is 2-A.
 Alpha  occ. eigenvalues --  -19.06163 -18.98256 -14.25174 -14.23578 -14.20198
 Alpha  occ. eigenvalues --  -14.18702 -10.17571 -10.15478 -10.14026 -10.10685
 Alpha  occ. eigenvalues --  -10.09192 -10.08898 -10.07580  -0.98199  -0.94033
 Alpha  occ. eigenvalues --   -0.88225  -0.80479  -0.79655  -0.78780  -0.71573
 Alpha  occ. eigenvalues --   -0.66566  -0.57228  -0.55015  -0.51364  -0.46738
 Alpha  occ. eigenvalues --   -0.45939  -0.42704  -0.39458  -0.38112  -0.35950
 Alpha  occ. eigenvalues --   -0.34413  -0.32450  -0.31309  -0.29035  -0.28597
 Alpha  occ. eigenvalues --   -0.26229  -0.25120  -0.24753  -0.24023  -0.23257
 Alpha  occ. eigenvalues --   -0.22261  -0.18253  -0.16314  -0.16097  -0.10802
 Alpha  occ. eigenvalues --    0.03001
 Alpha virt. eigenvalues --    0.05820   0.08444   0.09568   0.09624   0.11392
 Alpha virt. eigenvalues --    0.12409   0.12985   0.13421   0.13891   0.14054
 Alpha virt. eigenvalues --    0.14524   0.15434   0.15896   0.16707   0.17727

  Beta  occ. eigenvalues --  -19.06046 -18.98263 -14.25064 -14.23416 -14.20251
  Beta  occ. eigenvalues --  -14.18573 -10.17578 -10.14974 -10.13571 -10.10661
  Beta  occ. eigenvalues --  -10.09180 -10.09026 -10.07543  -0.97879  -0.93970
  Beta  occ. eigenvalues --   -0.87810  -0.80376  -0.79558  -0.78588  -0.71228
  Beta  occ. eigenvalues --   -0.66361  -0.56597  -0.54712  -0.51193  -0.46553
  Beta  occ. eigenvalues --   -0.45646  -0.42482  -0.39289  -0.37948  -0.34978
  Beta  occ. eigenvalues --   -0.34199  -0.32391  -0.30229  -0.28554  -0.28351
  Beta  occ. eigenvalues --   -0.26288  -0.24916  -0.24585  -0.23491  -0.23215
  Beta  occ. eigenvalues --   -0.22177  -0.17627  -0.16274  -0.15220  -0.10377
  Beta virt. eigenvalues --    0.07085   0.09172   0.09423   0.09693   0.10011
  Beta virt. eigenvalues --    0.11769   0.12574   0.13148   0.13475   0.13945
  Beta virt. eigenvalues --    0.14553   0.14563   0.15703   0.16010   0.16596

 Mulliken charges and spin densities:
               1          2
     1  C   -1.405301   0.026072
     2  N   -0.296192   0.063647
     3  C    1.803677   0.089834
     4  C    0.269313   0.032946
     5  C    2.967654  -1.173136
     6  C   -1.985000   1.164400
     7  N   -0.369575   0.102841
     8  C   -0.123295  -0.065114
     9  O   -0.383912   0.005447
    10  N   -0.204539  -0.072134
    11  C   -0.959918  -0.156603
    12  N   -0.264886  -0.042793
    13  O   -0.211555   0.029958
    14  H    0.143101   0.162642
    15  H    0.291617  -0.002918
    16  H   -0.564352   0.832403
    17  H    0.293163   0.002506
 Sum of Mulliken charges =  -1.00000   1.00000

 Dipole moment (field-independent basis, Debye):
    X=             -1.2263    Y=             -0.7145    Z=             -0.6758  Tot=              1.5719
 Quadrupole moment (field-independent basis, Debye-Ang):
   XX=           -137.0767   YY=           -108.6336   ZZ=            -82.1966
   XY=             -2.1567   XZ=              1.6659   YZ=             -2.6091

 Summary of Natural Population Analysis:

                                       Natural Population
                Natural  -----------------------------------------------
    Atom  No    Charge         Core      Valence    Rydberg      Total
 -----------------------------------------------------------------------
      C    1    0.15063      0.99964     1.83043    0.01930     2.84937
      N    2   -0.19197      0.99979     2.68113    0.01105     3.69197
      C    3   -0.20609      0.99935     2.19829    0.00845     3.20609
      C    4    0.30391      0.99941     1.68174    0.01494     2.69609
      C    5   -0.20831      0.99937     2.20060    0.00833     3.20831
      C    6    0.32437      0.99955     1.66378    0.01231     2.67563
      N    7   -0.28916      0.99964     2.78106    0.00846     3.78916
      C    8    0.33676      0.99963     1.64067    0.02294     2.66324
      O    9   -0.32426      0.99988     3.31869    0.00570     4.32426
      N   10   -0.36962      0.99970     2.86196    0.00797     3.86962
      C   11    0.16417      0.99964     1.81746    0.01874     2.83583
      N   12   -0.21752      0.99979     2.70703    0.01071     3.71752
      O   13   -0.31737      0.99987     3.31205    0.00545     4.31737
      H   14    0.20073      0.00000     0.29691    0.00236     0.29927
      H   15    0.20128      0.00000     0.29713    0.00159     0.29872
      H   16    0.19953      0.00000     0.28578    0.01469     0.30047
      H   17    0.24292      0.00000     0.25480    0.00229     0.25708
 =======================================================================
   * Total *   -0.00000     12.99524    31.82949    0.17527    45.00000

 Normal termination of Gaussian 16 at Thu Dec 10 00:07:30 2020.
