 Gaussian 16, Revision A.03,

 -----------------------------------------------------------
 # opt freq B3LYP/6-31G(d) empiricaldispersion=gd3bj scf=xqc
 -----------------------------------------------------------

 -------------------------------
 CID_113549684_JID_7549_neutraal
 -------------------------------
 Symbolic Z-matrix:
 Charge =  0 Multiplicity = 1

 SCF Done:  E(RB3LYP) =  -709.220902133     A.U. after   15 cycles
 SCF Done:  E(RB3LYP) =  -709.225542103     A.U. after   12 cycles
 SCF Done:  E(RB3LYP) =  -709.226944184     A.U. after   12 cycles
 SCF Done:  E(RB3LYP) =  -709.227467658     A.U. after   12 cycles
 SCF Done:  E(RB3LYP) =  -709.227948425     A.U. after   12 cycles
 SCF Done:  E(RB3LYP) =  -709.228336970     A.U. after   12 cycles
 SCF Done:  E(RB3LYP) =  -709.228607741     A.U. after   12 cycles
 SCF Done:  E(RB3LYP) =  -709.228690303     A.U. after   12 cycles
 SCF Done:  E(RB3LYP) =  -709.228734582     A.U. after   10 cycles
 SCF Done:  E(RB3LYP) =  -709.228855765     A.U. after   12 cycles
 SCF Done:  E(RB3LYP) =  -709.229048595     A.U. after   11 cycles
 SCF Done:  E(RB3LYP) =  -709.229053210     A.U. after   10 cycles
 SCF Done:  E(RB3LYP) =  -709.229053552     A.U. after    8 cycles
 SCF Done:  E(RB3LYP) =  -709.229053412     A.U. after    8 cycles
 SCF Done:  E(RB3LYP) =  -709.229053590     A.U. after    8 cycles
 Optimization completed.
    -- Stationary point found.
 Normal termination of Gaussian 16 at Fri Dec 11 12:32:13 2020.

 --------------------------------------------------------------------
 #N Geom=AllCheck Guess=TCheck SCRF=Check GenChk RB3LYP/6-31G(d) Freq
 --------------------------------------------------------------------

 Structure from the checkpoint file:  "JID_7549.chk"
 -------------------------------
 CID_113549684_JID_7549_neutraal
 -------------------------------
 Charge =  0 Multiplicity = 1

 SCF Done:  E(RB3LYP) =  -709.229053590     A.U. after    1 cycles

  Exact polarizability: 203.893 -11.879 187.241  19.086  -0.687 101.141
 Approx polarizability: 288.151 -20.931 303.737  43.889   1.449 158.089

                      1                      2                      3
                      A                      A                      A
 Frequencies --     23.5729                39.8655                48.0902
 Red. masses --      4.3407                 2.9101                 3.4557
 Frc consts  --      0.0014                 0.0027                 0.0047
 IR Inten    --      0.2229                 0.0111                 0.4907

                      4                      5                      6
                      A                      A                      A
 Frequencies --     64.5838                86.1454                88.3575
 Red. masses --      3.7319                 3.7395                 3.2358
 Frc consts  --      0.0092                 0.0164                 0.0149
 IR Inten    --      0.8486                 0.6814                 0.1616

                      7                      8                      9
                      A                      A                      A
 Frequencies --    118.9737               172.3384               203.1812
 Red. masses --      3.3944                 3.5125                 1.3223
 Frc consts  --      0.0283                 0.0615                 0.0322
 IR Inten    --      0.3674                 0.4240                 0.8741

                     10                     11                     12
                      A                      A                      A
 Frequencies --    220.9641               233.6243               262.5009
 Red. masses --      3.5568                 3.8688                 1.7465
 Frc consts  --      0.1023                 0.1244                 0.0709
 IR Inten    --      0.1150                 0.3315                 6.0056

                     13                     14                     15
                      A                      A                      A
 Frequencies --    295.4702               312.7905               317.8613
 Red. masses --      1.5248                 1.5344                 3.0225
 Frc consts  --      0.0784                 0.0885                 0.1799
 IR Inten    --      5.0350                26.5723                 2.0243

                     16                     17                     18
                      A                      A                      A
 Frequencies --    359.2802               398.2541               435.1016
 Red. masses --      2.8646                 3.3493                 2.6718
 Frc consts  --      0.2179                 0.3130                 0.2980
 IR Inten    --     14.5812                 7.2114                 0.6931

                     19                     20                     21
                      A                      A                      A
 Frequencies --    441.7526               451.6880               506.3184
 Red. masses --      2.9731                 2.1479                 1.8865
 Frc consts  --      0.3418                 0.2582                 0.2849
 IR Inten    --      2.4184                 4.6347                 9.8548

                     22                     23                     24
                      A                      A                      A
 Frequencies --    544.7766               554.2290               583.5980
 Red. masses --      5.2385                 3.3241                 5.0113
 Frc consts  --      0.9160                 0.6016                 1.0056
 IR Inten    --      0.8523                 1.4748                 3.4581

                     25                     26                     27
                      A                      A                      A
 Frequencies --    588.3142               658.0293               696.8585
 Red. masses --      4.1972                 4.2110                 1.9495
 Frc consts  --      0.8559                 1.0743                 0.5578
 IR Inten    --      9.1131                 6.0098                 0.2359

                     28                     29                     30
                      A                      A                      A
 Frequencies --    711.3058               758.6201               777.7719
 Red. masses --      4.5353                 1.3955                 3.2431
 Frc consts  --      1.3520                 0.4732                 1.1559
 IR Inten    --      5.7692                49.5506                 3.5038

                     31                     32                     33
                      A                      A                      A
 Frequencies --    783.1218               798.8186               820.1541
 Red. masses --      3.7349                 1.9591                 2.3560
 Frc consts  --      1.3495                 0.7366                 0.9337
 IR Inten    --      9.2656                10.0715                 4.7655

                     34                     35                     36
                      A                      A                      A
 Frequencies --    826.7836               859.2200               903.0494
 Red. masses --      2.6066                 1.5476                 1.3649
 Frc consts  --      1.0498                 0.6732                 0.6558
 IR Inten    --      4.1668                 0.0555                38.7088

                     37                     38                     39
                      A                      A                      A
 Frequencies --    929.3210               932.0913               937.2316
 Red. masses --      1.9452                 1.3776                 1.3664
 Frc consts  --      0.9898                 0.7052                 0.7071
 IR Inten    --    101.1872                37.8383                11.6280

                     40                     41                     42
                      A                      A                      A
 Frequencies --    944.4812               960.9160               975.2230
 Red. masses --      1.8727                 2.3990                 1.2418
 Frc consts  --      0.9843                 1.3051                 0.6958
 IR Inten    --     36.8172                16.7113                 0.0564

                     43                     44                     45
                      A                      A                      A
 Frequencies --    992.6840              1040.1541              1047.0678
 Red. masses --      1.7557                 2.2532                 3.2821
 Frc consts  --      1.0194                 1.4363                 2.1200
 IR Inten    --      4.7021                 6.9376                 3.5704

                     46                     47                     48
                      A                      A                      A
 Frequencies --   1060.6221              1065.1919              1075.9445
 Red. masses --      1.3083                 1.8817                 1.7388
 Frc consts  --      0.8671                 1.2579                 1.1860
 IR Inten    --      6.5294                 4.4799                18.8890

                     49                     50                     51
                      A                      A                      A
 Frequencies --   1090.1473              1114.2256              1153.3649
 Red. masses --      2.3979                 1.9034                 1.4201
 Frc consts  --      1.6790                 1.3923                 1.1130
 IR Inten    --     54.8129                 8.6779                11.9831

                     52                     53                     54
                      A                      A                      A
 Frequencies --   1168.5032              1173.1944              1192.0414
 Red. masses --      1.6216                 1.5546                 1.7200
 Frc consts  --      1.3045                 1.2607                 1.4400
 IR Inten    --      4.4138                 4.4647                 3.5796

                     55                     56                     57
                      A                      A                      A
 Frequencies --   1207.6415              1237.3309              1247.5117
 Red. masses --      1.4882                 1.4092                 2.3115
 Frc consts  --      1.2787                 1.2712                 2.1195
 IR Inten    --      3.7382                 1.9925                39.5617

                     58                     59                     60
                      A                      A                      A
 Frequencies --   1278.2812              1312.7804              1327.8209
 Red. masses --      1.2428                 1.5300                 1.3729
 Frc consts  --      1.1965                 1.5536                 1.4261
 IR Inten    --      6.8128                 6.1925                13.8032

                     61                     62                     63
                      A                      A                      A
 Frequencies --   1337.0151              1355.9581              1363.6754
 Red. masses --      1.2732                 1.7941                 1.4891
 Frc consts  --      1.3410                 1.9435                 1.6315
 IR Inten    --      1.0587                28.2563                 1.6764

                     64                     65                     66
                      A                      A                      A
 Frequencies --   1392.2355              1402.6879              1408.5743
 Red. masses --      1.3640                 1.8038                 2.0239
 Frc consts  --      1.5577                 2.0910                 2.3660
 IR Inten    --     16.6374                22.7855                27.6812

                     67                     68                     69
                      A                      A                      A
 Frequencies --   1423.9973              1436.2697              1436.7805
 Red. masses --      3.4904                 1.3611                 1.2916
 Frc consts  --      4.1701                 1.6543                 1.5710
 IR Inten    --      1.9974                13.9385                 8.8493

                     70                     71                     72
                      A                      A                      A
 Frequencies --   1450.7066              1474.5651              1476.7316
 Red. masses --      3.0572                 1.2199                 2.9912
 Frc consts  --      3.7908                 1.5628                 3.8432
 IR Inten    --     21.0210                 2.2544                21.1872

                     73                     74                     75
                      A                      A                      A
 Frequencies --   1510.0662              1510.9006              1516.3882
 Red. masses --      1.1266                 1.1143                 1.1197
 Frc consts  --      1.5136                 1.4987                 1.5170
 IR Inten    --      4.7871                 5.3451                17.9660

                     76                     77                     78
                      A                      A                      A
 Frequencies --   1519.3928              1534.6462              1538.9139
 Red. masses --      1.0436                 1.0866                 2.9672
 Frc consts  --      1.4195                 1.5077                 4.1402
 IR Inten    --      9.4865                 2.3904                 3.4794

                     79                     80                     81
                      A                      A                      A
 Frequencies --   1565.1388              1630.7229              1673.2102
 Red. masses --      5.6582                 6.4803                 6.6424
 Frc consts  --      8.1665                10.1533                10.9566
 IR Inten    --     26.7785                 0.4895                19.3623

                     82                     83                     84
                      A                      A                      A
 Frequencies --   1702.7086              1726.1422              3035.5238
 Red. masses --      1.0898                 4.3131                 1.0655
 Frc consts  --      1.8615                 7.5717                 5.7848
 IR Inten    --     12.0240                 5.5881                12.3963

                     85                     86                     87
                      A                      A                      A
 Frequencies --   3049.9745              3058.2983              3064.9624
 Red. masses --      1.0793                 1.0351                 1.0599
 Frc consts  --      5.9155                 5.7040                 5.8664
 IR Inten    --     42.9100                21.9837                22.8964

                     88                     89                     90
                      A                      A                      A
 Frequencies --   3073.9655              3081.4003              3108.6926
 Red. masses --      1.0639                 1.1028                 1.1038
 Frc consts  --      5.9229                 6.1697                 6.2846
 IR Inten    --     27.1124                37.1673                21.0258

                     91                     92                     93
                      A                      A                      A
 Frequencies --   3121.2067              3132.7950              3146.2463
 Red. masses --      1.1026                 1.1007                 1.1048
 Frc consts  --      6.3289                 6.3645                 6.4433
 IR Inten    --      4.0672                35.6874                21.8849

                     94                     95                     96
                      A                      A                      A
 Frequencies --   3149.0289              3170.1719              3186.5877
 Red. masses --      1.0590                 1.0918                 1.0853
 Frc consts  --      6.1876                 6.4648                 6.4932
 IR Inten    --     14.5209                 2.3514                 0.2252

                     97                     98                     99
                      A                      A                      A
 Frequencies --   3195.1504              3206.1335              3214.1804
 Red. masses --      1.0885                 1.0935                 1.0970
 Frc consts  --      6.5475                 6.6228                 6.6771
 IR Inten    --      8.7004                29.4397                20.6956

                    100                    101                    102
                      A                      A                      A
 Frequencies --   3229.9116              3442.4944              3527.2498
 Red. masses --      1.1149                 1.0496                 1.0911
 Frc consts  --      6.8526                 7.3289                 7.9981
 IR Inten    --     20.6408                 3.2277                 1.5253

 - Thermochemistry -
 -------------------
 Temperature   298.150 Kelvin.  Pressure   1.00000 Atm.
 Atom     1 has atomic number  6 and mass  12.00000

 Molecular mass:   229.15790 amu.
 Principal axes and moments of inertia in atomic units:
                           1         2         3
     Eigenvalues --  2636.966795679.361727454.46013
           X            0.99984   0.01774  -0.00310
           Y           -0.01776   0.99983  -0.00585
           Z            0.00300   0.00590   0.99998
 This molecule is an asymmetric top.
 Rotational symmetry number  1.
 Warning -- assumption of classical behavior for rotation
           may cause significant error
 Rotational temperatures (Kelvin)      0.03285     0.01525     0.01162
 Rotational constants (GHZ):           0.68440     0.31777     0.24210
 Zero-point vibrational energy     819385.4 (Joules/Mol)
                                  195.83781 (Kcal/Mol)
 Warning -- explicit consideration of  25 degrees of freedom as
           vibrations may cause significant error
 Vibrational temperatures:     33.92    57.36    69.19    92.92   123.94
          (Kelvin)            127.13   171.18   247.96   292.33   317.92
                              336.13   377.68   425.12   450.04   457.33
                              516.92   573.00   626.01   635.58   649.88
                              728.48   783.81   797.41   839.67   846.45
                              946.76  1002.62  1023.41  1091.49  1119.04
                             1126.74  1149.32  1180.02  1189.56  1236.23
                             1299.29  1337.09  1341.07  1348.47  1358.90
                             1382.54  1403.13  1428.25  1496.55  1506.50
                             1526.00  1532.57  1548.04  1568.48  1603.12
                             1659.43  1681.22  1687.97  1715.08  1737.53
                             1780.24  1794.89  1839.16  1888.80  1910.44
                             1923.67  1950.92  1962.02  2003.12  2018.16
                             2026.62  2048.81  2066.47  2067.21  2087.24
                             2121.57  2124.69  2172.65  2173.85  2181.74
                             2186.07  2208.01  2214.15  2251.89  2346.25
                             2407.38  2449.82  2483.53  4367.44  4388.23
                             4400.21  4409.80  4422.75  4433.45  4472.72
                             4490.72  4507.39  4526.75  4530.75  4561.17
                             4584.79  4597.11  4612.91  4624.49  4647.12
                             4952.98  5074.93

 Zero-point correction=                           0.312087 (Hartree/Particle)
 Thermal correction to Energy=                    0.328570
 Thermal correction to Enthalpy=                  0.329514
 Thermal correction to Gibbs Free Energy=         0.266598
 Sum of electronic and zero-point Energies=           -708.916966
 Sum of electronic and thermal Energies=              -708.900484
 Sum of electronic and thermal Enthalpies=            -708.899539
 Sum of electronic and thermal Free Energies=         -708.962456

                     E (Thermal)             CV                S
                      KCal/Mol        Cal/Mol-Kelvin    Cal/Mol-Kelvin
 Total                  206.181             63.051            132.418
 Electronic               0.000              0.000              0.000
 Translational            0.889              2.981             42.190
 Rotational               0.889              2.981             33.079
 Vibrational            204.403             57.089             57.150
 Vibration     1          0.593              1.985              6.308
 Vibration     2          0.594              1.981              5.266
 Vibration     3          0.595              1.978              4.894
 Vibration     4          0.597              1.971              4.312
 Vibration     5          0.601              1.959              3.746
 Vibration     6          0.601              1.957              3.696
 Vibration     7          0.609              1.934              3.117
 Vibration     8          0.626              1.877              2.410
 Vibration     9          0.639              1.835              2.104
 Vibration    10          0.648              1.809              1.951
 Vibration    11          0.654              1.789              1.851
 Vibration    12          0.670              1.742              1.645
 Vibration    13          0.690              1.682              1.442
 Vibration    14          0.701              1.649              1.348
 Vibration    15          0.704              1.639              1.321
 Vibration    16          0.734              1.556              1.125
 Vibration    17          0.765              1.474              0.969
 Vibration    18          0.796              1.394              0.842
 Vibration    19          0.802              1.379              0.821
 Vibration    20          0.810              1.357              0.791
 Vibration    21          0.862              1.236              0.643
 Vibration    22          0.900              1.151              0.555
 Vibration    23          0.910              1.130              0.535
 Vibration    24          0.940              1.067              0.479
 Vibration    25          0.946              1.057              0.470

                           ! Non-Optimized Parameters !
 Normal termination of Gaussian 16 at Fri Dec 11 12:45:42 2020.

 ----------------------------------------------------------------------
 # B3LYP/6-311++G(d,p) empiricaldispersion=gd3bj scf=xqc pop=npa geom=c
 heck
 ----------------------------------------------------------------------

 ---------------------------------------
 CID_113549684_JID_7549_Energie_neutraal
 ---------------------------------------
 Structure from the checkpoint file:  "JID_7549.chk"
 Charge =  0 Multiplicity = 1

 SCF Done:  E(RB3LYP) =  -709.422632778     A.U. after   15 cycles
 Normal termination of Gaussian 16 at Fri Dec 11 12:51:40 2020.

 ----------------------------------------------------------------------
 # B3LYP/6-311++G(d,p) empiricaldispersion=gd3bj scf=xqc pop=npa geom=c
 heck
 ----------------------------------------------------------------------

 -------------------------------------
 CID_113549684_JID_7549_Energie_kation
 -------------------------------------
 Structure from the checkpoint file:  "JID_7549.chk"
 Charge =  1 Multiplicity = 2

 SCF Done:  E(UB3LYP) =  -709.144660394     A.U. after   26 cycles
 Normal termination of Gaussian 16 at Fri Dec 11 13:05:09 2020.
 Gaussian 16:  ES64L-G16RevA.03 25-Dec-2016

 ----------------------------------------------------------------------
 # B3LYP/6-311++G(d,p) empiricaldispersion=gd3bj scf=xqc pop=npa geom=c
 heck
 ----------------------------------------------------------------------

 ------------------------------------
 CID_113549684_JID_7549_Energie_anion
 ------------------------------------
 Structure from the checkpoint file:  "JID_7549.chk"
 Charge = -1 Multiplicity = 2

                         Standard orientation:
 ---------------------------------------------------------------------
 Center     Atomic      Atomic             Coordinates (Angstroms)
 Number     Number       Type             X           Y           Z
 ---------------------------------------------------------------------
      1          6           0        2.873444    2.938492   -0.895742
      2          6           0        2.068993    2.493041    0.326483
      3          7           0        1.390707    1.228288    0.116296
      4          6           0        1.905575   -0.035211    0.232443
      5          6           0        3.130458   -0.505235    0.732505
      6          6           0        3.329716   -1.877460    0.722462
      7          6           0        2.349268   -2.769503    0.228114
      8          6           0        1.143769   -2.300703   -0.269585
      9          6           0        0.913943   -0.914139   -0.273404
     10          6           0       -0.154333   -0.055177   -0.694147
     11          7           0        0.153113    1.213373   -0.464113
     12          6           0       -1.485803   -0.445244   -1.250537
     13          6           0       -2.423236   -1.087288   -0.205489
     14          6           0       -2.591958   -0.203250    1.063421
     15          6           0       -3.100427    1.174568    0.749910
     16          6           0       -4.374524    1.556260    0.866586
     17          7           0       -3.681297   -1.422535   -0.876815
     18          1           0        3.645404    2.202338   -1.143123
     19          1           0        3.361193    3.900637   -0.704296
     20          1           0        2.212456    3.047685   -1.760775
     21          1           0        2.715658    2.382540    1.203744
     22          1           0        1.295555    3.224702    0.572995
     23          1           0        3.890713    0.171799    1.109371
     24          1           0        4.265197   -2.279310    1.101372
     25          1           0        2.551385   -3.836312    0.239478
     26          1           0        0.394087   -2.986922   -0.653194
     27          1           0       -1.965656    0.446991   -1.667007
     28          1           0       -1.367227   -1.159911   -2.072438
     29          1           0       -1.972342   -2.033371    0.121054
     30          1           0       -3.285967   -0.717729    1.740918
     31          1           0       -1.625323   -0.135424    1.577938
     32          1           0       -2.362325    1.874177    0.359892
     33          1           0       -4.702298    2.556765    0.596564
     34          1           0       -5.137198    0.885554    1.258922
     35          1           0       -4.279309   -1.939121   -0.232117
     36          1           0       -4.180976   -0.553887   -1.075004
 ---------------------------------------------------------------------

 SCF Done:  E(UB3LYP) =  -709.412460511     A.U. after   33 cycles
 SCF Done:  E(UB3LYP) =  -709.412460511     a.u. after    1 cycles

 The electronic state is 2-A.
 Alpha  occ. eigenvalues --  -14.26008 -14.20796 -14.19471 -10.10717 -10.10142
 Alpha  occ. eigenvalues --  -10.09264 -10.07775 -10.07617 -10.07000 -10.06799
 Alpha  occ. eigenvalues --  -10.06699 -10.06509 -10.05690 -10.05646 -10.05600
 Alpha  occ. eigenvalues --  -10.05543 -10.05283  -0.92598  -0.79480  -0.74351
 Alpha  occ. eigenvalues --   -0.73717  -0.69402  -0.66451  -0.64740  -0.63376
 Alpha  occ. eigenvalues --   -0.61500  -0.58877  -0.53656  -0.51391  -0.50233
 Alpha  occ. eigenvalues --   -0.47933  -0.45790  -0.44263  -0.40735  -0.39635
 Alpha  occ. eigenvalues --   -0.38598  -0.38110  -0.35681  -0.35040  -0.34551
 Alpha  occ. eigenvalues --   -0.33722  -0.33303  -0.33202  -0.31901  -0.31818
 Alpha  occ. eigenvalues --   -0.29133  -0.28486  -0.27859  -0.27147  -0.26793
 Alpha  occ. eigenvalues --   -0.25831  -0.25168  -0.24689  -0.23458  -0.22717
 Alpha  occ. eigenvalues --   -0.22268  -0.17902  -0.17329  -0.16945  -0.14767
 Alpha  occ. eigenvalues --   -0.13049  -0.10259   0.04563
 Alpha virt. eigenvalues --    0.06103   0.06590   0.07552   0.08082   0.08367
 Alpha virt. eigenvalues --    0.08648   0.09108   0.09810   0.10283   0.10624
 Alpha virt. eigenvalues --    0.10798   0.11726   0.11850   0.12166   0.12450

  Beta  occ. eigenvalues --  -14.25985 -14.20563 -14.19453 -10.10697 -10.10133
  Beta  occ. eigenvalues --  -10.09294 -10.07771 -10.07571 -10.06987 -10.06790
  Beta  occ. eigenvalues --  -10.06684 -10.06512 -10.05695 -10.05557 -10.05473
  Beta  occ. eigenvalues --  -10.05373 -10.05254  -0.92417  -0.79440  -0.74207
  Beta  occ. eigenvalues --   -0.73515  -0.69382  -0.66396  -0.64588  -0.63123
  Beta  occ. eigenvalues --   -0.61393  -0.58844  -0.53584  -0.51176  -0.50071
  Beta  occ. eigenvalues --   -0.47870  -0.45701  -0.44195  -0.40652  -0.39533
  Beta  occ. eigenvalues --   -0.38507  -0.38056  -0.35528  -0.34999  -0.34439
  Beta  occ. eigenvalues --   -0.33669  -0.33233  -0.33164  -0.31802  -0.31733
  Beta  occ. eigenvalues --   -0.29005  -0.28432  -0.27779  -0.27048  -0.26760
  Beta  occ. eigenvalues --   -0.25772  -0.25104  -0.24638  -0.23227  -0.22404
  Beta  occ. eigenvalues --   -0.22084  -0.17662  -0.17209  -0.16409  -0.14711
  Beta  occ. eigenvalues --   -0.12360  -0.09651
  Beta virt. eigenvalues --    0.06678   0.07107   0.07594   0.08164   0.08260
  Beta virt. eigenvalues --    0.08461   0.08960   0.09456   0.09981   0.10457
  Beta virt. eigenvalues --    0.10759   0.10992   0.11865   0.11939   0.12228

 Mulliken charges and spin densities:
               1          2
     1  C    0.128750  -0.601040
     2  C    0.043591  -0.193814
     3  N    0.252914   0.108807
     4  C   -0.210421   0.225858
     5  C   -0.253821   0.014716
     6  C    0.400553  -0.496949
     7  C   -0.703319  -0.060122
     8  C   -0.375517   0.138795
     9  C    0.613214  -0.069164
    10  C    0.265475  -0.163864
    11  N   -0.078734   0.096509
    12  C   -0.568324  -0.053276
    13  C    0.045273  -0.283405
    14  C    0.216303  -0.488279
    15  C   -0.696147   0.738477
    16  C   -0.047768  -0.656504
    17  N   -0.315420   0.001963
    18  H    0.092397   0.043174
    19  H   -0.337420   0.467995
    20  H    0.178528  -0.018692
    21  H   -0.267721   0.405622
    22  H   -0.137673   0.297957
    23  H   -0.169308   0.297751
    24  H    0.045461   0.081906
    25  H    0.079192   0.050404
    26  H    0.069115   0.042802
    27  H    0.182402   0.001318
    28  H    0.184612  -0.008354
    29  H    0.156906   0.055303
    30  H   -0.211589   0.416031
    31  H    0.143056  -0.005555
    32  H    0.120888   0.075621
    33  H    0.083278   0.025404
    34  H   -0.133317   0.261258
    35  H   -0.015421   0.238772
    36  H    0.220012   0.012575
 Sum of Mulliken charges =  -1.00000   1.00000

 Dipole moment (field-independent basis, Debye):
    X=             -0.9178    Y=             -1.0151    Z=             -1.8718  Tot=              2.3187
 Quadrupole moment (field-independent basis, Debye-Ang):
   XX=           -173.9854   YY=           -148.4762   ZZ=           -129.7968
   XY=            -14.6519   XZ=             -1.4664   YZ=             -4.4012

 Summary of Natural Population Analysis:

                                       Natural Population
                Natural  -----------------------------------------------
    Atom  No    Charge         Core      Valence    Rydberg      Total
 -----------------------------------------------------------------------
      C    1   -0.29074      0.99966     2.28617    0.00490     3.29074
      C    2   -0.08259      0.99963     2.07151    0.01145     3.08259
      N    3   -0.12056      0.99962     2.60818    0.01276     3.62056
      C    4    0.08086      0.99947     1.90882    0.01085     2.91914
      C    5   -0.10461      0.99953     2.09577    0.00931     3.10461
      C    6   -0.08276      0.99958     2.07370    0.00947     3.08276
      C    7   -0.13047      0.99958     2.12073    0.01016     3.13047
      C    8   -0.05911      0.99954     2.05156    0.00800     3.05911
      C    9   -0.06285      0.99946     2.05421    0.00918     3.06285
      C   10    0.08202      0.99955     1.90358    0.01486     2.91798
      N   11   -0.11866      0.99969     2.60881    0.01017     3.61866
      C   12   -0.20626      0.99958     2.19785    0.00884     3.20626
      C   13   -0.00449      0.99960     1.99301    0.01188     3.00449
      C   14   -0.22074      0.99959     2.21022    0.01094     3.22074
      C   15   -0.08345      0.99956     2.07242    0.01147     3.08345
      C   16   -0.20529      0.99956     2.19890    0.00683     3.20529
      N   17   -0.42312      0.99977     2.91293    0.01042     3.92312
      H   18    0.09916      0.00000     0.39999    0.00086     0.40084
      H   19    0.09881      0.00000     0.39976    0.00143     0.40119
      H   20    0.10116      0.00000     0.39799    0.00085     0.39884
      H   21    0.09890      0.00000     0.39903    0.00206     0.40110
      H   22    0.10323      0.00000     0.39536    0.00140     0.39677
      H   23    0.10052      0.00000     0.39840    0.00108     0.39948
      H   24    0.09381      0.00000     0.40543    0.00076     0.40619
      H   25    0.09490      0.00000     0.40431    0.00079     0.40510
      H   26    0.09651      0.00000     0.40247    0.00102     0.40349
      H   27    0.10454      0.00000     0.39447    0.00100     0.39546
      H   28    0.10739      0.00000     0.39153    0.00108     0.39261
      H   29    0.09272      0.00000     0.40524    0.00204     0.40728
      H   30    0.09766      0.00000     0.40091    0.00143     0.40234
      H   31    0.11183      0.00000     0.38693    0.00124     0.38817
      H   32    0.10495      0.00000     0.39363    0.00142     0.39505
      H   33    0.09117      0.00000     0.40794    0.00089     0.40883
      H   34    0.08867      0.00000     0.40986    0.00147     0.41133
      H   35    0.17380      0.00000     0.32434    0.00186     0.32620
      H   36    0.17310      0.00000     0.32513    0.00176     0.32690
 =======================================================================
   * Total *    0.00000     16.99296    44.81109    0.19596    62.00000

 Normal termination of Gaussian 16 at Fri Dec 11 13:22:56 2020.
