 Gaussian 16, Revision A.03,

 -----------------------------------------------------------
 # opt freq B3LYP/6-31G(d) empiricaldispersion=gd3bj scf=xqc
 -----------------------------------------------------------

 ------------------------------
 CID_71787789_JID_7566_neutraal
 ------------------------------
 Symbolic Z-matrix:
 Charge =  0 Multiplicity = 1

 SCF Done:  E(RB3LYP) =  -1466.71449484     A.U. after   15 cycles
 SCF Done:  E(RB3LYP) =  -1466.72009919     A.U. after   13 cycles
 SCF Done:  E(RB3LYP) =  -1466.72104393     A.U. after   12 cycles
 SCF Done:  E(RB3LYP) =  -1466.72158678     A.U. after   12 cycles
 SCF Done:  E(RB3LYP) =  -1466.72181040     A.U. after   12 cycles
 SCF Done:  E(RB3LYP) =  -1466.72192137     A.U. after   11 cycles
 SCF Done:  E(RB3LYP) =  -1466.72200034     A.U. after   11 cycles
 SCF Done:  E(RB3LYP) =  -1466.72202878     A.U. after   11 cycles
 SCF Done:  E(RB3LYP) =  -1466.72204059     A.U. after   10 cycles
 SCF Done:  E(RB3LYP) =  -1466.72204742     A.U. after   10 cycles
 SCF Done:  E(RB3LYP) =  -1466.72205174     A.U. after    9 cycles
 SCF Done:  E(RB3LYP) =  -1466.72205249     A.U. after    9 cycles
 SCF Done:  E(RB3LYP) =  -1466.72205278     A.U. after    8 cycles
 SCF Done:  E(RB3LYP) =  -1466.72205281     A.U. after    8 cycles
 Optimization completed.
    -- Stationary point found.
 Normal termination of Gaussian 16 at Fri Dec 11 12:29:32 2020.

 --------------------------------------------------------------------
 #N Geom=AllCheck Guess=TCheck SCRF=Check GenChk RB3LYP/6-31G(d) Freq
 --------------------------------------------------------------------

 Structure from the checkpoint file:  "JID_7566.chk"
 ------------------------------
 CID_71787789_JID_7566_neutraal
 ------------------------------
 Charge =  0 Multiplicity = 1

 SCF Done:  E(RB3LYP) =  -1466.72205281     A.U. after    1 cycles

  Exact polarizability: 194.518  10.673 162.681 -12.522  -7.494 127.375
 Approx polarizability: 268.646  24.410 288.891 -30.441 -28.357 222.436

                      1                      2                      3
                      A                      A                      A
 Frequencies --     16.9436                27.0681                30.2112
 Red. masses --      6.3818                 5.6525                 8.0567
 Frc consts  --      0.0011                 0.0024                 0.0043
 IR Inten    --      0.0898                 0.0860                 0.4264

                      4                      5                      6
                      A                      A                      A
 Frequencies --     52.7045                90.4546               109.0473
 Red. masses --      5.6504                 6.5994                 8.8364
 Frc consts  --      0.0092                 0.0318                 0.0619
 IR Inten    --      1.3391                 0.5704                 3.0621

                      7                      8                      9
                      A                      A                      A
 Frequencies --    138.0128               139.7950               187.3588
 Red. masses --      6.4666                 3.6398                 7.3841
 Frc consts  --      0.0726                 0.0419                 0.1527
 IR Inten    --      0.1456                 1.5180                 0.7072

                     10                     11                     12
                      A                      A                      A
 Frequencies --    194.0903               231.3347               278.4625
 Red. masses --      6.2812                 5.2656                 3.6218
 Frc consts  --      0.1394                 0.1660                 0.1655
 IR Inten    --      0.1890                 9.3563                 8.8353

                     13                     14                     15
                      A                      A                      A
 Frequencies --    338.8353               353.3201               384.6507
 Red. masses --      4.5982                 2.1435                 8.0770
 Frc consts  --      0.3110                 0.1577                 0.7041
 IR Inten    --      5.1139                 2.4933                 6.4900

                     16                     17                     18
                      A                      A                      A
 Frequencies --    387.3494               411.6162               457.8080
 Red. masses --      1.1692                 4.5801                 4.9466
 Frc consts  --      0.1034                 0.4572                 0.6108
 IR Inten    --    108.8091                22.3110                 0.1767

                     19                     20                     21
                      A                      A                      A
 Frequencies --    507.1721               543.9045               559.9195
 Red. masses --      3.8938                 4.0448                 4.3033
 Frc consts  --      0.5901                 0.7050                 0.7949
 IR Inten    --      0.6910                 2.7799                 8.3793

                     22                     23                     24
                      A                      A                      A
 Frequencies --    590.4365               601.2699               621.6507
 Red. masses --      3.6628                 4.3201                 4.0985
 Frc consts  --      0.7523                 0.9202                 0.9332
 IR Inten    --      8.1151                23.0314                21.2556

                     25                     26                     27
                      A                      A                      A
 Frequencies --    658.3843               659.8250               694.8331
 Red. masses --      5.9538                 7.4196                 1.2382
 Frc consts  --      1.5206                 1.9032                 0.3522
 IR Inten    --      3.8947                 6.4729                 8.8555

                     28                     29                     30
                      A                      A                      A
 Frequencies --    704.3544               707.7653               718.2647
 Red. masses --      1.3633                 1.6268                 1.9148
 Frc consts  --      0.3985                 0.4801                 0.5820
 IR Inten    --     31.1072                25.3490                52.0198

                     31                     32                     33
                      A                      A                      A
 Frequencies --    754.0053               763.9395               814.0216
 Red. masses --      2.1627                 4.6917                 2.7908
 Frc consts  --      0.7244                 1.6132                 1.0896
 IR Inten    --     95.0766                16.1160                11.8800

                     34                     35                     36
                      A                      A                      A
 Frequencies --    822.5122               839.4398               857.2087
 Red. masses --      2.7424                 1.4295                 2.7303
 Frc consts  --      1.0931                 0.5935                 1.1820
 IR Inten    --     12.5459                 6.4582                24.8567

                     37                     38                     39
                      A                      A                      A
 Frequencies --    870.6273               880.5318               902.4905
 Red. masses --      4.2704                 3.7807                 2.3541
 Frc consts  --      1.9071                 1.7271                 1.1297
 IR Inten    --     11.0387                12.3279                37.6107

                     40                     41                     42
                      A                      A                      A
 Frequencies --    912.5973               915.5678               945.4505
 Red. masses --      1.3492                 1.3547                 3.4199
 Frc consts  --      0.6620                 0.6691                 1.8011
 IR Inten    --      0.2047                 4.0823                 7.1596

                     43                     44                     45
                      A                      A                      A
 Frequencies --   1017.4430              1038.7701              1075.6401
 Red. masses --      2.6444                 1.7871                 1.5928
 Frc consts  --      1.6129                 1.1362                 1.0858
 IR Inten    --     15.5842                21.8032                 0.1307

                     46                     47                     48
                      A                      A                      A
 Frequencies --   1107.7379              1113.7657              1118.7339
 Red. masses --      1.7935                 1.3766                 1.3098
 Frc consts  --      1.2966                 1.0061                 0.9659
 IR Inten    --     13.6870                27.3680                 2.1547

                     49                     50                     51
                      A                      A                      A
 Frequencies --   1136.0472              1181.2509              1186.0959
 Red. masses --      2.1283                 2.8065                 2.0609
 Frc consts  --      1.6184                 2.3072                 1.7083
 IR Inten    --      6.0521                10.7518                 4.5053

                     52                     53                     54
                      A                      A                      A
 Frequencies --   1243.8163              1247.7659              1257.8066
 Red. masses --      1.3788                 1.3451                 1.2248
 Frc consts  --      1.2568                 1.2338                 1.1416
 IR Inten    --     14.5857                30.9938                19.2124

                     55                     56                     57
                      A                      A                      A
 Frequencies --   1265.9183              1317.9712              1360.9482
 Red. masses --      1.3745                 1.2145                 1.5074
 Frc consts  --      1.2978                 1.2430                 1.6450
 IR Inten    --     27.3300                27.3089                30.6314

                     58                     59                     60
                      A                      A                      A
 Frequencies --   1368.4020              1397.0448              1403.7404
 Red. masses --      1.9983                 1.5191                 1.5848
 Frc consts  --      2.2046                 1.7468                 1.8399
 IR Inten    --    210.5617                 9.6665                 6.1964

                     61                     62                     63
                      A                      A                      A
 Frequencies --   1411.3781              1431.4160              1447.2111
 Red. masses --      1.7321                 1.5486                 4.1923
 Frc consts  --      2.0329                 1.8695                 5.1733
 IR Inten    --      3.8477                28.5401                70.6817

                     64                     65                     66
                      A                      A                      A
 Frequencies --   1483.8037              1493.3164              1501.5407
 Red. masses --      5.7972                 1.2271                 3.7474
 Frc consts  --      7.5200                 1.6123                 4.9780
 IR Inten    --    140.7808                 9.6859                 1.5038

                     67                     68                     69
                      A                      A                      A
 Frequencies --   1518.7561              1550.4400              1586.1993
 Red. masses --      1.5791                 1.0833                 5.7861
 Frc consts  --      2.1461                 1.5342                 8.5773
 IR Inten    --     91.5995                26.0366                20.9647

                     70                     71                     72
                      A                      A                      A
 Frequencies --   1602.3136              1754.6290              2999.8751
 Red. masses --      5.3277                 7.8668                 1.0840
 Frc consts  --      8.0591                14.2699                 5.7474
 IR Inten    --      0.9912               404.3283                46.5440

                     73                     74                     75
                      A                      A                      A
 Frequencies --   3027.2429              3062.5110              3098.3835
 Red. masses --      1.0695                 1.0611                 1.0926
 Frc consts  --      5.7747                 5.8634                 6.1800
 IR Inten    --     29.8540                23.0224                22.7412

                     76                     77                     78
                      A                      A                      A
 Frequencies --   3108.8137              3210.5150              3229.4679
 Red. masses --      1.1049                 1.0900                 1.0939
 Frc consts  --      6.2915                 6.6195                 6.7220
 IR Inten    --     23.5371                 6.5601                 7.8718

                     79                     80                     81
                      A                      A                      A
 Frequencies --   3250.2820              3271.4649              3275.7458
 Red. masses --      1.0893                 1.0972                 1.0989
 Frc consts  --      6.7801                 6.9184                 6.9476
 IR Inten    --      0.7680                 1.0475                 0.6434

                     82                     83                     84
                      A                      A                      A
 Frequencies --   3286.3639              3563.4705              3740.8363
 Red. masses --      1.0936                 1.0766                 1.0662
 Frc consts  --      6.9586                 8.0551                 8.7905
 IR Inten    --      0.0823               173.4059                21.9843

 - Thermochemistry -
 -------------------
 Temperature   298.150 Kelvin.  Pressure   1.00000 Atm.
 Atom     1 has atomic number  6 and mass  12.00000

 Molecular mass:   267.03877 amu.
 Principal axes and moments of inertia in atomic units:
                           1         2         3
     Eigenvalues --  2528.259509493.82144**********
           X            0.99996   0.00672  -0.00548
           Y           -0.00657   0.99963   0.02652
           Z            0.00565  -0.02648   0.99963
 This molecule is an asymmetric top.
 Rotational symmetry number  1.
 Warning -- assumption of classical behavior for rotation
           may cause significant error
 Rotational temperatures (Kelvin)      0.03426     0.00912     0.00823
 Rotational constants (GHZ):           0.71383     0.19010     0.17157
 Zero-point vibrational energy     612608.3 (Joules/Mol)
                                  146.41690 (Kcal/Mol)
 Warning -- explicit consideration of  23 degrees of freedom as
           vibrations may cause significant error
 Vibrational temperatures:     24.38    38.94    43.47    75.83   130.14
          (Kelvin)            156.89   198.57   201.13   269.57   279.25
                              332.84   400.65   487.51   508.35   553.43
                              557.31   592.22   658.68   729.71   782.56
                              805.60   849.51   865.09   894.42   947.27
                              949.34   999.71  1013.41  1018.32  1033.42
                             1084.85  1099.14  1171.20  1183.41  1207.77
                             1233.33  1252.64  1266.89  1298.48  1313.02
                             1317.30  1360.29  1463.87  1494.56  1547.61
                             1593.79  1602.46  1609.61  1634.52  1699.56
                             1706.53  1789.57  1795.26  1809.70  1821.37
                             1896.27  1958.10  1968.83  2010.04  2019.67
                             2030.66  2059.49  2082.21  2134.86  2148.55
                             2160.38  2185.15  2230.74  2282.19  2305.37
                             2524.52  4316.15  4355.53  4406.27  4457.88
                             4472.89  4619.22  4646.48  4676.43  4706.91
                             4713.07  4728.34  5127.04  5382.23

 Zero-point correction=                           0.233330 (Hartree/Particle)
 Thermal correction to Energy=                    0.249420
 Thermal correction to Enthalpy=                  0.250365
 Thermal correction to Gibbs Free Energy=         0.186459
 Sum of electronic and zero-point Energies=          -1466.488723
 Sum of electronic and thermal Energies=             -1466.472632
 Sum of electronic and thermal Enthalpies=           -1466.471688
 Sum of electronic and thermal Free Energies=        -1466.535594

                     E (Thermal)             CV                S
                      KCal/Mol        Cal/Mol-Kelvin    Cal/Mol-Kelvin
 Total                  156.514             60.800            134.501
 Electronic               0.000              0.000              0.000
 Translational            0.889              2.981             42.646
 Rotational               0.889              2.981             33.890
 Vibrational            154.736             54.839             57.966
 Vibration     1          0.593              1.986              6.964
 Vibration     2          0.593              1.984              6.033
 Vibration     3          0.594              1.984              5.816
 Vibration     4          0.596              1.977              4.713
 Vibration     5          0.602              1.956              3.650
 Vibration     6          0.606              1.942              3.286
 Vibration     7          0.614              1.915              2.831
 Vibration     8          0.615              1.914              2.807
 Vibration     9          0.632              1.857              2.254
 Vibration    10          0.635              1.848              2.188
 Vibration    11          0.653              1.793              1.869
 Vibration    12          0.679              1.713              1.543
 Vibration    13          0.719              1.598              1.218
 Vibration    14          0.730              1.568              1.151
 Vibration    15          0.754              1.503              1.021
 Vibration    16          0.756              1.497              1.010
 Vibration    17          0.776              1.445              0.921
 Vibration    18          0.816              1.344              0.773
 Vibration    19          0.862              1.234              0.640
 Vibration    20          0.899              1.153              0.557
 Vibration    21          0.916              1.118              0.524
 Vibration    22          0.948              1.052              0.466
 Vibration    23          0.959              1.029              0.447

                           ! Non-Optimized Parameters !
 Normal termination of Gaussian 16 at Fri Dec 11 12:39:40 2020.

 ----------------------------------------------------------------------
 # B3LYP/6-311++G(d,p) empiricaldispersion=gd3bj scf=xqc pop=npa geom=c
 heck
 ----------------------------------------------------------------------

 --------------------------------------
 CID_71787789_JID_7566_Energie_neutraal
 --------------------------------------
 Structure from the checkpoint file:  "JID_7566.chk"
 Charge =  0 Multiplicity = 1

 SCF Done:  E(RB3LYP) =  -1466.97258730     A.U. after   16 cycles
 Normal termination of Gaussian 16 at Fri Dec 11 12:45:05 2020.

 ----------------------------------------------------------------------
 # B3LYP/6-311++G(d,p) empiricaldispersion=gd3bj scf=xqc pop=npa geom=c
 heck
 ----------------------------------------------------------------------

 ------------------------------------
 CID_71787789_JID_7566_Energie_kation
 ------------------------------------
 Structure from the checkpoint file:  "JID_7566.chk"
 Charge =  1 Multiplicity = 2

 SCF Done:  E(UB3LYP) =  -1466.67105682     A.U. after   33 cycles
 SCF Done:  E(UB3LYP) =  -1466.67105682     a.u. after    2 cycles
 Normal termination of Gaussian 16 at Fri Dec 11 13:14:12 2020.
 Gaussian 16:  ES64L-G16RevA.03 25-Dec-2016

 ----------------------------------------------------------------------
 # B3LYP/6-311++G(d,p) empiricaldispersion=gd3bj scf=xqc pop=npa geom=c
 heck
 ----------------------------------------------------------------------

 -----------------------------------
 CID_71787789_JID_7566_Energie_anion
 -----------------------------------
 Structure from the checkpoint file:  "JID_7566.chk"
 Charge = -1 Multiplicity = 2

                         Standard orientation:
 ---------------------------------------------------------------------
 Center     Atomic      Atomic             Coordinates (Angstroms)
 Number     Number       Type             X           Y           Z
 ---------------------------------------------------------------------
      1          6           0       -4.247503   -1.953447    0.029401
      2          6           0       -3.524071   -1.933234   -1.130642
      3         16           0       -2.484379   -0.547233   -1.220708
      4          6           0       -3.042532    0.027366    0.335569
      5          6           0       -3.974951   -0.827101    0.863654
      6          6           0       -2.498185    1.289927    0.946499
      7          6           0       -1.207348    1.098701    1.762796
      8          6           0       -0.056128    0.388003    1.047855
      9          7           0        0.386825    1.133753   -0.121941
     10          6           0        1.642677    1.237492   -0.652122
     11          8           0        1.910755    2.103701   -1.483265
     12          6           0        2.698424    0.272202   -0.219858
     13          6           0        2.536335   -1.027168    0.196101
     14         16           0        4.053839   -1.812660    0.476351
     15          6           0        4.927234   -0.373572    0.034522
     16          6           0        4.083230    0.635506   -0.320278
     17          8           0       -2.216261    2.283044   -0.047967
     18          1           0       -4.959562   -2.732382    0.278223
     19          1           0       -3.544756   -2.643848   -1.945711
     20          1           0       -4.457717   -0.651298    1.819695
     21          1           0       -3.264883    1.670101    1.639317
     22          1           0       -0.880709    2.090531    2.097102
     23          1           0       -1.464403    0.515135    2.654048
     24          1           0        0.778687    0.279221    1.746887
     25          1           0       -0.381376   -0.624991    0.773465
     26          1           0       -0.268686    1.816163   -0.489022
     27          1           0        1.619117   -1.584261    0.315900
     28          1           0        6.008209   -0.368223    0.061002
     29          1           0        4.397733    1.616136   -0.654239
     30          1           0       -2.979831    2.337732   -0.644508
 ---------------------------------------------------------------------

 SCF Done:  E(UB3LYP) =  -1466.96813838     A.U. after   33 cycles
 SCF Done:  E(UB3LYP) =  -1466.96813838     a.u. after    1 cycles

 The electronic state is 2-A.
 Alpha  occ. eigenvalues --  -88.77693 -88.77533 -19.04410 -18.96789 -14.21813
 Alpha  occ. eigenvalues --  -10.15814 -10.14546 -10.10783 -10.10203 -10.09904
 Alpha  occ. eigenvalues --  -10.09713 -10.09183 -10.08218 -10.08044 -10.07700
 Alpha  occ. eigenvalues --  -10.07680 -10.07627  -7.86303  -7.86163  -5.82586
 Alpha  occ. eigenvalues --   -5.82450  -5.82214  -5.82082  -5.81918  -5.81785
 Alpha  occ. eigenvalues --   -0.94685  -0.92048  -0.81116  -0.78387  -0.77991
 Alpha  occ. eigenvalues --   -0.69528  -0.64605  -0.63842  -0.63680  -0.62903
 Alpha  occ. eigenvalues --   -0.58494  -0.51652  -0.51065  -0.47489  -0.47000
 Alpha  occ. eigenvalues --   -0.45641  -0.44112  -0.42798  -0.41783  -0.40473
 Alpha  occ. eigenvalues --   -0.38140  -0.36255  -0.34179  -0.33780  -0.32272
 Alpha  occ. eigenvalues --   -0.31105  -0.30727  -0.29959  -0.29598  -0.28987
 Alpha  occ. eigenvalues --   -0.28546  -0.27979  -0.27882  -0.27376  -0.25592
 Alpha  occ. eigenvalues --   -0.25326  -0.24925  -0.24435  -0.20233  -0.15980
 Alpha  occ. eigenvalues --   -0.15910  -0.14761  -0.14487  -0.14000  -0.13952
 Alpha  occ. eigenvalues --    0.04021
 Alpha virt. eigenvalues --    0.05480   0.06624   0.06832   0.07296   0.07929
 Alpha virt. eigenvalues --    0.08187   0.08973   0.09462   0.10006   0.10299
 Alpha virt. eigenvalues --    0.10439   0.11396   0.11812   0.12263   0.12642

  Beta  occ. eigenvalues --  -88.77682 -88.77506 -19.04402 -18.96708 -14.21813
  Beta  occ. eigenvalues --  -10.15755 -10.14537 -10.10778 -10.10117 -10.09822
  Beta  occ. eigenvalues --  -10.09639 -10.08953 -10.08192 -10.08033 -10.07695
  Beta  occ. eigenvalues --  -10.07671 -10.07601  -7.86293  -7.86139  -5.82580
  Beta  occ. eigenvalues --   -5.82440  -5.82210  -5.82072  -5.81885  -5.81694
  Beta  occ. eigenvalues --   -0.94666  -0.91911  -0.81074  -0.78286  -0.77832
  Beta  occ. eigenvalues --   -0.69458  -0.64451  -0.63753  -0.63578  -0.62662
  Beta  occ. eigenvalues --   -0.58426  -0.51527  -0.50942  -0.47251  -0.46877
  Beta  occ. eigenvalues --   -0.45568  -0.44040  -0.42699  -0.41700  -0.40405
  Beta  occ. eigenvalues --   -0.38089  -0.36203  -0.34119  -0.33681  -0.32114
  Beta  occ. eigenvalues --   -0.31018  -0.30619  -0.29848  -0.29528  -0.28910
  Beta  occ. eigenvalues --   -0.28320  -0.27845  -0.27717  -0.27160  -0.25380
  Beta  occ. eigenvalues --   -0.25184  -0.24836  -0.24373  -0.20173  -0.15744
  Beta  occ. eigenvalues --   -0.15668  -0.14522  -0.13944  -0.13612  -0.13512
  Beta virt. eigenvalues --    0.06413   0.07135   0.07198   0.07336   0.07467
  Beta virt. eigenvalues --    0.08281   0.08438   0.09273   0.09837   0.10117
  Beta virt. eigenvalues --    0.10623   0.10758   0.11568   0.11854   0.12397

 Mulliken charges and spin densities:
               1          2
     1  C    1.339213  -2.043442
     2  C   -0.320163   0.482932
     3  S   -0.377081   0.142622
     4  C   -0.305069  -0.009464
     5  C   -1.115927   1.959305
     6  C    1.620923  -2.043983
     7  C   -0.057814  -0.641970
     8  C   -0.097521  -0.075840
     9  N   -0.096073  -0.005073
    10  C   -0.594530   0.027128
    11  O   -0.358479   0.027114
    12  C   -0.342237   0.010358
    13  C    0.777879   0.147569
    14  S   -0.553130   0.033154
    15  C   -0.202937   0.052383
    16  C    0.114636   0.000655
    17  O   -0.264244   0.015219
    18  H   -0.244653   0.390725
    19  H    0.006080   0.229789
    20  H   -1.043590   1.241596
    21  H   -0.416942   0.644470
    22  H    0.171737   0.034228
    23  H   -0.230277   0.404000
    24  H    0.193269   0.013248
    25  H    0.225838  -0.192841
    26  H    0.411772  -0.036112
    27  H    0.206779   0.069289
    28  H    0.230315  -0.002854
    29  H    0.185043   0.002641
    30  H    0.137184   0.123153
 Sum of Mulliken charges =  -1.00000   1.00000

 Dipole moment (field-independent basis, Debye):
    X=              4.5429    Y=             -1.9906    Z=             -1.3927  Tot=              5.1517
 Quadrupole moment (field-independent basis, Debye-Ang):
   XX=           -195.8563   YY=           -147.4682   ZZ=           -148.9363
   XY=             -3.8965   XZ=             22.1335   YZ=              3.3790

 Summary of Natural Population Analysis:

                                       Natural Population
                Natural  -----------------------------------------------
    Atom  No    Charge         Core      Valence    Rydberg      Total
 -----------------------------------------------------------------------
      C    1   -0.12787      0.99953     2.11718    0.01116     3.12787
      C    2   -0.18557      0.99954     2.17550    0.01053     3.18557
      S    3    0.21070      4.99940     2.76852    0.02137     7.78930
      C    4   -0.10884      0.99948     2.09430    0.01507     3.10884
      C    5   -0.12249      0.99945     2.11050    0.01255     3.12249
      C    6    0.04814      0.99948     1.93574    0.01665     2.95186
      C    7   -0.19312      0.99960     2.18337    0.01015     3.19312
      C    8   -0.09478      0.99961     2.08378    0.01138     3.09478
      N    9   -0.32490      0.99967     2.81664    0.00860     3.82490
      C   10    0.34381      0.99961     1.63613    0.02046     2.65619
      O   11   -0.32270      0.99988     3.31726    0.00555     4.32270
      C   12   -0.08990      0.99944     2.08093    0.00954     3.08990
      C   13   -0.13998      0.99950     2.13052    0.00996     3.13998
      S   14    0.19751      4.99947     2.77940    0.02362     7.80249
      C   15   -0.19199      0.99955     2.18179    0.01066     3.19199
      C   16   -0.11435      0.99951     2.10511    0.00972     3.11435
      O   17   -0.37751      0.99989     3.37125    0.00636     4.37751
      H   18    0.10575      0.00000     0.39327    0.00098     0.39425
      H   19    0.10676      0.00000     0.39242    0.00082     0.39324
      H   20    0.11148      0.00000     0.38514    0.00338     0.38852
      H   21    0.09483      0.00000     0.40093    0.00425     0.40517
      H   22    0.10366      0.00000     0.39518    0.00116     0.39634
      H   23    0.10785      0.00000     0.39099    0.00116     0.39215
      H   24    0.10280      0.00000     0.39595    0.00124     0.39720
      H   25    0.09226      0.00000     0.40627    0.00147     0.40774
      H   26    0.20748      0.00000     0.28957    0.00295     0.29252
      H   27    0.10925      0.00000     0.38932    0.00143     0.39075
      H   28    0.10370      0.00000     0.39541    0.00089     0.39630
      H   29    0.11340      0.00000     0.38550    0.00110     0.38660
      H   30    0.23463      0.00000     0.26268    0.00269     0.26537
 =======================================================================
   * Total *    0.00000     24.99261    44.77055    0.23685    70.00000

 Normal termination of Gaussian 16 at Fri Dec 11 13:26:48 2020.
