 Gaussian 16, Revision A.03,

 -----------------------------------------------------------
 # opt freq B3LYP/6-31G(d) empiricaldispersion=gd3bj scf=xqc
 -----------------------------------------------------------

 ------------------------------
 CID_82345570_JID_7935_neutraal
 ------------------------------
 Symbolic Z-matrix:
 Charge =  0 Multiplicity = 1

 SCF Done:  E(RB3LYP) =  -802.140103653     A.U. after   15 cycles
 SCF Done:  E(RB3LYP) =  -802.134877444     A.U. after   15 cycles
 SCF Done:  E(RB3LYP) =  -802.144518454     A.U. after   12 cycles
 SCF Done:  E(RB3LYP) =  -802.146371622     A.U. after   13 cycles
 SCF Done:  E(RB3LYP) =  -802.146723406     A.U. after   12 cycles
 SCF Done:  E(RB3LYP) =  -802.146255809     A.U. after   13 cycles
 SCF Done:  E(RB3LYP) =  -802.146230461     A.U. after   13 cycles
 SCF Done:  E(RB3LYP) =  -802.146193944     A.U. after   12 cycles
 SCF Done:  E(RB3LYP) =  -802.146932240     A.U. after    9 cycles
 SCF Done:  E(RB3LYP) =  -802.147322405     A.U. after   12 cycles
 SCF Done:  E(RB3LYP) =  -802.147862813     A.U. after   12 cycles
 SCF Done:  E(RB3LYP) =  -802.147861976     A.U. after   10 cycles
 SCF Done:  E(RB3LYP) =  -802.147864834     A.U. after   11 cycles
 SCF Done:  E(RB3LYP) =  -802.147865263     A.U. after    8 cycles
 SCF Done:  E(RB3LYP) =  -802.147865508     A.U. after    8 cycles
 SCF Done:  E(RB3LYP) =  -802.147865543     A.U. after    8 cycles
 Optimization completed.
    -- Stationary point found.
 Normal termination of Gaussian 16 at Fri Dec 11 13:19:30 2020.

 --------------------------------------------------------------------
 #N Geom=AllCheck Guess=TCheck SCRF=Check GenChk RB3LYP/6-31G(d) Freq
 --------------------------------------------------------------------

 Structure from the checkpoint file:  "JID_7935.chk"
 ------------------------------
 CID_82345570_JID_7935_neutraal
 ------------------------------
 Charge =  0 Multiplicity = 1

 SCF Done:  E(RB3LYP) =  -802.147865543     A.U. after    1 cycles

  Exact polarizability: 142.900   6.069 159.631  21.554  -5.818 117.228
 Approx polarizability: 204.482  15.543 248.383  50.507  -2.029 201.537

                      1                      2                      3
                      A                      A                      A
 Frequencies --     28.9511                36.7873                57.1095
 Red. masses --      5.6457                 8.2137                 4.0393
 Frc consts  --      0.0028                 0.0065                 0.0078
 IR Inten    --      0.1174                 0.8346                 1.7352

                      4                      5                      6
                      A                      A                      A
 Frequencies --     79.3801               111.8973               135.1120
 Red. masses --      5.9581                 5.5976                 3.6955
 Frc consts  --      0.0221                 0.0413                 0.0397
 IR Inten    --      0.7015                 1.2031                 1.7063

                      7                      8                      9
                      A                      A                      A
 Frequencies --    163.6778               207.9931               239.7123
 Red. masses --      4.7348                 3.5365                 3.6751
 Frc consts  --      0.0747                 0.0901                 0.1244
 IR Inten    --      2.7482                 0.7244                 8.6884

                     10                     11                     12
                      A                      A                      A
 Frequencies --    253.7921               279.8102               321.0300
 Red. masses --      2.4168                 2.5450                 2.5551
 Frc consts  --      0.0917                 0.1174                 0.1552
 IR Inten    --      5.5203                 2.9797                 4.6951

                     13                     14                     15
                      A                      A                      A
 Frequencies --    343.1526               357.4184               414.7856
 Red. masses --      1.6312                 2.2218                 2.3746
 Frc consts  --      0.1132                 0.1672                 0.2407
 IR Inten    --     47.0982                27.1779                 5.4994

                     16                     17                     18
                      A                      A                      A
 Frequencies --    432.1828               446.4599               472.5199
 Red. masses --      2.9744                 2.7523                 3.3206
 Frc consts  --      0.3273                 0.3232                 0.4368
 IR Inten    --      1.6935                 7.3508                 4.4967

                     19                     20                     21
                      A                      A                      A
 Frequencies --    484.4281               522.3644               536.4448
 Red. masses --      3.9913                 3.8405                 5.1979
 Frc consts  --      0.5519                 0.6174                 0.8813
 IR Inten    --      0.3158                 3.3955                 0.5645

                     22                     23                     24
                      A                      A                      A
 Frequencies --    567.5075               583.9836               599.7388
 Red. masses --      3.7537                 3.3285                 3.8707
 Frc consts  --      0.7123                 0.6688                 0.8203
 IR Inten    --     39.6223                 7.5590                16.1448

                     25                     26                     27
                      A                      A                      A
 Frequencies --    635.0591               653.4486               662.8311
 Red. masses --      1.6622                 2.9095                 2.5316
 Frc consts  --      0.3950                 0.7320                 0.6553
 IR Inten    --     30.4614                39.8490                 1.1603

                     28                     29                     30
                      A                      A                      A
 Frequencies --    732.5845               739.9949               778.0572
 Red. masses --      2.3661                 3.1988                 2.8997
 Frc consts  --      0.7482                 1.0320                 1.0342
 IR Inten    --     20.6916                48.6746                 8.8817

                     31                     32                     33
                      A                      A                      A
 Frequencies --    778.9188               808.7550               839.7782
 Red. masses --      1.6973                 2.8206                 1.3988
 Frc consts  --      0.6067                 1.0870                 0.5812
 IR Inten    --     36.3689                33.7006               273.1039

                     34                     35                     36
                      A                      A                      A
 Frequencies --    857.9785               868.0654               872.2629
 Red. masses --      3.4392                 1.4780                 2.4158
 Frc consts  --      1.4916                 0.6562                 1.0829
 IR Inten    --      5.7396                83.0308                 6.3399

                     37                     38                     39
                      A                      A                      A
 Frequencies --    904.2799               920.1860               948.2231
 Red. masses --      2.6257                 2.1424                 1.2286
 Frc consts  --      1.2650                 1.0688                 0.6508
 IR Inten    --     13.3871                 5.2143                 0.3296

                     40                     41                     42
                      A                      A                      A
 Frequencies --    974.0505              1005.4278              1036.9075
 Red. masses --      2.0828                 3.1779                 2.7957
 Frc consts  --      1.1643                 1.8928                 1.7710
 IR Inten    --      9.2316                11.2741                31.8098

                     43                     44                     45
                      A                      A                      A
 Frequencies --   1058.9876              1080.8614              1091.2047
 Red. masses --      2.2068                 3.3086                 2.1349
 Frc consts  --      1.4581                 2.2773                 1.4978
 IR Inten    --     75.1321                19.2840                31.2867

                     46                     47                     48
                      A                      A                      A
 Frequencies --   1118.2775              1126.7545              1166.1885
 Red. masses --      2.4901                 1.8949                 1.6973
 Frc consts  --      1.8347                 1.4174                 1.3600
 IR Inten    --     30.0083                 2.8462               139.3496

                     49                     50                     51
                      A                      A                      A
 Frequencies --   1173.4331              1189.5839              1212.8711
 Red. masses --      1.9244                 1.1562                 1.8542
 Frc consts  --      1.5612                 0.9640                 1.6071
 IR Inten    --      9.9569                 9.7697                43.9141

                     52                     53                     54
                      A                      A                      A
 Frequencies --   1241.1449              1256.9747              1276.6815
 Red. masses --      1.7631                 1.3686                 1.7439
 Frc consts  --      1.6002                 1.2740                 1.6747
 IR Inten    --     25.1612               105.0443                45.4472

                     55                     56                     57
                      A                      A                      A
 Frequencies --   1285.6621              1291.1471              1330.5311
 Red. masses --      1.2495                 1.8411                 1.6413
 Frc consts  --      1.2169                 1.8083                 1.7119
 IR Inten    --      9.8870                37.0636                 8.3903

                     58                     59                     60
                      A                      A                      A
 Frequencies --   1341.7165              1352.6342              1371.9353
 Red. masses --      3.1056                 1.5475                 2.3481
 Frc consts  --      3.2939                 1.6681                 2.6039
 IR Inten    --     58.4480                23.7207                 2.3423

                     61                     62                     63
                      A                      A                      A
 Frequencies --   1381.2856              1397.0005              1400.5737
 Red. masses --      1.6329                 1.5681                 1.4013
 Frc consts  --      1.8356                 1.8031                 1.6195
 IR Inten    --     25.3216                33.3600                11.6518

                     64                     65                     66
                      A                      A                      A
 Frequencies --   1414.8434              1427.3142              1441.1398
 Red. masses --      1.5843                 1.4241                 1.2568
 Frc consts  --      1.8685                 1.7093                 1.5379
 IR Inten    --     26.5141                11.6427                12.6248

                     67                     68                     69
                      A                      A                      A
 Frequencies --   1502.6153              1505.3048              1515.1203
 Red. masses --      1.1044                 1.0923                 1.1961
 Frc consts  --      1.4692                 1.4583                 1.6178
 IR Inten    --      9.0780                 8.9555                 9.9698

                     70                     71                     72
                      A                      A                      A
 Frequencies --   1517.5887              1522.7411              1532.1054
 Red. masses --      1.4772                 1.5681                 2.8168
 Frc consts  --      2.0045                 2.1422                 3.8956
 IR Inten    --     31.1871                36.8961                48.2455

                     73                     74                     75
                      A                      A                      A
 Frequencies --   1547.5066              1641.6361              1656.9690
 Red. masses --      1.1697                 4.6135                 6.8598
 Frc consts  --      1.6504                 7.3254                11.0966
 IR Inten    --     11.2609                57.4202                21.6565

                     76                     77                     78
                      A                      A                      A
 Frequencies --   1693.3450              1827.7560              3040.7890
 Red. masses --      1.1987                 9.0366                 1.0664
 Frc consts  --      2.0252                17.7865                 5.8094
 IR Inten    --     50.6605               234.2728                50.3357

                     79                     80                     81
                      A                      A                      A
 Frequencies --   3051.0160              3057.7626              3061.2836
 Red. masses --      1.0618                 1.0623                 1.0682
 Frc consts  --      5.8233                 5.8523                 5.8982
 IR Inten    --     24.7862                37.5734                30.3815

                     82                     83                     84
                      A                      A                      A
 Frequencies --   3084.5109              3094.9957              3097.9069
 Red. masses --      1.0686                 1.1006                 1.0992
 Frc consts  --      5.9903                 6.2117                 6.2151
 IR Inten    --     18.2859                 5.0784                85.7003

                     85                     86                     87
                      A                      A                      A
 Frequencies --   3111.4991              3124.5736              3179.7829
 Red. masses --      1.1050                 1.0958                 1.0961
 Frc consts  --      6.3032                 6.3034                 6.5295
 IR Inten    --     46.7318                17.1753                 0.5714

                     88                     89                     90
                      A                      A                      A
 Frequencies --   3189.0338              3207.1586              3219.8089
 Red. masses --      1.0864                 1.0924                 1.0945
 Frc consts  --      6.5097                 6.6199                 6.6856
 IR Inten    --      8.8687                16.7302                12.1196

                     91                     92                     93
                      A                      A                      A
 Frequencies --   3521.4231              3615.9916              3681.7837
 Red. masses --      1.0484                 1.0946                 1.0640
 Frc consts  --      7.6596                 8.4324                 8.4975
 IR Inten    --     36.7255                34.3535                51.8020

 - Thermochemistry -
 -------------------
 Temperature   298.150 Kelvin.  Pressure   1.00000 Atm.
 Atom     1 has atomic number  6 and mass  12.00000

 Molecular mass:   236.11609 amu.
 Principal axes and moments of inertia in atomic units:
                           1         2         3
     Eigenvalues --  2669.756574467.778785510.40737
           X            0.99998   0.00674   0.00203
           Y           -0.00670   0.99984  -0.01685
           Z           -0.00215   0.01683   0.99986
 This molecule is an asymmetric top.
 Rotational symmetry number  1.
 Warning -- assumption of classical behavior for rotation
           may cause significant error
 Rotational temperatures (Kelvin)      0.03244     0.01939     0.01572
 Rotational constants (GHZ):           0.67599     0.40395     0.32752
 Zero-point vibrational energy     729266.3 (Joules/Mol)
                                  174.29883 (Kcal/Mol)
 Warning -- explicit consideration of  24 degrees of freedom as
           vibrations may cause significant error
 Vibrational temperatures:     41.65    52.93    82.17   114.21   161.00
          (Kelvin)            194.40   235.50   299.26   344.89   365.15
                              402.58   461.89   493.72   514.25   596.78
                              621.81   642.36   679.85   696.98   751.57
                              771.82   816.52   840.22   862.89   913.71
                              940.17   953.67  1054.03  1064.69  1119.45
                             1120.69  1163.62  1208.25  1234.44  1248.95
                             1254.99  1301.06  1323.94  1364.28  1401.44
                             1446.59  1491.88  1523.65  1555.12  1570.00
                             1608.95  1621.15  1677.89  1688.31  1711.55
                             1745.05  1785.73  1808.51  1836.86  1849.78
                             1857.67  1914.34  1930.43  1946.14  1973.91
                             1987.36  2009.97  2015.11  2035.64  2053.59
                             2073.48  2161.93  2165.80  2179.92  2183.47
                             2190.88  2204.36  2226.52  2361.95  2384.01
                             2436.35  2629.73  4375.02  4389.73  4399.44
                             4404.50  4437.92  4453.01  4457.20  4476.75
                             4495.56  4575.00  4588.31  4614.39  4632.59
                             5066.54  5202.61  5297.27

 Zero-point correction=                           0.277763 (Hartree/Particle)
 Thermal correction to Energy=                    0.293002
 Thermal correction to Enthalpy=                  0.293946
 Thermal correction to Gibbs Free Energy=         0.234491
 Sum of electronic and zero-point Energies=           -801.870103
 Sum of electronic and thermal Energies=              -801.854864
 Sum of electronic and thermal Enthalpies=            -801.853920
 Sum of electronic and thermal Free Energies=         -801.913374

                     E (Thermal)             CV                S
                      KCal/Mol        Cal/Mol-Kelvin    Cal/Mol-Kelvin
 Total                  183.861             59.764            125.133
 Electronic               0.000              0.000              0.000
 Translational            0.889              2.981             42.279
 Rotational               0.889              2.981             32.552
 Vibrational            182.084             53.803             50.302
 Vibration     1          0.593              1.984              5.900
 Vibration     2          0.594              1.982              5.425
 Vibration     3          0.596              1.975              4.555
 Vibration     4          0.600              1.963              3.906
 Vibration     5          0.607              1.940              3.236
 Vibration     6          0.613              1.918              2.872
 Vibration     7          0.623              1.887              2.507
 Vibration     8          0.641              1.828              2.061
 Vibration     9          0.657              1.780              1.805
 Vibration    10          0.665              1.756              1.704
 Vibration    11          0.680              1.711              1.535
 Vibration    12          0.706              1.633              1.305
 Vibration    13          0.722              1.589              1.197
 Vibration    14          0.733              1.560              1.133
 Vibration    15          0.778              1.438              0.910
 Vibration    16          0.793              1.400              0.852
 Vibration    17          0.806              1.369              0.807
 Vibration    18          0.829              1.311              0.731
 Vibration    19          0.841              1.285              0.698
 Vibration    20          0.877              1.200              0.605
 Vibration    21          0.891              1.169              0.573
 Vibration    22          0.923              1.102              0.509
 Vibration    23          0.941              1.066              0.478
 Vibration    24          0.958              1.032              0.450

 Optimization completed.
    -- Stationary point found.
 Normal termination of Gaussian 16 at Fri Dec 11 13:32:32 2020.

 ----------------------------------------------------------------------
 # B3LYP/6-311++G(d,p) empiricaldispersion=gd3bj scf=xqc pop=npa geom=c
 heck
 ----------------------------------------------------------------------

 --------------------------------------
 CID_82345570_JID_7935_Energie_neutraal
 --------------------------------------
 Structure from the checkpoint file:  "JID_7935.chk"
 Charge =  0 Multiplicity = 1

 SCF Done:  E(RB3LYP) =  -802.383917403     A.U. after   16 cycles
 Normal termination of Gaussian 16 at Fri Dec 11 13:37:57 2020.

 ----------------------------------------------------------------------
 # B3LYP/6-311++G(d,p) empiricaldispersion=gd3bj scf=xqc pop=npa geom=c
 heck
 ----------------------------------------------------------------------

 ------------------------------------
 CID_82345570_JID_7935_Energie_kation
 ------------------------------------
 Structure from the checkpoint file:  "JID_7935.chk"
 Charge =  1 Multiplicity = 2

 SCF Done:  E(UB3LYP) =  -802.118733886     A.U. after   24 cycles
 Normal termination of Gaussian 16 at Fri Dec 11 13:48:52 2020.
 Gaussian 16:  ES64L-G16RevA.03 25-Dec-2016

 ----------------------------------------------------------------------
 # B3LYP/6-311++G(d,p) empiricaldispersion=gd3bj scf=xqc pop=npa geom=c
 heck
 ----------------------------------------------------------------------

 -----------------------------------
 CID_82345570_JID_7935_Energie_anion
 -----------------------------------
 Structure from the checkpoint file:  "JID_7935.chk"
 Charge = -1 Multiplicity = 2

                         Standard orientation:
 ---------------------------------------------------------------------
 Center     Atomic      Atomic             Coordinates (Angstroms)
 Number     Number       Type             X           Y           Z
 ---------------------------------------------------------------------
      1          6           0       -1.841716   -1.890459    1.085745
      2          6           0       -2.405555   -2.041484   -0.325937
      3          8           0       -2.709734   -0.775224   -0.910389
      4          6           0       -1.971289    0.314370   -0.518159
      5          6           0       -2.220452    1.510503   -1.196090
      6          6           0       -1.498702    2.649491   -0.848507
      7          6           0       -0.578168    2.623827    0.198841
      8          6           0       -0.348754    1.437063    0.905094
      9          6           0       -1.010410    0.255805    0.503601
     10          7           0       -0.696134   -0.987721    1.132547
     11          6           0        0.613174   -1.573069    0.780764
     12          6           0        1.043961   -1.583532   -0.704180
     13          6           0        1.688458   -0.275211   -1.221922
     14          6           0        2.957064    0.052988   -0.474368
     15          8           0        3.089654    0.883325    0.403174
     16          8           0        3.989007   -0.735663   -0.865016
     17          7           0        0.520217    1.420399    2.006392
     18          1           0       -2.620035   -1.479459    1.739780
     19          1           0       -1.555588   -2.870852    1.480051
     20          1           0       -1.692741   -2.574915   -0.967895
     21          1           0       -3.343984   -2.605692   -0.323336
     22          1           0       -2.963046    1.518285   -1.986668
     23          1           0       -1.676790    3.578236   -1.383237
     24          1           0       -0.056233    3.524640    0.506287
     25          1           0        1.387259   -1.052537    1.357073
     26          1           0        0.596735   -2.602731    1.152900
     27          1           0        1.768362   -2.395547   -0.841484
     28          1           0        0.190222   -1.810717   -1.348367
     29          1           0        1.937751   -0.405714   -2.280200
     30          1           0        1.006016    0.567819   -1.122038
     31          1           0        4.751309   -0.477533   -0.313019
     32          1           0        0.513534    0.515559    2.463994
     33          1           0        1.471572    1.681151    1.762144
 ---------------------------------------------------------------------

 SCF Done:  E(UB3LYP) =  -802.374521725     A.U. after   31 cycles

 The electronic state is 2-A.
 Alpha  occ. eigenvalues --  -19.07219 -19.06052 -19.02353 -14.22860 -14.20970
 Alpha  occ. eigenvalues --  -10.21283 -10.14072 -10.13164 -10.11651 -10.10992
 Alpha  occ. eigenvalues --  -10.10703 -10.10675 -10.08727 -10.08437 -10.08335
 Alpha  occ. eigenvalues --  -10.07408 -10.07149  -1.01498  -0.97764  -0.92563
 Alpha  occ. eigenvalues --   -0.85384  -0.80988  -0.74677  -0.70841  -0.67700
 Alpha  occ. eigenvalues --   -0.64510  -0.63397  -0.59467  -0.56623  -0.54079
 Alpha  occ. eigenvalues --   -0.50874  -0.49406  -0.47573  -0.43913  -0.42695
 Alpha  occ. eigenvalues --   -0.42285  -0.40519  -0.39105  -0.39008  -0.37438
 Alpha  occ. eigenvalues --   -0.36918  -0.36718  -0.35933  -0.35023  -0.33658
 Alpha  occ. eigenvalues --   -0.32967  -0.31708  -0.31560  -0.29936  -0.29441
 Alpha  occ. eigenvalues --   -0.28820  -0.28457  -0.26679  -0.26265  -0.25415
 Alpha  occ. eigenvalues --   -0.24463  -0.23325  -0.23171  -0.20223  -0.18901
 Alpha  occ. eigenvalues --   -0.16276  -0.12167  -0.11105   0.04116
 Alpha virt. eigenvalues --    0.06037   0.06975   0.07479   0.08042   0.08496
 Alpha virt. eigenvalues --    0.08815   0.09182   0.09293   0.09427   0.09964
 Alpha virt. eigenvalues --    0.10616   0.11454   0.11726   0.12594   0.13337

  Beta  occ. eigenvalues --  -19.07158 -19.06053 -19.02325 -14.22860 -14.20966
  Beta  occ. eigenvalues --  -10.21266 -10.14070 -10.13134 -10.11651 -10.10964
  Beta  occ. eigenvalues --  -10.10698 -10.10649 -10.08712 -10.08436 -10.08308
  Beta  occ. eigenvalues --  -10.07407 -10.07147  -1.01414  -0.97759  -0.92485
  Beta  occ. eigenvalues --   -0.85374  -0.80980  -0.74670  -0.70792  -0.67671
  Beta  occ. eigenvalues --   -0.64477  -0.63375  -0.59421  -0.56582  -0.54007
  Beta  occ. eigenvalues --   -0.50824  -0.49340  -0.47528  -0.43896  -0.42669
  Beta  occ. eigenvalues --   -0.42268  -0.40471  -0.39066  -0.38975  -0.37398
  Beta  occ. eigenvalues --   -0.36894  -0.36661  -0.35893  -0.34999  -0.33619
  Beta  occ. eigenvalues --   -0.32932  -0.31668  -0.31514  -0.29904  -0.29411
  Beta  occ. eigenvalues --   -0.28795  -0.28441  -0.26653  -0.26240  -0.25373
  Beta  occ. eigenvalues --   -0.24438  -0.23305  -0.23082  -0.20207  -0.18843
  Beta  occ. eigenvalues --   -0.16258  -0.12159  -0.11095
  Beta virt. eigenvalues --    0.06562   0.07272   0.07490   0.07726   0.08542
  Beta virt. eigenvalues --    0.08951   0.08983   0.09308   0.09556   0.09811
  Beta virt. eigenvalues --    0.10127   0.11069   0.11650   0.12334   0.12809

 Mulliken charges and spin densities:
               1          2
     1  C    0.351404  -0.292825
     2  C    0.490274  -0.800518
     3  O   -0.132260   0.040311
     4  C   -0.118262  -0.134650
     5  C   -0.261987  -0.253742
     6  C   -0.195429  -0.083522
     7  C   -0.095073  -0.108871
     8  C    0.050537  -0.125504
     9  C   -0.087937   0.139369
    10  N    0.091050   0.094169
    11  C   -0.084444  -0.394341
    12  C    0.333269  -0.272675
    13  C    0.475246  -0.776341
    14  C    0.175401  -0.422155
    15  O   -0.271694   0.014334
    16  O   -0.182194   0.080718
    17  N   -0.316565  -0.038686
    18  H    0.152843   0.015797
    19  H   -0.623676   0.811861
    20  H   -0.219662   0.352737
    21  H   -0.494466   0.683611
    22  H    0.088371   0.071890
    23  H    0.135273   0.017068
    24  H    0.134398   0.024330
    25  H    0.075521   0.065836
    26  H   -0.509690   0.685783
    27  H   -0.293888   0.519670
    28  H    0.323156  -0.190708
    29  H   -0.180487   0.428454
    30  H    0.275431  -0.094838
    31  H   -0.525695   0.823242
    32  H    0.209341   0.067207
    33  H    0.231895   0.052990
 Sum of Mulliken charges =  -1.00000   1.00000

 Dipole moment (field-independent basis, Debye):
    X=             -4.2159    Y=              6.1854    Z=             -0.6123  Tot=              7.5105
 Quadrupole moment (field-independent basis, Debye-Ang):
   XX=           -178.9551   YY=           -156.5387   ZZ=           -131.3273
   XY=             -0.9466   XZ=              3.8779   YZ=             -1.6968

 Summary of Natural Population Analysis:

                                       Natural Population
                Natural  -----------------------------------------------
    Atom  No    Charge         Core      Valence    Rydberg      Total
 -----------------------------------------------------------------------
      C    1   -0.09640      0.99961     2.08491    0.01188     3.09640
      C    2   -0.01474      0.99956     2.00350    0.01169     3.01474
      O    3   -0.27667      0.99986     3.26791    0.00890     4.27667
      C    4    0.15148      0.99933     1.83527    0.01393     2.84852
      C    5   -0.13738      0.99953     2.12903    0.00882     3.13738
      C    6   -0.09846      0.99958     2.08965    0.00924     3.09846
      C    7   -0.13215      0.99952     2.12415    0.00848     3.13215
      C    8    0.08374      0.99945     1.90590    0.01091     2.91626
      C    9    0.02947      0.99939     1.96019    0.01095     2.97053
      N   10   -0.27569      0.99969     2.76189    0.01411     3.77569
      C   11   -0.08663      0.99958     2.07380    0.01325     3.08663
      C   12   -0.19681      0.99961     2.18849    0.00871     3.19681
      C   13   -0.24061      0.99956     2.23207    0.00898     3.24061
      C   14    0.41319      0.99971     1.56135    0.02576     2.58681
      O   15   -0.31964      0.99986     3.31328    0.00649     4.31964
      O   16   -0.34256      0.99988     3.33573    0.00695     4.34256
      N   17   -0.40745      0.99972     2.89935    0.00838     3.90745
      H   18    0.09619      0.00000     0.40261    0.00120     0.40381
      H   19    0.10744      0.00000     0.39039    0.00217     0.39256
      H   20    0.08411      0.00000     0.41390    0.00199     0.41589
      H   21    0.09317      0.00000     0.40515    0.00168     0.40683
      H   22    0.10391      0.00000     0.39470    0.00139     0.39609
      H   23    0.09785      0.00000     0.40140    0.00075     0.40215
      H   24    0.10101      0.00000     0.39771    0.00128     0.39899
      H   25    0.09370      0.00000     0.40448    0.00183     0.40630
      H   26    0.10362      0.00000     0.39448    0.00191     0.39638
      H   27    0.10839      0.00000     0.38968    0.00193     0.39161
      H   28    0.10102      0.00000     0.39721    0.00178     0.39898
      H   29    0.11300      0.00000     0.38572    0.00128     0.38700
      H   30    0.11489      0.00000     0.38252    0.00258     0.38511
      H   31    0.24463      0.00000     0.23476    0.02061     0.25537
      H   32    0.18596      0.00000     0.31173    0.00231     0.31404
      H   33    0.19844      0.00000     0.29924    0.00232     0.30156
 =======================================================================
   * Total *   -0.00000     16.99345    45.77212    0.23443    63.00000

 Normal termination of Gaussian 16 at Fri Dec 11 14:02:43 2020.
