 Gaussian 16, Revision A.03,

 -----------------------------------------------------------
 # opt freq B3LYP/6-31G(d) empiricaldispersion=gd3bj scf=xqc
 -----------------------------------------------------------

 -------------------------------
 CID_117156424_JID_5561_neutraal
 -------------------------------
 Symbolic Z-matrix:
 Charge =  0 Multiplicity = 1

 SCF Done:  E(RB3LYP) =  -668.921999587     A.U. after   14 cycles
 SCF Done:  E(RB3LYP) =  -668.926687683     A.U. after   11 cycles
 SCF Done:  E(RB3LYP) =  -668.927164673     A.U. after   11 cycles
 SCF Done:  E(RB3LYP) =  -668.927320915     A.U. after   10 cycles
 SCF Done:  E(RB3LYP) =  -668.927360304     A.U. after   10 cycles
 SCF Done:  E(RB3LYP) =  -668.927408221     A.U. after   10 cycles
 SCF Done:  E(RB3LYP) =  -668.927442534     A.U. after   10 cycles
 SCF Done:  E(RB3LYP) =  -668.927446049     A.U. after   10 cycles
 SCF Done:  E(RB3LYP) =  -668.927458582     A.U. after    9 cycles
 SCF Done:  E(RB3LYP) =  -668.927476930     A.U. after   10 cycles
 SCF Done:  E(RB3LYP) =  -668.928825699     A.U. after    7 cycles
 SCF Done:  E(RB3LYP) =  -668.928843127     A.U. after   10 cycles
 SCF Done:  E(RB3LYP) =  -668.928846192     A.U. after    8 cycles
 SCF Done:  E(RB3LYP) =  -668.928846808     A.U. after    8 cycles
 SCF Done:  E(RB3LYP) =  -668.928847010     A.U. after    8 cycles
 SCF Done:  E(RB3LYP) =  -668.928847120     A.U. after    7 cycles
 Optimization completed.
    -- Stationary point found.
 Normal termination of Gaussian 16 at Thu Dec 10 16:37:40 2020.

 --------------------------------------------------------------------
 #N Geom=AllCheck Guess=TCheck SCRF=Check GenChk RB3LYP/6-31G(d) Freq
 --------------------------------------------------------------------

 Structure from the checkpoint file:  "JID_5561.chk"
 -------------------------------
 CID_117156424_JID_5561_neutraal
 -------------------------------
 Charge =  0 Multiplicity = 1

 SCF Done:  E(RB3LYP) =  -668.928847120     A.U. after    1 cycles

  Exact polarizability: 169.011   1.348 126.512   1.962   4.371  96.685
 Approx polarizability: 204.206  -2.446 200.235  -2.341  13.156 151.405

                      1                      2                      3
                      A                      A                      A
 Frequencies --     23.0571                38.7662                54.3444
 Red. masses --      2.7536                 2.9127                 3.0407
 Frc consts  --      0.0009                 0.0026                 0.0053
 IR Inten    --      0.8785                 0.1078                 0.1884

                      4                      5                      6
                      A                      A                      A
 Frequencies --    106.0086               126.8821               151.1254
 Red. masses --      4.0278                 3.2967                 4.6814
 Frc consts  --      0.0267                 0.0313                 0.0630
 IR Inten    --      0.2615                 1.8268                 5.0659

                      7                      8                      9
                      A                      A                      A
 Frequencies --    221.8420               241.4932               279.4561
 Red. masses --      3.6262                 2.4410                 2.7925
 Frc consts  --      0.1051                 0.0839                 0.1285
 IR Inten    --      5.1970                 5.8728                 1.0926

                     10                     11                     12
                      A                      A                      A
 Frequencies --    282.6999               297.8824               343.3237
 Red. masses --      1.1628                 3.5610                 3.8056
 Frc consts  --      0.0548                 0.1862                 0.2643
 IR Inten    --    136.1037                 4.9846                 6.5521

                     13                     14                     15
                      A                      A                      A
 Frequencies --    382.5910               397.3727               473.4898
 Red. masses --      2.2533                 2.6249                 2.9411
 Frc consts  --      0.1943                 0.2442                 0.3885
 IR Inten    --      1.6391                 5.2998                 2.8529

                     16                     17                     18
                      A                      A                      A
 Frequencies --    527.0743               534.9803               607.8945
 Red. masses --      3.5053                 3.5040                 2.5610
 Frc consts  --      0.5737                 0.5909                 0.5576
 IR Inten    --     12.1195                 1.6514                57.0876

                     19                     20                     21
                      A                      A                      A
 Frequencies --    618.6918               654.9852               689.0027
 Red. masses --      5.1093                 3.2307                 3.7525
 Frc consts  --      1.1523                 0.8166                 1.0496
 IR Inten    --      3.8289                 9.9201                 1.3880

                     22                     23                     24
                      A                      A                      A
 Frequencies --    715.8943               734.0933               763.8643
 Red. masses --      1.6191                 3.3840                 2.2768
 Frc consts  --      0.4889                 1.0744                 0.7827
 IR Inten    --      8.5986                 6.7731                 3.0764

                     25                     26                     27
                      A                      A                      A
 Frequencies --    798.4868               851.3355               858.0177
 Red. masses --      2.1449                 1.6405                 2.0037
 Frc consts  --      0.8057                 0.7006                 0.8691
 IR Inten    --     26.5378                 6.0619                19.6419

                     28                     29                     30
                      A                      A                      A
 Frequencies --    871.8517               904.3140               929.9484
 Red. masses --      2.8014                 2.4943                 3.1193
 Frc consts  --      1.2546                 1.2018                 1.5894
 IR Inten    --     24.1227                15.7212                 5.3578

                     31                     32                     33
                      A                      A                      A
 Frequencies --    944.6680               971.5690               985.5801
 Red. masses --      2.5937                 2.8976                 1.9148
 Frc consts  --      1.3637                 1.6115                 1.0959
 IR Inten    --      0.6173                13.9999                 3.3595

                     34                     35                     36
                      A                      A                      A
 Frequencies --    996.8776              1009.6814              1012.6547
 Red. masses --      1.7645                 1.9827                 1.6286
 Frc consts  --      1.0331                 1.1909                 0.9840
 IR Inten    --      2.0221                33.8390                 0.7023

                     37                     38                     39
                      A                      A                      A
 Frequencies --   1048.1359              1077.0282              1089.4590
 Red. masses --      3.5928                 1.7989                 2.1275
 Frc consts  --      2.3255                 1.2294                 1.4878
 IR Inten    --      3.4221                24.1404                 4.7948

                     40                     41                     42
                      A                      A                      A
 Frequencies --   1118.1343              1127.0173              1148.5802
 Red. masses --      2.8186                 1.9619                 2.5574
 Frc consts  --      2.0762                 1.4682                 1.9878
 IR Inten    --      8.9314                 9.3896                15.7810

                     43                     44                     45
                      A                      A                      A
 Frequencies --   1177.5513              1197.0148              1208.6936
 Red. masses --      1.5951                 1.4124                 1.6280
 Frc consts  --      1.3032                 1.1924                 1.4013
 IR Inten    --      8.2944                21.6341                10.0649

                     46                     47                     48
                      A                      A                      A
 Frequencies --   1215.5733              1226.5496              1232.8553
 Red. masses --      1.2524                 1.6932                 1.3443
 Frc consts  --      1.0903                 1.5009                 1.2039
 IR Inten    --      2.1718                28.5056                16.9179

                     49                     50                     51
                      A                      A                      A
 Frequencies --   1261.3806              1266.2109              1285.3368
 Red. masses --      1.2368                 1.2113                 1.6146
 Frc consts  --      1.1595                 1.1442                 1.5716
 IR Inten    --     16.1497                 6.4865                11.8493

                     52                     53                     54
                      A                      A                      A
 Frequencies --   1288.9474              1292.6884              1323.0147
 Red. masses --      1.3253                 1.3086                 1.5682
 Frc consts  --      1.2972                 1.2884                 1.6172
 IR Inten    --     18.2062                 9.3745                14.0932

                     55                     56                     57
                      A                      A                      A
 Frequencies --   1349.8055              1351.3841              1357.1415
 Red. masses --      1.5957                 1.4677                 1.6716
 Frc consts  --      1.7129                 1.5792                 1.8140
 IR Inten    --     10.0887                13.8678                 6.6948

                     58                     59                     60
                      A                      A                      A
 Frequencies --   1380.6216              1398.9316              1407.1007
 Red. masses --      1.7830                 1.4933                 1.3861
 Frc consts  --      2.0024                 1.7219                 1.6169
 IR Inten    --      8.6059                 4.1341                17.7858

                     61                     62                     63
                      A                      A                      A
 Frequencies --   1413.4309              1422.3504              1448.2868
 Red. masses --      2.2958                 1.7150                 1.7848
 Frc consts  --      2.7024                 2.0442                 2.2057
 IR Inten    --     18.2190                 5.7265                51.0967

                     64                     65                     66
                      A                      A                      A
 Frequencies --   1452.0297              1487.4932              1506.5337
 Red. masses --      1.3910                 1.9642                 1.2453
 Frc consts  --      1.7279                 2.5606                 1.6652
 IR Inten    --      7.4512                45.3954                 2.9820

                     67                     68                     69
                      A                      A                      A
 Frequencies --   1514.6546              1526.5733              1541.5470
 Red. masses --      1.0962                 1.0878                 1.0922
 Frc consts  --      1.4817                 1.4936                 1.5292
 IR Inten    --      2.5648                 1.1998                 3.5170

                     70                     71                     72
                      A                      A                      A
 Frequencies --   1544.4720              1561.9709              1568.9320
 Red. masses --      1.2640                 1.1129                 8.3217
 Frc consts  --      1.7764                 1.5997                12.0690
 IR Inten    --      7.9104                 2.8648                28.2583

                     73                     74                     75
                      A                      A                      A
 Frequencies --   1609.8639              2942.7507              2959.8039
 Red. masses --      5.8130                 1.0733                 1.0751
 Frc consts  --      8.8763                 5.4761                 5.5491
 IR Inten    --     15.2198                66.5740               101.4684

                     76                     77                     78
                      A                      A                      A
 Frequencies --   3003.5091              3032.0770              3042.6309
 Red. masses --      1.0835                 1.0687                 1.0837
 Frc consts  --      5.7589                 5.7889                 5.9108
 IR Inten    --     57.4379                48.4106                21.1435

                     79                     80                     81
                      A                      A                      A
 Frequencies --   3067.7243              3069.6013              3069.7752
 Red. masses --      1.0603                 1.0824                 1.0636
 Frc consts  --      5.8793                 6.0089                 5.9051
 IR Inten    --     25.4675                55.3056                21.8908

                     82                     83                     84
                      A                      A                      A
 Frequencies --   3074.7696              3075.5056              3106.9795
 Red. masses --      1.0654                 1.0953                 1.1045
 Frc consts  --      5.9345                 6.1042                 6.2821
 IR Inten    --     39.6507                20.5097                18.8940

                     85                     86                     87
                      A                      A                      A
 Frequencies --   3116.2093              3118.8996              3120.1957
 Red. masses --      1.0936                 1.1014                 1.1053
 Frc consts  --      6.2567                 6.3122                 6.3401
 IR Inten    --     28.2243                40.8890                33.4288

                     88                     89                     90
                      A                      A                      A
 Frequencies --   3283.1501              3513.3897              3750.8011
 Red. masses --      1.0972                 1.0749                 1.0663
 Frc consts  --      6.9679                 7.8178                 8.8382
 IR Inten    --      2.3681                 2.8455                14.1850

 - Thermochemistry -
 -------------------
 Temperature   298.150 Kelvin.  Pressure   1.00000 Atm.
 Atom     1 has atomic number  6 and mass  12.00000

 Molecular mass:   207.13716 amu.
 Principal axes and moments of inertia in atomic units:
                           1         2         3
     Eigenvalues --  1037.396476384.981486836.35394
           X            0.99997   0.00211   0.00726
           Y           -0.00214   0.99999   0.00361
           Z           -0.00725  -0.00363   0.99997
 This molecule is an asymmetric top.
 Rotational symmetry number  1.
 Warning -- assumption of classical behavior for rotation
           may cause significant error
 Rotational temperatures (Kelvin)      0.08349     0.01357     0.01267
 Rotational constants (GHZ):           1.73968     0.28265     0.26399
 Zero-point vibrational energy     736761.3 (Joules/Mol)
                                  176.09017 (Kcal/Mol)
 Warning -- explicit consideration of  19 degrees of freedom as
           vibrations may cause significant error
 Vibrational temperatures:     33.17    55.78    78.19   152.52   182.56
          (Kelvin)            217.44   319.18   347.45   402.07   406.74
                              428.59   493.97   550.46   571.73   681.25
                              758.34   769.72   874.62   890.16   942.38
                              991.32  1030.01  1056.20  1099.03  1148.84
                             1224.88  1234.50  1254.40  1301.11  1337.99
                             1359.17  1397.87  1418.03  1434.28  1452.71
                             1456.98  1508.03  1549.60  1567.49  1608.75
                             1621.53  1652.55  1694.23  1722.24  1739.04
                             1748.94  1764.73  1773.80  1814.85  1821.80
                             1849.31  1854.51  1859.89  1903.52  1942.07
                             1944.34  1952.62  1986.41  2012.75  2024.50
                             2033.61  2046.45  2083.76  2089.15  2140.17
                             2167.57  2179.25  2196.40  2217.94  2222.15
                             2247.33  2257.34  2316.24  4233.96  4258.50
                             4321.38  4362.48  4377.67  4413.77  4416.47
                             4416.72  4423.91  4424.97  4470.25  4483.53
                             4487.40  4489.27  4723.72  5054.98  5396.57

 Zero-point correction=                           0.280618 (Hartree/Particle)
 Thermal correction to Energy=                    0.293954
 Thermal correction to Enthalpy=                  0.294898
 Thermal correction to Gibbs Free Energy=         0.238997
 Sum of electronic and zero-point Energies=           -668.648230
 Sum of electronic and thermal Energies=              -668.634893
 Sum of electronic and thermal Enthalpies=            -668.633949
 Sum of electronic and thermal Free Energies=         -668.689850

                     E (Thermal)             CV                S
                      KCal/Mol        Cal/Mol-Kelvin    Cal/Mol-Kelvin
 Total                  184.459             51.753            117.652
 Electronic               0.000              0.000              0.000
 Translational            0.889              2.981             41.889
 Rotational               0.889              2.981             32.182
 Vibrational            182.681             45.792             43.581
 Vibration     1          0.593              1.985              6.352
 Vibration     2          0.594              1.981              5.321
 Vibration     3          0.596              1.976              4.653
 Vibration     4          0.605              1.944              3.341
 Vibration     5          0.611              1.926              2.993
 Vibration     6          0.619              1.901              2.658
 Vibration     7          0.648              1.808              1.944
 Vibration     8          0.658              1.777              1.792
 Vibration     9          0.680              1.712              1.537
 Vibration    10          0.682              1.706              1.517
 Vibration    11          0.691              1.678              1.429
 Vibration    12          0.722              1.589              1.197
 Vibration    13          0.752              1.507              1.029
 Vibration    14          0.764              1.476              0.972
 Vibration    15          0.830              1.309              0.728
 Vibration    16          0.882              1.190              0.594
 Vibration    17          0.890              1.173              0.576
 Vibration    18          0.967              1.015              0.436
 Vibration    19          0.979              0.992              0.419

                           ! Non-Optimized Parameters !
 Normal termination of Gaussian 16 at Thu Dec 10 16:47:56 2020.

 ----------------------------------------------------------------------
 # B3LYP/6-311++G(d,p) empiricaldispersion=gd3bj scf=xqc pop=npa geom=c
 heck
 ----------------------------------------------------------------------

 ---------------------------------------
 CID_117156424_JID_5561_Energie_neutraal
 ---------------------------------------
 Structure from the checkpoint file:  "JID_5561.chk"
 Charge =  0 Multiplicity = 1

 SCF Done:  E(RB3LYP) =  -669.121761317     A.U. after   14 cycles
 Normal termination of Gaussian 16 at Thu Dec 10 16:52:59 2020.

 ----------------------------------------------------------------------
 # B3LYP/6-311++G(d,p) empiricaldispersion=gd3bj scf=xqc pop=npa geom=c
 heck
 ----------------------------------------------------------------------

 -------------------------------------
 CID_117156424_JID_5561_Energie_kation
 -------------------------------------
 Structure from the checkpoint file:  "JID_5561.chk"
 Charge =  1 Multiplicity = 2

 SCF Done:  E(UB3LYP) =  -668.843270936     A.U. after   26 cycles
 Normal termination of Gaussian 16 at Thu Dec 10 17:11:17 2020.
 Gaussian 16:  ES64L-G16RevA.03 25-Dec-2016

 ----------------------------------------------------------------------
 # B3LYP/6-311++G(d,p) empiricaldispersion=gd3bj scf=xqc pop=npa geom=c
 heck
 ----------------------------------------------------------------------

 ------------------------------------
 CID_117156424_JID_5561_Energie_anion
 ------------------------------------
 Structure from the checkpoint file:  "JID_5561.chk"
 Charge = -1 Multiplicity = 2

                         Standard orientation:
 ---------------------------------------------------------------------
 Center     Atomic      Atomic             Coordinates (Angstroms)
 Number     Number       Type             X           Y           Z
 ---------------------------------------------------------------------
      1          6           0        3.180008    1.167254   -0.062431
      2          6           0        4.449499    0.535356    0.568890
      3          7           0        4.356805   -0.890603    0.223871
      4          6           0        2.929879   -1.212424    0.232951
      5          6           0        2.345298   -0.036296   -0.567770
      6          6           0        0.862203    0.106184   -0.442706
      7          6           0        0.108797    1.213570   -0.128723
      8          7           0       -1.212128    0.801369   -0.173143
      9          6           0       -2.388128    1.563395    0.231892
     10          6           0       -3.661698    0.876088   -0.266309
     11          6           0       -3.643896   -0.617482    0.068051
     12          6           0       -2.472318   -1.301514   -0.651260
     13          6           0       -1.199751   -0.530910   -0.489426
     14          7           0        0.028750   -0.977281   -0.668471
     15          8           0       -3.528912   -0.705913    1.487249
     16          1           0        2.625151    1.728256    0.696311
     17          1           0        3.420550    1.860363   -0.873470
     18          1           0        5.377726    0.962359    0.172549
     19          1           0        4.445421    0.713738    1.658626
     20          1           0        4.884828   -1.468998    0.872710
     21          1           0        2.479325   -1.227049    1.243651
     22          1           0        2.734067   -2.178748   -0.239328
     23          1           0        2.599300   -0.218696   -1.619808
     24          1           0        0.370984    2.233843    0.106231
     25          1           0       -2.310270    2.576637   -0.175344
     26          1           0       -2.410767    1.631703    1.324376
     27          1           0       -3.759804    0.994612   -1.351845
     28          1           0       -4.528273    1.351430    0.203763
     29          1           0       -4.586825   -1.077259   -0.265678
     30          1           0       -2.329681   -2.324995   -0.282971
     31          1           0       -2.721812   -1.396409   -1.717935
     32          1           0       -3.331968   -1.627189    1.715420
 ---------------------------------------------------------------------

 SCF Done:  E(UB3LYP) =  -669.110869669     A.U. after   32 cycles

 The electronic state is 2-A.
 Alpha  occ. eigenvalues --  -19.02214 -14.26121 -14.20639 -14.18265 -10.12634
 Alpha  occ. eigenvalues --  -10.12201 -10.11372 -10.10302 -10.09264 -10.08867
 Alpha  occ. eigenvalues --  -10.08550 -10.08047 -10.07910 -10.07698 -10.07617
 Alpha  occ. eigenvalues --   -0.92823  -0.91191  -0.82762  -0.78509  -0.70863
 Alpha  occ. eigenvalues --   -0.68752  -0.65136  -0.63241  -0.61737  -0.55890
 Alpha  occ. eigenvalues --   -0.51556  -0.50957  -0.49597  -0.45951  -0.44866
 Alpha  occ. eigenvalues --   -0.42484  -0.40646  -0.39628  -0.39001  -0.37325
 Alpha  occ. eigenvalues --   -0.35641  -0.34959  -0.34102  -0.33721  -0.32004
 Alpha  occ. eigenvalues --   -0.30924  -0.29801  -0.28529  -0.27992  -0.26997
 Alpha  occ. eigenvalues --   -0.26591  -0.26210  -0.25294  -0.24231  -0.23461
 Alpha  occ. eigenvalues --   -0.22803  -0.18147  -0.16773  -0.16220  -0.13847
 Alpha  occ. eigenvalues --   -0.11776   0.04165
 Alpha virt. eigenvalues --    0.05649   0.06714   0.07777   0.07803   0.08428
 Alpha virt. eigenvalues --    0.08814   0.09591   0.09844   0.10273   0.10831
 Alpha virt. eigenvalues --    0.11183   0.11986   0.12074   0.13126   0.13184

  Beta  occ. eigenvalues --  -19.02175 -14.26119 -14.20631 -14.18259 -10.12609
  Beta  occ. eigenvalues --  -10.12201 -10.11347 -10.10290 -10.09258 -10.08859
  Beta  occ. eigenvalues --  -10.08550 -10.08046 -10.07882 -10.07691 -10.07588
  Beta  occ. eigenvalues --   -0.92749  -0.91171  -0.82750  -0.78495  -0.70816
  Beta  occ. eigenvalues --   -0.68729  -0.65098  -0.63215  -0.61700  -0.55831
  Beta  occ. eigenvalues --   -0.51538  -0.50909  -0.49550  -0.45931  -0.44794
  Beta  occ. eigenvalues --   -0.42450  -0.40612  -0.39570  -0.38965  -0.37289
  Beta  occ. eigenvalues --   -0.35593  -0.34924  -0.34072  -0.33694  -0.31960
  Beta  occ. eigenvalues --   -0.30904  -0.29771  -0.28510  -0.27972  -0.26946
  Beta  occ. eigenvalues --   -0.26551  -0.26180  -0.25274  -0.24215  -0.23447
  Beta  occ. eigenvalues --   -0.22744  -0.18094  -0.16751  -0.16206  -0.13829
  Beta  occ. eigenvalues --   -0.11762
  Beta virt. eigenvalues --    0.05895   0.06871   0.07495   0.08071   0.08469
  Beta virt. eigenvalues --    0.08757   0.09306   0.10105   0.10271   0.10536
  Beta virt. eigenvalues --    0.11018   0.11273   0.12134   0.12342   0.13319

 Mulliken charges and spin densities:
               1          2
     1  C   -0.232457  -0.163838
     2  C    0.285708  -0.669072
     3  N   -0.176048   0.078801
     4  C   -0.374268  -0.268923
     5  C   -0.026124   0.010958
     6  C    1.498001  -1.372337
     7  C   -1.413303   1.274409
     8  N    0.038994   0.121758
     9  C    0.977502  -1.285894
    10  C   -0.361959  -0.081840
    11  C    0.121760  -0.208376
    12  C    0.680016  -1.272120
    13  C   -0.144545   0.048210
    14  N   -0.118503   0.136082
    15  O   -0.197167   0.000131
    16  H    0.223589  -0.109498
    17  H    0.016522   0.113740
    18  H    0.017101   0.137457
    19  H   -0.144172   0.271371
    20  H    0.122890   0.104543
    21  H   -0.022266   0.179404
    22  H    0.174400   0.015751
    23  H    0.200063   0.024150
    24  H   -0.409456   0.575565
    25  H   -0.319893   0.481132
    26  H    0.142325   0.067131
    27  H   -0.202831   0.359396
    28  H   -0.219467   0.426261
    29  H   -0.868061   1.100050
    30  H   -0.079129   0.281332
    31  H   -0.139372   0.322781
    32  H   -0.049850   0.301483
 Sum of Mulliken charges =  -1.00000   1.00000

 Dipole moment (field-independent basis, Debye):
    X=              6.3584    Y=              1.1997    Z=              0.2777  Tot=              6.4765
 Quadrupole moment (field-independent basis, Debye-Ang):
   XX=           -184.5734   YY=           -128.5035   ZZ=           -122.5265
   XY=             -3.8423   XZ=              0.0603   YZ=             -0.3504

 Summary of Natural Population Analysis:

                                       Natural Population
                Natural  -----------------------------------------------
    Atom  No    Charge         Core      Valence    Rydberg      Total
 -----------------------------------------------------------------------
      C    1   -0.19074      0.99963     2.18453    0.00658     3.19074
      C    2   -0.08702      0.99965     2.07784    0.00953     3.08702
      N    3   -0.34498      0.99975     2.83400    0.01123     3.84498
      C    4   -0.08095      0.99962     2.07137    0.00996     3.08095
      C    5   -0.12429      0.99956     2.11385    0.01088     3.12429
      C    6    0.05841      0.99953     1.92783    0.01424     2.94159
      C    7   -0.03945      0.99948     2.02940    0.01057     3.03945
      N    8   -0.20648      0.99961     2.69710    0.00978     3.70648
      C    9   -0.07918      0.99960     2.06839    0.01119     3.07918
      C   10   -0.19972      0.99961     2.19071    0.00941     3.19972
      C   11    0.06712      0.99957     1.91802    0.01529     2.93288
      C   12   -0.22094      0.99958     2.21097    0.01040     3.22094
      C   13    0.20465      0.99959     1.77870    0.01706     2.79535
      N   14   -0.26668      0.99968     2.75781    0.00919     3.76668
      O   15   -0.37579      0.99989     3.36905    0.00685     4.37579
      H   16    0.09940      0.00000     0.39900    0.00160     0.40060
      H   17    0.09912      0.00000     0.39978    0.00110     0.40088
      H   18    0.08924      0.00000     0.40903    0.00172     0.41076
      H   19    0.07837      0.00000     0.41936    0.00227     0.42163
      H   20    0.17423      0.00000     0.32402    0.00175     0.32577
      H   21    0.08013      0.00000     0.41815    0.00171     0.41987
      H   22    0.10041      0.00000     0.39807    0.00152     0.39959
      H   23    0.10447      0.00000     0.39381    0.00172     0.39553
      H   24    0.10309      0.00000     0.39585    0.00106     0.39691
      H   25    0.10042      0.00000     0.39791    0.00167     0.39958
      H   26    0.10243      0.00000     0.39600    0.00157     0.39757
      H   27    0.10345      0.00000     0.39436    0.00219     0.39655
      H   28    0.10855      0.00000     0.39007    0.00138     0.39145
      H   29    0.08592      0.00000     0.40979    0.00428     0.41408
      H   30    0.11128      0.00000     0.38705    0.00167     0.38872
      H   31    0.11231      0.00000     0.38601    0.00168     0.38769
      H   32    0.23323      0.00000     0.26195    0.00483     0.26677
 =======================================================================
   * Total *    0.00000     14.99436    40.80978    0.19587    56.00000

 Normal termination of Gaussian 16 at Thu Dec 10 17:29:08 2020.
