 Gaussian 16, Revision A.03,

 -----------------------------------------------------------
 # opt freq B3LYP/6-31G(d) empiricaldispersion=gd3bj scf=xqc
 -----------------------------------------------------------

 ------------------------------
 CID_77022224_JID_9332_neutraal
 ------------------------------
 Symbolic Z-matrix:
 Charge =  0 Multiplicity = 1

 SCF Done:  E(RB3LYP) =  -900.537016475     A.U. after   14 cycles
 SCF Done:  E(RB3LYP) =  -900.540759586     A.U. after   14 cycles
 SCF Done:  E(RB3LYP) =  -900.537937274     A.U. after   13 cycles
 SCF Done:  E(RB3LYP) =  -900.542158282     A.U. after   12 cycles
 SCF Done:  E(RB3LYP) =  -900.543476164     A.U. after   12 cycles
 SCF Done:  E(RB3LYP) =  -900.544278528     A.U. after   14 cycles
 SCF Done:  E(RB3LYP) =  -900.545000844     A.U. after   15 cycles
 SCF Done:  E(RB3LYP) =  -900.546003296     A.U. after   12 cycles
 SCF Done:  E(RB3LYP) =  -900.546591802     A.U. after   12 cycles
 SCF Done:  E(RB3LYP) =  -900.547254200     A.U. after   12 cycles
 SCF Done:  E(RB3LYP) =  -900.548024572     A.U. after    9 cycles
 SCF Done:  E(RB3LYP) =  -900.548025303     A.U. after    9 cycles
 SCF Done:  E(RB3LYP) =  -900.548025872     A.U. after    9 cycles
 SCF Done:  E(RB3LYP) =  -900.548025998     A.U. after    7 cycles
 Optimization completed.
    -- Stationary point found.
 Normal termination of Gaussian 16 at Sun Dec 13 20:30:26 2020.

 --------------------------------------------------------------------
 #N Geom=AllCheck Guess=TCheck SCRF=Check GenChk RB3LYP/6-31G(d) Freq
 --------------------------------------------------------------------

 Structure from the checkpoint file:  "JID_9332.chk"
 ------------------------------
 CID_77022224_JID_9332_neutraal
 ------------------------------
 Charge =  0 Multiplicity = 1

 SCF Done:  E(RB3LYP) =  -900.548025998     A.U. after    1 cycles

  Exact polarizability: 202.705  41.916 136.061   4.154   4.561 165.209
 Approx polarizability: 281.586  73.613 197.291   9.457  10.313 273.576

                      1                      2                      3
                      A                      A                      A
 Frequencies --     14.5180                26.2738                36.8044
 Red. masses --      5.6944                 3.9114                 3.1338
 Frc consts  --      0.0007                 0.0016                 0.0025
 IR Inten    --      0.0173                 0.2498                 2.0012

                      4                      5                      6
                      A                      A                      A
 Frequencies --     49.9861                57.9681                80.4068
 Red. masses --      3.2189                 3.8713                 3.0066
 Frc consts  --      0.0047                 0.0077                 0.0115
 IR Inten    --      0.1842                 0.2859                 1.5473

                      7                      8                      9
                      A                      A                      A
 Frequencies --     91.7645               112.3591               123.9779
 Red. masses --      1.9284                 2.4385                 2.9489
 Frc consts  --      0.0096                 0.0181                 0.0267
 IR Inten    --      0.9935                 1.6732                 0.2388

                     10                     11                     12
                      A                      A                      A
 Frequencies --    151.9651               196.2723               199.8579
 Red. masses --      4.5723                 3.5893                 1.6863
 Frc consts  --      0.0622                 0.0815                 0.0397
 IR Inten    --      0.7400                 4.2462                 0.3099

                     13                     14                     15
                      A                      A                      A
 Frequencies --    214.6551               247.3180               271.9534
 Red. masses --      5.3557                 4.0247                 4.3942
 Frc consts  --      0.1454                 0.1450                 0.1915
 IR Inten    --      2.6719                 1.2761                 2.0594

                     16                     17                     18
                      A                      A                      A
 Frequencies --    274.4240               315.7342               333.1963
 Red. masses --      3.5806                 4.4394                 3.3490
 Frc consts  --      0.1589                 0.2607                 0.2191
 IR Inten    --      3.6727                24.1750                 4.1352

                     19                     20                     21
                      A                      A                      A
 Frequencies --    364.2574               384.5440               416.9143
 Red. masses --      3.7679                 1.3066                 2.1930
 Frc consts  --      0.2946                 0.1138                 0.2246
 IR Inten    --      0.8318                82.2868                 2.5810

                     22                     23                     24
                      A                      A                      A
 Frequencies --    445.3964               471.7867               479.3390
 Red. masses --      5.6357                 2.9252                 3.4993
 Frc consts  --      0.6587                 0.3836                 0.4737
 IR Inten    --      3.5002                35.8273                 7.6670

                     25                     26                     27
                      A                      A                      A
 Frequencies --    506.6357               521.8192               538.8213
 Red. masses --      3.6025                 3.3368                 3.6853
 Frc consts  --      0.5448                 0.5353                 0.6304
 IR Inten    --      6.4685                 2.9012                 1.9136

                     28                     29                     30
                      A                      A                      A
 Frequencies --    553.8330               616.2094               658.9459
 Red. masses --      3.4577                 4.6134                 4.6346
 Frc consts  --      0.6249                 1.0321                 1.1857
 IR Inten    --      5.8430                10.9057                 2.0099

                     31                     32                     33
                      A                      A                      A
 Frequencies --    674.3659               706.9753               735.7555
 Red. masses --      4.9278                 3.2753                 3.0323
 Frc consts  --      1.3204                 0.9645                 0.9671
 IR Inten    --      6.9523                 4.7910                10.1287

                     34                     35                     36
                      A                      A                      A
 Frequencies --    800.7963               803.1875               830.1392
 Red. masses --      1.1577                 1.3597                 3.1973
 Frc consts  --      0.4374                 0.5168                 1.2982
 IR Inten    --      2.2894                45.1816                 4.5073

                     37                     38                     39
                      A                      A                      A
 Frequencies --    837.8342               858.7341               895.0634
 Red. masses --      2.9124                 2.3317                 2.7367
 Frc consts  --      1.2045                 1.0131                 1.2918
 IR Inten    --      0.6722                 1.8477                11.9430

                     40                     41                     42
                      A                      A                      A
 Frequencies --    917.1042               955.6700               962.5644
 Red. masses --      1.3641                 4.7273                 3.9842
 Frc consts  --      0.6760                 2.5438                 2.1749
 IR Inten    --      4.6529               181.9000                29.9165

                     43                     44                     45
                      A                      A                      A
 Frequencies --    973.3263               977.0231              1003.8614
 Red. masses --      3.7928                 1.2712                 3.0172
 Frc consts  --      2.1170                 0.7149                 1.7914
 IR Inten    --     20.7669                 3.9010                36.3024

                     46                     47                     48
                      A                      A                      A
 Frequencies --   1010.2610              1040.1321              1057.8862
 Red. masses --      2.8609                 1.9041                 4.1453
 Frc consts  --      1.7203                 1.2137                 2.7332
 IR Inten    --     38.1291                 3.8136                 3.0869

                     49                     50                     51
                      A                      A                      A
 Frequencies --   1095.9407              1105.1214              1121.3483
 Red. masses --      4.3431                 2.2310                 2.1716
 Frc consts  --      3.0734                 1.6053                 1.6089
 IR Inten    --     34.0444                 7.3974                75.5400

                     52                     53                     54
                      A                      A                      A
 Frequencies --   1132.7496              1144.2259              1167.9639
 Red. masses --      3.0828                 2.2894                 3.6616
 Frc consts  --      2.3305                 1.7660                 2.9430
 IR Inten    --     42.8267                27.6828                76.2759

                     55                     56                     57
                      A                      A                      A
 Frequencies --   1177.8394              1188.5488              1203.7949
 Red. masses --      1.1805                 1.3994                 2.4692
 Frc consts  --      0.9649                 1.1648                 2.1082
 IR Inten    --      1.9302                14.2027                90.8553

                     58                     59                     60
                      A                      A                      A
 Frequencies --   1207.7924              1218.0686              1240.7975
 Red. masses --      1.6057                 1.7879                 1.6401
 Frc consts  --      1.3801                 1.5630                 1.4877
 IR Inten    --      1.3801                22.6161                10.6526

                     61                     62                     63
                      A                      A                      A
 Frequencies --   1247.4791              1280.1507              1299.2126
 Red. masses --      1.2140                 1.5326                 1.4578
 Frc consts  --      1.1131                 1.4798                 1.4498
 IR Inten    --      3.2572               112.7904                21.4019

                     64                     65                     66
                      A                      A                      A
 Frequencies --   1304.1651              1315.6049              1325.0793
 Red. masses --      1.4752                 2.4472                 1.4837
 Frc consts  --      1.4783                 2.4956                 1.5349
 IR Inten    --     14.1989                49.5839               100.5542

                     67                     68                     69
                      A                      A                      A
 Frequencies --   1332.9109              1341.5274              1355.0494
 Red. masses --      1.6518                 1.3197                 1.1418
 Frc consts  --      1.7290                 1.3993                 1.2352
 IR Inten    --      7.9704                66.2962                15.9120

                     70                     71                     72
                      A                      A                      A
 Frequencies --   1367.2396              1390.3761              1409.4800
 Red. masses --      1.2092                 3.3906                 1.4144
 Frc consts  --      1.3318                 3.8619                 1.6556
 IR Inten    --     15.6836                12.0694                53.3755

                     73                     74                     75
                      A                      A                      A
 Frequencies --   1423.0505              1433.4064              1455.0112
 Red. masses --      1.2819                 1.3381                 1.3181
 Frc consts  --      1.5295                 1.6199                 1.6441
 IR Inten    --      8.8762                19.9962                 5.3664

                     76                     77                     78
                      A                      A                      A
 Frequencies --   1487.5301              1501.4176              1505.5526
 Red. masses --      2.2366                 1.1260                 1.1958
 Frc consts  --      2.9158                 1.4956                 1.5970
 IR Inten    --      0.8089                 1.6254                 1.4895

                     79                     80                     81
                      A                      A                      A
 Frequencies --   1507.6188              1519.5970              1521.3569
 Red. masses --      1.0875                 1.1337                 1.0812
 Frc consts  --      1.4563                 1.5424                 1.4744
 IR Inten    --      2.6796                16.9958                 0.6734

                     82                     83                     84
                      A                      A                      A
 Frequencies --   1525.4266              1527.9372              1531.7181
 Red. masses --      1.1415                 1.0906                 2.3435
 Frc consts  --      1.5650                 1.5001                 3.2395
 IR Inten    --      4.5494                 1.7447                74.8441

                     85                     86                     87
                      A                      A                      A
 Frequencies --   1537.6990              1543.4150              1642.0142
 Red. masses --      1.0766                 1.0858                 6.2712
 Frc consts  --      1.4999                 1.5239                 9.9622
 IR Inten    --      3.1287                11.2306                67.2249

                     88                     89                     90
                      A                      A                      A
 Frequencies --   1655.5411              1734.5457              2985.6688
 Red. masses --      7.5687                 8.3853                 1.0645
 Frc consts  --     12.2223                14.8642                 5.5907
 IR Inten    --      6.9925                18.3926                33.8379

                     91                     92                     93
                      A                      A                      A
 Frequencies --   2997.7434              3028.5516              3045.0271
 Red. masses --      1.0452                 1.0594                 1.1001
 Frc consts  --      5.5338                 5.7253                 6.0096
 IR Inten    --     54.1181                40.2189                58.4221

                     94                     95                     96
                      A                      A                      A
 Frequencies --   3049.0306              3053.5724              3065.7639
 Red. masses --      1.0677                 1.0614                 1.0698
 Frc consts  --      5.8483                 5.8311                 5.9244
 IR Inten    --     23.4574                47.4518                15.1853

                     97                     98                     99
                      A                      A                      A
 Frequencies --   3073.5423              3080.5391              3092.6036
 Red. masses --      1.0634                 1.1023                 1.0931
 Frc consts  --      5.9186                 6.1633                 6.1598
 IR Inten    --     21.6566                67.2824                21.7322

                    100                    101                    102
                      A                      A                      A
 Frequencies --   3105.3570              3107.9000              3123.6594
 Red. masses --      1.0916                 1.1071                 1.0988
 Frc consts  --      6.2023                 6.3005                 6.3165
 IR Inten    --     21.0344                24.6395                18.6862

                    103                    104                    105
                      A                      A                      A
 Frequencies --   3132.9106              3138.6879              3194.2544
 Red. masses --      1.1058                 1.0980                 1.0894
 Frc consts  --      6.3950                 6.3730                 6.5491
 IR Inten    --     30.2073                34.4771                16.0858

                    106                    107                    108
                      A                      A                      A
 Frequencies --   3236.3955              3273.2991              3763.5836
 Red. masses --      1.0916                 1.0923                 1.0678
 Frc consts  --      6.7364                 6.8955                 8.9112
 IR Inten    --      0.7781                 1.7727                85.7237

 - Thermochemistry -
 -------------------
 Temperature   298.150 Kelvin.  Pressure   1.00000 Atm.
 Atom     1 has atomic number  6 and mass  12.00000

 Molecular mass:   265.13141 amu.
 Principal axes and moments of inertia in atomic units:
                           1         2         3
     Eigenvalues --  3194.362219541.23203**********
           X            0.99999  -0.00338   0.00267
           Y            0.00345   0.99968  -0.02499
           Z           -0.00258   0.02500   0.99968
 This molecule is an asymmetric top.
 Rotational symmetry number  1.
 Warning -- assumption of classical behavior for rotation
           may cause significant error
 Rotational temperatures (Kelvin)      0.02711     0.00908     0.00847
 Rotational constants (GHZ):           0.56498     0.18915     0.17657
 Zero-point vibrational energy     839611.1 (Joules/Mol)
                                  200.67187 (Kcal/Mol)
 Warning -- explicit consideration of  29 degrees of freedom as
           vibrations may cause significant error
 Vibrational temperatures:     20.89    37.80    52.95    71.92    83.40
          (Kelvin)            115.69   132.03   161.66   178.38   218.64
                              282.39   287.55   308.84   355.84   391.28
                              394.83   454.27   479.40   524.09   553.27
                              599.85   640.83   678.80   689.66   728.94
                              750.78   775.24   796.84   886.59   948.08
                              970.26  1017.18  1058.59  1152.17  1155.61
                             1194.39  1205.46  1235.53  1287.80  1319.51
                             1375.00  1384.92  1400.40  1405.72  1444.33
                             1453.54  1496.52  1522.06  1576.81  1590.02
                             1613.37  1629.77  1646.29  1680.44  1694.65
                             1710.06  1731.99  1737.74  1752.53  1785.23
                             1794.84  1841.85  1869.28  1876.40  1892.86
                             1906.49  1917.76  1930.16  1949.61  1967.15
                             2000.44  2027.93  2047.45  2062.35  2093.44
                             2140.22  2160.21  2166.15  2169.13  2186.36
                             2188.89  2194.75  2198.36  2203.80  2212.41
                             2220.63  2362.49  2381.95  2495.62  4295.71
                             4313.08  4357.41  4381.11  4386.88  4393.41
                             4410.95  4422.14  4432.21  4449.57  4467.92
                             4471.57  4494.25  4507.56  4515.87  4595.82
                             4656.45  4709.55  5414.96

 Zero-point correction=                           0.319791 (Hartree/Particle)
 Thermal correction to Energy=                    0.338683
 Thermal correction to Enthalpy=                  0.339627
 Thermal correction to Gibbs Free Energy=         0.269593
 Sum of electronic and zero-point Energies=           -900.228235
 Sum of electronic and thermal Energies=              -900.209343
 Sum of electronic and thermal Enthalpies=            -900.208399
 Sum of electronic and thermal Free Energies=         -900.278433

                     E (Thermal)             CV                S
                      KCal/Mol        Cal/Mol-Kelvin    Cal/Mol-Kelvin
 Total                  212.527             69.711            147.398
 Electronic               0.000              0.000              0.000
 Translational            0.889              2.981             42.624
 Rotational               0.889              2.981             34.098
 Vibrational            210.749             63.749             70.675
 Vibration     1          0.593              1.986              7.270
 Vibration     2          0.593              1.985              6.093
 Vibration     3          0.594              1.982              5.424
 Vibration     4          0.595              1.978              4.818
 Vibration     5          0.596              1.974              4.525
 Vibration     6          0.600              1.962              3.881
 Vibration     7          0.602              1.955              3.622
 Vibration     8          0.607              1.939              3.228
 Vibration     9          0.610              1.929              3.037
 Vibration    10          0.619              1.900              2.647
 Vibration    11          0.636              1.845              2.168
 Vibration    12          0.638              1.840              2.134
 Vibration    13          0.645              1.819              2.004
 Vibration    14          0.661              1.767              1.750
 Vibration    15          0.675              1.725              1.584
 Vibration    16          0.677              1.721              1.568
 Vibration    17          0.703              1.644              1.332
 Vibration    18          0.715              1.609              1.245
 Vibration    19          0.738              1.546              1.104
 Vibration    20          0.753              1.503              1.021
 Vibration    21          0.780              1.433              0.903
 Vibration    22          0.805              1.371              0.810
 Vibration    23          0.829              1.313              0.733
 Vibration    24          0.836              1.296              0.712
 Vibration    25          0.862              1.235              0.642
 Vibration    26          0.877              1.202              0.606
 Vibration    27          0.894              1.164              0.568
 Vibration    28          0.909              1.131              0.536
 Vibration    29          0.976              0.998              0.423

                           ! Non-Optimized Parameters !
 Normal termination of Gaussian 16 at Sun Dec 13 20:50:01 2020.

 ----------------------------------------------------------------------
 # B3LYP/6-311++G(d,p) empiricaldispersion=gd3bj scf=xqc pop=npa geom=c
 heck
 ----------------------------------------------------------------------

 --------------------------------------
 CID_77022224_JID_9332_Energie_neutraal
 --------------------------------------
 Structure from the checkpoint file:  "JID_9332.chk"
 Charge =  0 Multiplicity = 1

 SCF Done:  E(RB3LYP) =  -900.806633919     A.U. after   15 cycles
 Normal termination of Gaussian 16 at Sun Dec 13 20:59:10 2020.

 ----------------------------------------------------------------------
 # B3LYP/6-311++G(d,p) empiricaldispersion=gd3bj scf=xqc pop=npa geom=c
 heck
 ----------------------------------------------------------------------

 ------------------------------------
 CID_77022224_JID_9332_Energie_kation
 ------------------------------------
 Structure from the checkpoint file:  "JID_9332.chk"
 Charge =  1 Multiplicity = 2

 SCF Done:  E(UB3LYP) =  -900.517927069     A.U. after   33 cycles
 SCF Done:  E(UB3LYP) =  -900.517927071     a.u. after    2 cycles
 Normal termination of Gaussian 16 at Sun Dec 13 21:52:56 2020.
 Gaussian 16:  ES64L-G16RevA.03 25-Dec-2016

 ----------------------------------------------------------------------
 # B3LYP/6-311++G(d,p) empiricaldispersion=gd3bj scf=xqc pop=npa geom=c
 heck
 ----------------------------------------------------------------------

 -----------------------------------
 CID_77022224_JID_9332_Energie_anion
 -----------------------------------
 Structure from the checkpoint file:  "JID_9332.chk"
 Charge = -1 Multiplicity = 2

                         Standard orientation:
 ---------------------------------------------------------------------
 Center     Atomic      Atomic             Coordinates (Angstroms)
 Number     Number       Type             X           Y           Z
 ---------------------------------------------------------------------
      1          6           0        3.508887   -2.872705    1.019053
      2          8           0        3.972552   -2.465745   -0.253149
      3          6           0        4.130150   -1.064774   -0.385420
      4          6           0        2.800212   -0.347721   -0.631164
      5          8           0        3.023708    1.049034   -0.828477
      6          6           0        2.991911    1.831898    0.353204
      7          6           0        1.636865    2.480357    0.604271
      8          8           0        0.633483    1.534533    0.975761
      9          6           0       -0.271805    1.094432    0.042036
     10          6           0       -0.092632    1.150987   -1.344565
     11          6           0       -1.086023    0.649648   -2.194845
     12          6           0       -2.255759    0.079563   -1.699944
     13          6           0       -2.421983    0.021180   -0.308458
     14          6           0       -1.438458    0.526056    0.555137
     15          6           0       -1.800116    0.348663    2.008001
     16          6           0       -3.264757   -0.156641    1.967918
     17          6           0       -3.528242   -0.505430    0.507297
     18          7           0       -4.588271   -1.159811    0.203130
     19          8           0       -4.699060   -1.386415   -1.186420
     20          1           0        3.507531   -3.965605    1.020815
     21          1           0        2.488786   -2.521527    1.233076
     22          1           0        4.173970   -2.515333    1.821739
     23          1           0        4.631647   -0.642535    0.501880
     24          1           0        4.785160   -0.901651   -1.246653
     25          1           0        2.339480   -0.729809   -1.546015
     26          1           0        2.094982   -0.514087    0.190219
     27          1           0        3.275337    1.235535    1.231627
     28          1           0        3.737006    2.629235    0.235334
     29          1           0        1.728564    3.166933    1.454737
     30          1           0        1.316279    3.057685   -0.269568
     31          1           0        0.830088    1.538545   -1.758803
     32          1           0       -0.926394    0.700181   -3.268272
     33          1           0       -3.016593   -0.308937   -2.361586
     34          1           0       -1.688173    1.279816    2.573369
     35          1           0       -1.133224   -0.381558    2.484301
     36          1           0       -3.954833    0.635344    2.281268
     37          1           0       -3.443710   -1.014071    2.621692
     38          1           0       -5.522981   -1.893807   -1.237914
 ---------------------------------------------------------------------

 SCF Done:  E(UB3LYP) =  -900.801740975     A.U. after   33 cycles
 SCF Done:  E(UB3LYP) =  -900.801740974     a.u. after    1 cycles

 The electronic state is 2-A.
 Alpha  occ. eigenvalues --  -19.04360 -19.04294 -19.04155 -19.03464 -14.21766
 Alpha  occ. eigenvalues --  -10.12669 -10.12654 -10.12580 -10.12534 -10.12029
 Alpha  occ. eigenvalues --  -10.11295 -10.07873 -10.06583 -10.06553 -10.05751
 Alpha  occ. eigenvalues --  -10.05631 -10.05419 -10.04667 -10.04428  -0.96130
 Alpha  occ. eigenvalues --   -0.95835  -0.95384  -0.94044  -0.76820  -0.72834
 Alpha  occ. eigenvalues --   -0.68428  -0.68265  -0.65390  -0.62069  -0.60795
 Alpha  occ. eigenvalues --   -0.58914  -0.55039  -0.54200  -0.50819  -0.48877
 Alpha  occ. eigenvalues --   -0.47339  -0.44633  -0.41950  -0.41689  -0.40853
 Alpha  occ. eigenvalues --   -0.39424  -0.38722  -0.37837  -0.36895  -0.35989
 Alpha  occ. eigenvalues --   -0.35919  -0.35489  -0.34972  -0.33472  -0.32030
 Alpha  occ. eigenvalues --   -0.31151  -0.30363  -0.29476  -0.29237  -0.28331
 Alpha  occ. eigenvalues --   -0.27196  -0.26823  -0.25163  -0.25088  -0.24701
 Alpha  occ. eigenvalues --   -0.24412  -0.23682  -0.22668  -0.22496  -0.21254
 Alpha  occ. eigenvalues --   -0.19263  -0.16580  -0.15745  -0.15309  -0.11400
 Alpha  occ. eigenvalues --   -0.11238   0.04248
 Alpha virt. eigenvalues --    0.05776   0.06704   0.07814   0.08041   0.08503
 Alpha virt. eigenvalues --    0.09019   0.09379   0.09646   0.10140   0.10775
 Alpha virt. eigenvalues --    0.10937   0.11653   0.11815   0.12136   0.12493

  Beta  occ. eigenvalues --  -19.04370 -19.04246 -19.04149 -19.03460 -14.21429
  Beta  occ. eigenvalues --  -10.12649 -10.12641 -10.12569 -10.12505 -10.12024
  Beta  occ. eigenvalues --  -10.11292 -10.07802 -10.06583 -10.06561 -10.05800
  Beta  occ. eigenvalues --  -10.05559 -10.05337 -10.04466 -10.04314  -0.96125
  Beta  occ. eigenvalues --   -0.95606  -0.95373  -0.94037  -0.76571  -0.72579
  Beta  occ. eigenvalues --   -0.68381  -0.68091  -0.65326  -0.61853  -0.60677
  Beta  occ. eigenvalues --   -0.58851  -0.54825  -0.54107  -0.50747  -0.48726
  Beta  occ. eigenvalues --   -0.47221  -0.44556  -0.41894  -0.41624  -0.40823
  Beta  occ. eigenvalues --   -0.39396  -0.38649  -0.37732  -0.36803  -0.35947
  Beta  occ. eigenvalues --   -0.35758  -0.35365  -0.34876  -0.33386  -0.31944
  Beta  occ. eigenvalues --   -0.31107  -0.30311  -0.29404  -0.28617  -0.28177
  Beta  occ. eigenvalues --   -0.26999  -0.26731  -0.25114  -0.24987  -0.24607
  Beta  occ. eigenvalues --   -0.24326  -0.23609  -0.22584  -0.22294  -0.21151
  Beta  occ. eigenvalues --   -0.19188  -0.15945  -0.15616  -0.14960  -0.10784
  Beta  occ. eigenvalues --   -0.10229
  Beta virt. eigenvalues --    0.06447   0.07342   0.07820   0.08077   0.08343
  Beta virt. eigenvalues --    0.08701   0.09097   0.09533   0.09831   0.10306
  Beta virt. eigenvalues --    0.10946   0.11091   0.11632   0.11845   0.12155

 Mulliken charges and spin densities:
               1          2
     1  C    0.081322  -0.359160
     2  O   -0.166335   0.027237
     3  C   -0.021271  -0.357477
     4  C   -0.641694   0.361753
     5  O   -0.099070   0.011286
     6  C    0.633585  -0.818760
     7  C   -0.066300  -0.196626
     8  O   -0.027234  -0.006922
     9  C   -0.295332   0.262812
    10  C    0.154108  -0.081691
    11  C   -0.309857  -0.215944
    12  C   -0.508556   0.134811
    13  C    0.444975   0.037217
    14  C   -0.018618   0.439677
    15  C    0.021671  -0.388269
    16  C   -0.285829   0.004553
    17  C   -0.420089  -0.085384
    18  N   -0.342778   0.166426
    19  O   -0.092351   0.006929
    20  H    0.021354   0.127521
    21  H   -0.037304   0.178885
    22  H   -0.193843   0.314153
    23  H   -0.029385   0.171992
    24  H    0.160674   0.016090
    25  H    0.178643   0.010156
    26  H    0.499370  -0.416920
    27  H   -0.028195   0.179278
    28  H   -0.438320   0.602759
    29  H   -0.548664   0.723370
    30  H    0.232165  -0.065070
    31  H    0.163676   0.009202
    32  H    0.128351   0.006958
    33  H    0.163273   0.000172
    34  H    0.132774   0.031188
    35  H    0.062009   0.097526
    36  H    0.079373   0.084760
    37  H    0.163580  -0.014443
    38  H    0.250121  -0.000044
 Sum of Mulliken charges =  -1.00000   1.00000

 Dipole moment (field-independent basis, Debye):
    X=             -1.2651    Y=             -1.1714    Z=             -1.8713  Tot=              2.5445
 Quadrupole moment (field-independent basis, Debye-Ang):
   XX=           -192.3807   YY=           -148.7227   ZZ=           -138.7076
   XY=             -4.7961   XZ=             -5.5466   YZ=             -3.7595

 Summary of Natural Population Analysis:

                                       Natural Population
                Natural  -----------------------------------------------
    Atom  No    Charge         Core      Valence    Rydberg      Total
 -----------------------------------------------------------------------
      C    1   -0.10029      0.99962     2.09106    0.00961     3.10029
      O    2   -0.29831      0.99989     3.28882    0.00961     4.29831
      C    3   -0.02010      0.99959     2.00697    0.01354     3.02010
      C    4   -0.02548      0.99957     2.01365    0.01225     3.02548
      O    5   -0.30483      0.99989     3.29542    0.00953     4.30483
      C    6   -0.02228      0.99957     2.00844    0.01428     3.02228
      C    7   -0.02197      0.99956     2.00957    0.01284     3.02197
      O    8   -0.28648      0.99986     3.27684    0.00978     4.28648
      C    9    0.15052      0.99930     1.83734    0.01285     2.84948
      C   10   -0.10545      0.99952     2.09786    0.00807     3.10545
      C   11   -0.11137      0.99959     2.10344    0.00834     3.11137
      C   12   -0.07912      0.99953     2.07122    0.00836     3.07912
      C   13   -0.03568      0.99943     2.02624    0.01001     3.03568
      C   14   -0.00407      0.99946     1.99504    0.00957     3.00407
      C   15   -0.19532      0.99962     2.18711    0.00860     3.19532
      C   16   -0.19703      0.99962     2.18936    0.00805     3.19703
      C   17    0.11133      0.99957     1.87193    0.01716     2.88867
      N   18   -0.05937      0.99957     2.54336    0.01644     3.55937
      O   19   -0.29290      0.99990     3.28600    0.00700     4.29290
      H   20    0.08876      0.00000     0.41040    0.00084     0.41124
      H   21    0.08149      0.00000     0.41725    0.00126     0.41851
      H   22    0.07928      0.00000     0.41926    0.00145     0.42072
      H   23    0.07793      0.00000     0.42035    0.00171     0.42207
      H   24    0.08897      0.00000     0.40973    0.00130     0.41103
      H   25    0.09357      0.00000     0.40527    0.00116     0.40643
      H   26    0.08878      0.00000     0.40935    0.00187     0.41122
      H   27    0.08475      0.00000     0.41307    0.00218     0.41525
      H   28    0.09127      0.00000     0.40700    0.00172     0.40873
      H   29    0.09229      0.00000     0.40605    0.00167     0.40771
      H   30    0.08847      0.00000     0.41007    0.00146     0.41153
      H   31    0.10506      0.00000     0.39310    0.00184     0.39494
      H   32    0.09370      0.00000     0.40540    0.00089     0.40630
      H   33    0.10871      0.00000     0.39031    0.00097     0.39129
      H   34    0.10322      0.00000     0.39563    0.00115     0.39678
      H   35    0.10183      0.00000     0.39679    0.00138     0.39817
      H   36    0.10094      0.00000     0.39707    0.00199     0.39906
      H   37    0.10236      0.00000     0.39600    0.00165     0.39764
      H   38    0.22679      0.00000     0.27079    0.00241     0.27321
 =======================================================================
   * Total *    0.00000     18.99264    51.77257    0.23479    71.00000

 Normal termination of Gaussian 16 at Sun Dec 13 22:20:18 2020.
