 Gaussian 16, Revision A.03,

 -----------------------------------------------------------
 # opt freq B3LYP/6-31G(d) empiricaldispersion=gd3bj scf=xqc
 -----------------------------------------------------------

 -------------------------------
 CID_147917013_JID_3927_neutraal
 -------------------------------
 Symbolic Z-matrix:
 Charge =  0 Multiplicity = 1

 SCF Done:  E(RB3LYP) =  -573.028180488     A.U. after   15 cycles
 SCF Done:  E(RB3LYP) =  -573.032002598     A.U. after   12 cycles
 SCF Done:  E(RB3LYP) =  -573.032231531     A.U. after   11 cycles
 SCF Done:  E(RB3LYP) =  -573.032260448     A.U. after   10 cycles
 SCF Done:  E(RB3LYP) =  -573.032269469     A.U. after   10 cycles
 SCF Done:  E(RB3LYP) =  -573.032291455     A.U. after   11 cycles
 SCF Done:  E(RB3LYP) =  -573.032343190     A.U. after   13 cycles
 SCF Done:  E(RB3LYP) =  -573.032386309     A.U. after   13 cycles
 SCF Done:  E(RB3LYP) =  -573.032528552     A.U. after   11 cycles
 SCF Done:  E(RB3LYP) =  -573.033060573     A.U. after   13 cycles
 SCF Done:  E(RB3LYP) =  -573.033334094     A.U. after    9 cycles
 SCF Done:  E(RB3LYP) =  -573.033334790     A.U. after    8 cycles
 SCF Done:  E(RB3LYP) =  -573.033335636     A.U. after    8 cycles
 SCF Done:  E(RB3LYP) =  -573.033336221     A.U. after    8 cycles
 SCF Done:  E(RB3LYP) =  -573.033336396     A.U. after    8 cycles
 SCF Done:  E(RB3LYP) =  -573.033336454     A.U. after    7 cycles
 Optimization completed.
    -- Stationary point found.
 Normal termination of Gaussian 16 at Sun Dec 13 16:03:15 2020.

 --------------------------------------------------------------------
 #N Geom=AllCheck Guess=TCheck SCRF=Check GenChk RB3LYP/6-31G(d) Freq
 --------------------------------------------------------------------

 Structure from the checkpoint file:  "JID_3927.chk"
 -------------------------------
 CID_147917013_JID_3927_neutraal
 -------------------------------
 Charge =  0 Multiplicity = 1

 SCF Done:  E(RB3LYP) =  -573.033336453     A.U. after    1 cycles

  Exact polarizability: 170.044 -10.339 127.488   1.002   4.168  66.896
 Approx polarizability: 267.809 -17.953 207.092   4.097  11.343 101.486

                      1                      2                      3
                      A                      A                      A
 Frequencies --     52.6902                75.4159                89.1390
 Red. masses --      2.6963                 5.0650                 2.5551
 Frc consts  --      0.0044                 0.0170                 0.0120
 IR Inten    --      0.5009                 4.0950                 5.8282

                      4                      5                      6
                      A                      A                      A
 Frequencies --    153.2323               178.9721               196.9937
 Red. masses --      3.6956                 3.9632                 4.2958
 Frc consts  --      0.0511                 0.0748                 0.0982
 IR Inten    --      0.0192                 1.3546                 0.0725

                      7                      8                      9
                      A                      A                      A
 Frequencies --    242.4176               271.3879               296.4242
 Red. masses --      1.0590                 1.1282                 2.6926
 Frc consts  --      0.0367                 0.0490                 0.1394
 IR Inten    --      0.0782                 0.1063                 0.9834

                     10                     11                     12
                      A                      A                      A
 Frequencies --    323.2010               385.7422               421.6235
 Red. masses --      4.9503                 3.8685                 2.7149
 Frc consts  --      0.3047                 0.3391                 0.2844
 IR Inten    --      4.5600                 5.3061                 1.0184

                     13                     14                     15
                      A                      A                      A
 Frequencies --    459.9726               498.2168               561.5356
 Red. masses --      2.8642                 9.6982                 4.2922
 Frc consts  --      0.3570                 1.4183                 0.7974
 IR Inten    --      0.0652                 4.9852                 1.6380

                     16                     17                     18
                      A                      A                      A
 Frequencies --    575.6575               580.7067               634.8105
 Red. masses --      4.4505                 5.2721                 3.4668
 Frc consts  --      0.8689                 1.0475                 0.8231
 IR Inten    --      2.8083                 1.1294                 1.6635

                     19                     20                     21
                      A                      A                      A
 Frequencies --    653.3271               698.7730               705.2015
 Red. masses --      4.8954                 5.5336                 3.1153
 Frc consts  --      1.2311                 1.5919                 0.9128
 IR Inten    --      1.6944                 3.4589                 0.8465

                     22                     23                     24
                      A                      A                      A
 Frequencies --    791.5228               845.6225               879.8480
 Red. masses --      1.3215                 1.3708                 5.1969
 Frc consts  --      0.4878                 0.5775                 2.3703
 IR Inten    --     39.2168                 4.7516                19.3378

                     25                     26                     27
                      A                      A                      A
 Frequencies --    886.6880               891.7379               945.8426
 Red. masses --      1.4001                 2.6143                 1.1720
 Frc consts  --      0.6486                 1.2248                 0.6178
 IR Inten    --      0.8287                 2.4352                 1.1343

                     28                     29                     30
                      A                      A                      A
 Frequencies --    962.3595               969.6556               979.9413
 Red. masses --      2.3972                 2.1646                 1.5246
 Frc consts  --      1.3080                 1.1991                 0.8626
 IR Inten    --     28.3755                 0.3177                 0.5791

                     31                     32                     33
                      A                      A                      A
 Frequencies --    999.6590              1046.6653              1100.4005
 Red. masses --      3.5399                 1.4498                 2.2461
 Frc consts  --      2.0842                 0.9358                 1.6024
 IR Inten    --     12.0366                 9.5888                16.7851

                     34                     35                     36
                      A                      A                      A
 Frequencies --   1108.1262              1142.1997              1199.2332
 Red. masses --      1.6600                 2.2276                 1.2530
 Frc consts  --      1.2010                 1.7123                 1.0617
 IR Inten    --     11.9345                 7.5693                 2.0741

                     37                     38                     39
                      A                      A                      A
 Frequencies --   1200.2769              1222.8714              1277.9177
 Red. masses --      1.7995                 2.5070                 2.0555
 Frc consts  --      1.5274                 2.2088                 1.9778
 IR Inten    --      2.9253                28.2747                11.1620

                     40                     41                     42
                      A                      A                      A
 Frequencies --   1326.5783              1338.8680              1350.9127
 Red. masses --      2.6883                 2.3066                 1.3717
 Frc consts  --      2.7873                 2.4361                 1.4749
 IR Inten    --     95.9218                39.9840                 2.5722

                     43                     44                     45
                      A                      A                      A
 Frequencies --   1377.9667              1392.6596              1410.3567
 Red. masses --      1.9489                 2.0146                 2.6847
 Frc consts  --      2.1803                 2.3022                 3.1464
 IR Inten    --      9.0121                49.6974                36.3658

                     46                     47                     48
                      A                      A                      A
 Frequencies --   1422.8938              1444.1178              1450.0904
 Red. masses --      1.2405                 1.3521                 1.0910
 Frc consts  --      1.4798                 1.6614                 1.3517
 IR Inten    --      3.1854                11.9482                21.5736

                     49                     50                     51
                      A                      A                      A
 Frequencies --   1460.8428              1519.5924              1520.4838
 Red. masses --      3.4586                 1.1323                 1.0461
 Frc consts  --      4.3487                 1.5405                 1.4249
 IR Inten    --     56.9766                11.8281                 3.5154

                     52                     53                     54
                      A                      A                      A
 Frequencies --   1529.7670              1534.9618              1551.0339
 Red. masses --      1.9123                 1.0481                 1.5687
 Frc consts  --      2.6367                 1.4549                 2.2234
 IR Inten    --     53.2837                 7.8324                59.4589

                     55                     56                     57
                      A                      A                      A
 Frequencies --   1608.8213              1717.4133              1770.4499
 Red. masses --      6.1200                 8.3697                12.5159
 Frc consts  --      9.3329                14.5448                23.1142
 IR Inten    --     65.6743                 8.9347               388.9176

                     58                     59                     60
                      A                      A                      A
 Frequencies --   3041.3684              3049.6444              3051.2037
 Red. masses --      1.0617                 1.0374                 1.0609
 Frc consts  --      5.7859                 5.6843                 5.8192
 IR Inten    --      3.5728                22.1787                12.9484

                     61                     62                     63
                      A                      A                      A
 Frequencies --   3056.0434              3068.5077              3114.9890
 Red. masses --      1.0552                 1.0991                 1.1027
 Frc consts  --      5.8066                 6.0971                 6.3039
 IR Inten    --     26.5744                 1.9150                 2.7304

                     64                     65                     66
                      A                      A                      A
 Frequencies --   3121.1476              3128.9209              3141.4740
 Red. masses --      1.1015                 1.1033                 1.1016
 Frc consts  --      6.3223                 6.3640                 6.4051
 IR Inten    --     59.1499                31.7465                20.3228

                     67                     68                     69
                      A                      A                      A
 Frequencies --   3179.1298              3267.6994              3281.1959
 Red. masses --      1.0904                 1.0916                 1.1003
 Frc consts  --      6.4929                 6.8674                 6.9797
 IR Inten    --     13.3890                 2.7841                 1.5359

 - Thermochemistry -
 -------------------
 Temperature   298.150 Kelvin.  Pressure   1.00000 Atm.
 Atom     1 has atomic number  6 and mass  12.00000

 Molecular mass:   176.09496 amu.
 Principal axes and moments of inertia in atomic units:
                           1         2         3
     Eigenvalues --  1097.412413119.637593962.75377
           X            0.99986  -0.01624  -0.00270
           Y            0.01620   0.99980  -0.01151
           Z            0.00289   0.01146   0.99993
 This molecule is an asymmetric top.
 Rotational symmetry number  1.
 Warning -- assumption of classical behavior for rotation
           may cause significant error
 Rotational temperatures (Kelvin)      0.07893     0.02776     0.02186
 Rotational constants (GHZ):           1.64454     0.57851     0.45543
 Zero-point vibrational energy     542716.7 (Joules/Mol)
                                  129.71240 (Kcal/Mol)
 Warning -- explicit consideration of  17 degrees of freedom as
           vibrations may cause significant error
 Vibrational temperatures:     75.81   108.51   128.25   220.47   257.50
          (Kelvin)            283.43   348.78   390.47   426.49   465.01
                              555.00   606.62   661.80   716.82   807.92
                              828.24   835.51   913.35   939.99  1005.38
                             1014.63  1138.82  1216.66  1265.91  1275.75
                             1283.01  1360.86  1384.62  1395.12  1409.92
                             1438.29  1505.92  1583.23  1594.35  1643.37
                             1725.43  1726.93  1759.44  1838.64  1908.65
                             1926.33  1943.66  1982.59  2003.73  2029.19
                             2047.23  2077.76  2086.36  2101.83  2186.35
                             2187.64  2200.99  2208.47  2231.59  2314.73
                             2470.97  2547.28  4375.85  4387.76  4390.00
                             4396.96  4414.90  4481.77  4490.64  4501.82
                             4519.88  4574.06  4701.49  4720.91

 Zero-point correction=                           0.206710 (Hartree/Particle)
 Thermal correction to Energy=                    0.218388
 Thermal correction to Enthalpy=                  0.219332
 Thermal correction to Gibbs Free Energy=         0.168858
 Sum of electronic and zero-point Energies=           -572.826627
 Sum of electronic and thermal Energies=              -572.814948
 Sum of electronic and thermal Enthalpies=            -572.814004
 Sum of electronic and thermal Free Energies=         -572.864479

                     E (Thermal)             CV                S
                      KCal/Mol        Cal/Mol-Kelvin    Cal/Mol-Kelvin
 Total                  137.041             44.870            106.233
 Electronic               0.000              0.000              0.000
 Translational            0.889              2.981             41.405
 Rotational               0.889              2.981             30.985
 Vibrational            135.263             38.908             33.843
 Vibration     1          0.596              1.977              4.714
 Vibration     2          0.599              1.965              4.007
 Vibration     3          0.602              1.957              3.679
 Vibration     4          0.619              1.899              2.632
 Vibration     5          0.629              1.868              2.339
 Vibration     6          0.636              1.844              2.161
 Vibration     7          0.659              1.775              1.785
 Vibration     8          0.675              1.726              1.587
 Vibration     9          0.690              1.680              1.437
 Vibration    10          0.708              1.629              1.294
 Vibration    11          0.754              1.501              1.017
 Vibration    12          0.784              1.423              0.886
 Vibration    13          0.818              1.339              0.766
 Vibration    14          0.854              1.254              0.663
 Vibration    15          0.917              1.115              0.521
 Vibration    16          0.932              1.084              0.493
 Vibration    17          0.937              1.073              0.484

 Optimization completed.
    -- Stationary point found.
 Normal termination of Gaussian 16 at Sun Dec 13 16:09:22 2020.

 ----------------------------------------------------------------------
 # B3LYP/6-311++G(d,p) empiricaldispersion=gd3bj scf=xqc pop=npa geom=c
 heck
 ----------------------------------------------------------------------

 ---------------------------------------
 CID_147917013_JID_3927_Energie_neutraal
 ---------------------------------------
 Structure from the checkpoint file:  "JID_3927.chk"
 Charge =  0 Multiplicity = 1

 SCF Done:  E(RB3LYP) =  -573.186838966     A.U. after   15 cycles
 Normal termination of Gaussian 16 at Sun Dec 13 16:12:02 2020.

 ----------------------------------------------------------------------
 # B3LYP/6-311++G(d,p) empiricaldispersion=gd3bj scf=xqc pop=npa geom=c
 heck
 ----------------------------------------------------------------------

 -------------------------------------
 CID_147917013_JID_3927_Energie_kation
 -------------------------------------
 Structure from the checkpoint file:  "JID_3927.chk"
 Charge =  1 Multiplicity = 2

 SCF Done:  E(UB3LYP) =  -572.885273584     A.U. after   31 cycles
 Normal termination of Gaussian 16 at Sun Dec 13 16:19:41 2020.
 Gaussian 16:  ES64L-G16RevA.03 25-Dec-2016

 ----------------------------------------------------------------------
 # B3LYP/6-311++G(d,p) empiricaldispersion=gd3bj scf=xqc pop=npa geom=c
 heck
 ----------------------------------------------------------------------

 ------------------------------------
 CID_147917013_JID_3927_Energie_anion
 ------------------------------------
 Structure from the checkpoint file:  "JID_3927.chk"
 Charge = -1 Multiplicity = 2

                         Standard orientation:
 ---------------------------------------------------------------------
 Center     Atomic      Atomic             Coordinates (Angstroms)
 Number     Number       Type             X           Y           Z
 ---------------------------------------------------------------------
      1          6           0       -2.707704   -1.150115    1.087393
      2          6           0       -2.408600   -0.401806   -0.227023
      3          6           0       -3.589859    0.484891   -0.639054
      4          6           0       -1.143425    0.397849   -0.108647
      5          6           0       -0.928557    1.762749    0.061230
      6          6           0        0.462628    1.989170    0.156320
      7          6           0        1.100816    0.762418    0.044999
      8          7           0        0.094629   -0.197639   -0.115396
      9          7           0        0.266190   -1.551360   -0.284402
     10          6           0        1.478258   -1.969864   -0.274194
     11          6           0        2.719331   -1.141792   -0.099056
     12          6           0        2.487324    0.364271    0.063112
     13          8           0        3.427134    1.137169    0.197792
     14          1           0       -2.856546   -0.439803    1.908637
     15          1           0       -1.882915   -1.817602    1.351370
     16          1           0       -3.618497   -1.750767    0.983584
     17          1           0       -2.247976   -1.157161   -1.006320
     18          1           0       -3.811093    1.230824    0.133195
     19          1           0       -3.387071    1.014591   -1.575528
     20          1           0       -4.488469   -0.125291   -0.776278
     21          1           0       -1.705937    2.511609    0.106628
     22          1           0        0.970931    2.933623    0.289580
     23          1           0        1.588835   -3.044134   -0.410047
     24          1           0        3.282451   -1.499272    0.774757
     25          1           0        3.392213   -1.297609   -0.953803
 ---------------------------------------------------------------------

 SCF Done:  E(UB3LYP) =  -573.197347981     A.U. after   29 cycles

 The electronic state is 2-A.
 Alpha  occ. eigenvalues --  -18.92063 -14.23438 -14.19594 -10.07281 -10.06104
 Alpha  occ. eigenvalues --  -10.05566 -10.05360 -10.04687 -10.04274 -10.03397
 Alpha  occ. eigenvalues --  -10.03066 -10.01718 -10.00502  -0.89027  -0.85718
 Alpha  occ. eigenvalues --   -0.75418  -0.68363  -0.63811  -0.60029  -0.57650
 Alpha  occ. eigenvalues --   -0.57185  -0.48839  -0.48258  -0.45482  -0.40418
 Alpha  occ. eigenvalues --   -0.37147  -0.35624  -0.32987  -0.32359  -0.31665
 Alpha  occ. eigenvalues --   -0.31046  -0.29661  -0.28258  -0.27714  -0.27220
 Alpha  occ. eigenvalues --   -0.25691  -0.25043  -0.23592  -0.23093  -0.22554
 Alpha  occ. eigenvalues --   -0.21797  -0.21171  -0.17236  -0.14217  -0.09275
 Alpha  occ. eigenvalues --   -0.08457  -0.07470   0.04912
 Alpha virt. eigenvalues --    0.07656   0.09485   0.09796   0.10241   0.11553
 Alpha virt. eigenvalues --    0.11994   0.12160   0.12572   0.13176   0.13491
 Alpha virt. eigenvalues --    0.13778   0.14944   0.15407   0.16864   0.17724

  Beta  occ. eigenvalues --  -18.91752 -14.23380 -14.19505 -10.07009 -10.06124
  Beta  occ. eigenvalues --  -10.05355 -10.05232 -10.04396 -10.04244 -10.03467
  Beta  occ. eigenvalues --  -10.03057 -10.01838 -10.00223  -0.88741  -0.85131
  Beta  occ. eigenvalues --   -0.75131  -0.68258  -0.63366  -0.59739  -0.57484
  Beta  occ. eigenvalues --   -0.56994  -0.48605  -0.47877  -0.45055  -0.40156
  Beta  occ. eigenvalues --   -0.36902  -0.35403  -0.32780  -0.31862  -0.31295
  Beta  occ. eigenvalues --   -0.30754  -0.29389  -0.28064  -0.27515  -0.26833
  Beta  occ. eigenvalues --   -0.25530  -0.24679  -0.23411  -0.22965  -0.22408
  Beta  occ. eigenvalues --   -0.21088  -0.20233  -0.16085  -0.14064  -0.08200
  Beta  occ. eigenvalues --   -0.08162  -0.06059
  Beta virt. eigenvalues --    0.07562   0.09361   0.09741   0.10179   0.10706
  Beta virt. eigenvalues --    0.11569   0.12025   0.12380   0.12658   0.13169
  Beta virt. eigenvalues --    0.13639   0.14699   0.15220   0.15455   0.16849

 Mulliken charges and spin densities:
               1          2
     1  C   -0.370955  -0.220146
     2  C   -0.287286   0.216416
     3  C   -0.528070  -0.040879
     4  C    0.073716   0.078121
     5  C   -0.111935  -0.075602
     6  C   -0.162220   0.258978
     7  C    0.136636  -0.023494
     8  N    0.398258   0.016233
     9  N   -0.081997  -0.001386
    10  C   -0.203572   0.250128
    11  C   -0.221733  -0.057824
    12  C   -0.527188   0.166621
    13  O   -0.446323   0.118657
    14  H    0.107972   0.027130
    15  H    0.152491   0.001780
    16  H    0.013920   0.085470
    17  H    0.112852   0.062294
    18  H    0.117765   0.003410
    19  H    0.129783   0.000067
    20  H    0.109489   0.023228
    21  H    0.103742   0.008937
    22  H    0.145744  -0.016398
    23  H    0.117585  -0.007519
    24  H    0.120574   0.052895
    25  H    0.100754   0.072881
 Sum of Mulliken charges =  -1.00000   1.00000

 Dipole moment (field-independent basis, Debye):
    X=             -5.6303    Y=             -2.0943    Z=             -0.4333  Tot=              6.0228
 Quadrupole moment (field-independent basis, Debye-Ang):
   XX=           -120.5774   YY=            -95.0499   ZZ=            -86.8843
   XY=            -12.1506   XZ=             -0.7147   YZ=             -0.3099

 Summary of Natural Population Analysis:

                                       Natural Population
                Natural  -----------------------------------------------
    Atom  No    Charge         Core      Valence    Rydberg      Total
 -----------------------------------------------------------------------
      C    1   -0.27644      0.99965     2.27157    0.00522     3.27644
      C    2   -0.13009      0.99959     2.12189    0.00861     3.13009
      C    3   -0.27900      0.99966     2.27484    0.00449     3.27900
      C    4    0.14151      0.99953     1.84541    0.01355     2.85849
      C    5   -0.18344      0.99953     2.17566    0.00825     3.18344
      C    6   -0.05610      0.99954     2.04709    0.00947     3.05610
      C    7    0.00473      0.99949     1.98364    0.01214     2.99527
      N    8   -0.10452      0.99955     2.59335    0.01162     3.60452
      N    9   -0.14364      0.99967     2.63240    0.01156     3.64364
      C   10    0.10764      0.99969     1.87804    0.01463     2.89236
      C   11   -0.26731      0.99960     2.25975    0.00796     3.26731
      C   12    0.29394      0.99958     1.68634    0.02014     2.70606
      O   13   -0.28910      0.99988     3.28176    0.00746     4.28910
      H   14    0.09313      0.00000     0.40562    0.00125     0.40687
      H   15    0.10820      0.00000     0.39042    0.00137     0.39180
      H   16    0.08692      0.00000     0.41145    0.00163     0.41308
      H   17    0.10630      0.00000     0.39159    0.00210     0.39370
      H   18    0.09392      0.00000     0.40509    0.00100     0.40608
      H   19    0.09962      0.00000     0.39936    0.00102     0.40038
      H   20    0.09131      0.00000     0.40751    0.00118     0.40869
      H   21    0.09598      0.00000     0.40313    0.00089     0.40402
      H   22    0.09934      0.00000     0.39968    0.00098     0.40066
      H   23    0.07398      0.00000     0.42479    0.00123     0.42602
      H   24    0.11663      0.00000     0.38188    0.00149     0.38337
      H   25    0.11648      0.00000     0.38197    0.00154     0.38352
 =======================================================================
   * Total *   -0.00000     12.99497    33.85424    0.15079    47.00000

 Normal termination of Gaussian 16 at Sun Dec 13 16:26:56 2020.
