 Gaussian 16, Revision A.03,

 -----------------------------------------------------------
 # opt freq B3LYP/6-31G(d) empiricaldispersion=gd3bj scf=xqc
 -----------------------------------------------------------

 -------------------------------
 CID_137706764_JID_7458_neutraal
 -------------------------------
 Symbolic Z-matrix:
 Charge =  0 Multiplicity = 1

 SCF Done:  E(RB3LYP) =  -829.281026383     A.U. after   17 cycles
 SCF Done:  E(RB3LYP) =  -829.286055525     A.U. after   15 cycles
 SCF Done:  E(RB3LYP) =  -829.286759443     A.U. after   13 cycles
 SCF Done:  E(RB3LYP) =  -829.286855960     A.U. after   13 cycles
 SCF Done:  E(RB3LYP) =  -829.286889084     A.U. after   12 cycles
 SCF Done:  E(RB3LYP) =  -829.287025805     A.U. after   12 cycles
 SCF Done:  E(RB3LYP) =  -829.287070763     A.U. after   12 cycles
 SCF Done:  E(RB3LYP) =  -829.287101417     A.U. after   11 cycles
 SCF Done:  E(RB3LYP) =  -829.287111189     A.U. after   11 cycles
 SCF Done:  E(RB3LYP) =  -829.287120125     A.U. after   11 cycles
 SCF Done:  E(RB3LYP) =  -829.287121619     A.U. after    9 cycles
 SCF Done:  E(RB3LYP) =  -829.287121943     A.U. after    8 cycles
 SCF Done:  E(RB3LYP) =  -829.287122079     A.U. after    8 cycles
 SCF Done:  E(RB3LYP) =  -829.287122107     A.U. after    7 cycles
 SCF Done:  E(RB3LYP) =  -829.287122121     A.U. after    7 cycles
 Optimization completed.
    -- Stationary point found.
 Normal termination of Gaussian 16 at Sun Dec 13 20:06:55 2020.

 --------------------------------------------------------------------
 #N Geom=AllCheck Guess=TCheck SCRF=Check GenChk RB3LYP/6-31G(d) Freq
 --------------------------------------------------------------------

 Structure from the checkpoint file:  "JID_7458.chk"
 -------------------------------
 CID_137706764_JID_7458_neutraal
 -------------------------------
 Charge =  0 Multiplicity = 1

 SCF Done:  E(RB3LYP) =  -829.287122121     A.U. after    1 cycles

  Exact polarizability: 267.093   3.815 135.629   0.002   0.002  48.279
 Approx polarizability: 397.303   9.340 255.360   0.005   0.003  76.439

                      1                      2                      3
                      A                      A                      A
 Frequencies --     23.2157                47.9156                59.2983
 Red. masses --      4.6151                12.0577                 9.2874
 Frc consts  --      0.0015                 0.0163                 0.0192
 IR Inten    --      0.0260                 0.2418                 0.0018

                      4                      5                      6
                      A                      A                      A
 Frequencies --     63.5126                91.4236               135.1571
 Red. masses --      6.5506                10.3792                 9.0277
 Frc consts  --      0.0156                 0.0511                 0.0972
 IR Inten    --      1.6245                 0.0049                 0.2952

                      7                      8                      9
                      A                      A                      A
 Frequencies --    161.4321               196.6298               263.5510
 Red. masses --      6.9459                10.4707                 8.4450
 Frc consts  --      0.1066                 0.2385                 0.3456
 IR Inten    --      1.4849                 0.5508                 0.4293

                     10                     11                     12
                      A                      A                      A
 Frequencies --    268.3886               368.3542               380.9212
 Red. masses --      9.6486                 7.1595                 2.1180
 Frc consts  --      0.4095                 0.5724                 0.1811
 IR Inten    --      0.0380                 5.3164                51.9370

                     13                     14                     15
                      A                      A                      A
 Frequencies --    386.2573               403.5005               415.9476
 Red. masses --      1.7787                 9.9284                 3.1120
 Frc consts  --      0.1564                 0.9524                 0.3172
 IR Inten    --     72.3775                 2.2480                 0.8509

                     16                     17                     18
                      A                      A                      A
 Frequencies --    450.0844               508.0532               528.1399
 Red. masses --      5.3366                 8.6935                 2.6101
 Frc consts  --      0.6369                 1.3221                 0.4289
 IR Inten    --     11.7706                 1.0033                 6.5877

                     19                     20                     21
                      A                      A                      A
 Frequencies --    549.3207               582.0244               626.7481
 Red. masses --      7.7693                13.0875                 9.7802
 Frc consts  --      1.3813                 2.6121                 2.2635
 IR Inten    --      2.7825                 3.6735                11.3362

                     22                     23                     24
                      A                      A                      A
 Frequencies --    644.2992               655.6278               686.5300
 Red. masses --      6.5419                 6.9236                 4.6320
 Frc consts  --      1.6000                 1.7535                 1.2863
 IR Inten    --     10.7609                 3.3208                 6.2236

                     25                     26                     27
                      A                      A                      A
 Frequencies --    730.5713               768.1766               813.0674
 Red. masses --      4.0327                 3.8479                 1.3766
 Frc consts  --      1.2682                 1.3378                 0.5362
 IR Inten    --      1.0321                15.8965                15.4884

                     28                     29                     30
                      A                      A                      A
 Frequencies --    818.9238               846.1303               854.3362
 Red. masses --      1.7456                 6.4428                 1.5799
 Frc consts  --      0.6897                 2.7177                 0.6794
 IR Inten    --     29.1090                21.4933                24.9785

                     31                     32                     33
                      A                      A                      A
 Frequencies --    856.3748               931.6258               960.3509
 Red. masses --     11.8786                 1.3084                10.5719
 Frc consts  --      5.1327                 0.6691                 5.7446
 IR Inten    --     49.4755                 0.3402               171.7226

                     34                     35                     36
                      A                      A                      A
 Frequencies --    973.7203               974.1550               983.2870
 Red. masses --     10.8140                 1.2980                11.3979
 Frc consts  --      6.0409                 0.7257                 6.4928
 IR Inten    --     75.4923                 0.0786                 6.9748

                     37                     38                     39
                      A                      A                      A
 Frequencies --   1033.2839              1070.8244              1115.9742
 Red. masses --      2.7898                 1.9003                 7.6957
 Frc consts  --      1.7549                 1.2838                 5.6469
 IR Inten    --      0.2481                 0.7461               135.3019

                     40                     41                     42
                      A                      A                      A
 Frequencies --   1142.4437              1209.7277              1213.4071
 Red. masses --      1.4329                 1.2648                 1.2622
 Frc consts  --      1.1019                 1.0906                 1.0950
 IR Inten    --     17.9262               225.5806                45.6147

                     43                     44                     45
                      A                      A                      A
 Frequencies --   1219.4251              1288.6122              1299.8317
 Red. masses --      2.1408                 5.6248                 6.3159
 Frc consts  --      1.8756                 5.5030                 6.2872
 IR Inten    --     29.8677               303.5309               374.4496

                     46                     47                     48
                      A                      A                      A
 Frequencies --   1325.3143              1357.6072              1392.8882
 Red. masses --      3.5960                 2.2777                 2.2918
 Frc consts  --      3.7214                 2.4734                 2.6198
 IR Inten    --    110.6542                 3.1835                65.4282

                     49                     50                     51
                      A                      A                      A
 Frequencies --   1459.0141              1488.4760              1502.0297
 Red. masses --      5.8720                 4.1053                 5.7627
 Frc consts  --      7.3647                 5.3590                 7.6601
 IR Inten    --     35.8303               232.9599               135.1490

                     52                     53                     54
                      A                      A                      A
 Frequencies --   1565.9905              1629.4804              1650.0604
 Red. masses --      2.9931                 6.4671                 6.5839
 Frc consts  --      4.3246                10.1172                10.5616
 IR Inten    --     65.2311                 1.0673                57.6598

                     55                     56                     57
                      A                      A                      A
 Frequencies --   1678.8626              1810.4446              2301.9909
 Red. masses --      5.7846                13.1417                13.9941
 Frc consts  --      9.6062                25.3789                43.6921
 IR Inten    --    145.4222               201.1092               610.8619

                     58                     59                     60
                      A                      A                      A
 Frequencies --   3177.4179              3208.8102              3218.8299
 Red. masses --      1.0891                 1.0927                 1.0884
 Frc consts  --      6.4781                 6.6290                 6.6442
 IR Inten    --     20.1545                 7.8301                 3.7810

                     61                     62                     63
                      A                      A                      A
 Frequencies --   3233.1421              3313.4710              3748.5721
 Red. masses --      1.0948                 1.0980                 1.0660
 Frc consts  --      6.7427                 7.1026                 8.8251
 IR Inten    --      2.4438                 3.1707                71.2798

 - Thermochemistry -
 -------------------
 Temperature   298.150 Kelvin.  Pressure   1.00000 Atm.
 Atom     1 has atomic number  6 and mass  12.00000

 Molecular mass:   230.04399 amu.
 Principal axes and moments of inertia in atomic units:
                           1         2         3
     Eigenvalues --  1120.50315********************
           X            0.99999  -0.00348  -0.00000
           Y            0.00348   0.99999   0.00000
           Z            0.00000  -0.00000   1.00000
 This molecule is an asymmetric top.
 Rotational symmetry number  1.
 Warning -- assumption of classical behavior for rotation
           may cause significant error
 Rotational temperatures (Kelvin)      0.07730     0.00843     0.00760
 Rotational constants (GHZ):           1.61065     0.17569     0.15841
 Zero-point vibrational energy     410695.9 (Joules/Mol)
                                   98.15866 (Kcal/Mol)
 Warning -- explicit consideration of  20 degrees of freedom as
           vibrations may cause significant error
 Vibrational temperatures:     33.40    68.94    85.32    91.38   131.54
          (Kelvin)            194.46   232.26   282.91   379.19   386.15
                              529.98   548.06   555.74   580.55   598.46
                              647.57   730.98   759.88   790.35   837.40
                              901.75   927.00   943.30   987.76  1051.13
                             1105.23  1169.82  1178.25  1217.39  1229.20
                             1232.13  1340.40  1381.73  1400.97  1401.59
                             1414.73  1486.67  1540.68  1605.64  1643.72
                             1740.53  1745.82  1754.48  1854.03  1870.17
                             1906.83  1953.29  2004.06  2099.20  2141.59
                             2161.09  2253.11  2344.46  2374.07  2415.51
                             2604.83  3312.05  4571.60  4616.76  4631.18
                             4651.77  4767.35  5393.36

 Zero-point correction=                           0.156426 (Hartree/Particle)
 Thermal correction to Energy=                    0.170297
 Thermal correction to Enthalpy=                  0.171241
 Thermal correction to Gibbs Free Energy=         0.113286
 Sum of electronic and zero-point Energies=           -829.130696
 Sum of electronic and thermal Energies=              -829.116825
 Sum of electronic and thermal Enthalpies=            -829.115881
 Sum of electronic and thermal Free Energies=         -829.173836

                     E (Thermal)             CV                S
                      KCal/Mol        Cal/Mol-Kelvin    Cal/Mol-Kelvin
 Total                  106.863             51.469            121.976
 Electronic               0.000              0.000              0.000
 Translational            0.889              2.981             42.201
 Rotational               0.889              2.981             33.239
 Vibrational            105.085             45.507             46.536
 Vibration     1          0.593              1.985              6.338
 Vibration     2          0.595              1.978              4.902
 Vibration     3          0.597              1.974              4.480
 Vibration     4          0.597              1.972              4.345
 Vibration     5          0.602              1.955              3.629
 Vibration     6          0.613              1.918              2.871
 Vibration     7          0.622              1.890              2.533
 Vibration     8          0.636              1.845              2.164
 Vibration     9          0.670              1.740              1.638
 Vibration    10          0.673              1.731              1.607
 Vibration    11          0.741              1.537              1.087
 Vibration    12          0.751              1.511              1.036
 Vibration    13          0.755              1.500              1.015
 Vibration    14          0.769              1.463              0.950
 Vibration    15          0.779              1.436              0.906
 Vibration    16          0.809              1.361              0.796
 Vibration    17          0.863              1.232              0.638
 Vibration    18          0.883              1.188              0.591
 Vibration    19          0.905              1.141              0.546
 Vibration    20          0.939              1.070              0.482

 Optimization completed.
    -- Stationary point found.
 Normal termination of Gaussian 16 at Sun Dec 13 20:13:19 2020.

 ----------------------------------------------------------------------
 # B3LYP/6-311++G(d,p) empiricaldispersion=gd3bj scf=xqc pop=npa geom=c
 heck
 ----------------------------------------------------------------------

 ---------------------------------------
 CID_137706764_JID_7458_Energie_neutraal
 ---------------------------------------
 Structure from the checkpoint file:  "JID_7458.chk"
 Charge =  0 Multiplicity = 1

 SCF Done:  E(RB3LYP) =  -829.517757908     A.U. after   17 cycles
 Normal termination of Gaussian 16 at Sun Dec 13 20:16:27 2020.

 ----------------------------------------------------------------------
 # B3LYP/6-311++G(d,p) empiricaldispersion=gd3bj scf=xqc pop=npa geom=c
 heck
 ----------------------------------------------------------------------

 -------------------------------------
 CID_137706764_JID_7458_Energie_kation
 -------------------------------------
 Structure from the checkpoint file:  "JID_7458.chk"
 Charge =  1 Multiplicity = 2

 SCF Done:  E(UB3LYP) =  -829.215463407     A.U. after   24 cycles
 Normal termination of Gaussian 16 at Sun Dec 13 20:22:34 2020.
 Gaussian 16:  ES64L-G16RevA.03 25-Dec-2016

 ----------------------------------------------------------------------
 # B3LYP/6-311++G(d,p) empiricaldispersion=gd3bj scf=xqc pop=npa geom=c
 heck
 ----------------------------------------------------------------------

 ------------------------------------
 CID_137706764_JID_7458_Energie_anion
 ------------------------------------
 Structure from the checkpoint file:  "JID_7458.chk"
 Charge = -1 Multiplicity = 2

                         Standard orientation:
 ---------------------------------------------------------------------
 Center     Atomic      Atomic             Coordinates (Angstroms)
 Number     Number       Type             X           Y           Z
 ---------------------------------------------------------------------
      1          6           0        2.189104   -1.212354   -0.000086
      2          6           0        3.543288   -1.520816   -0.000073
      3          6           0        4.493514   -0.492250    0.000006
      4          6           0        4.075619    0.844046    0.000070
      5          6           0        2.722094    1.144961    0.000059
      6          6           0        1.756331    0.122317   -0.000014
      7          6           0        0.335887    0.433143   -0.000008
      8          6           0       -0.805359   -0.324443    0.000035
      9          6           0       -1.853046    0.634660    0.000000
     10          7           0       -1.398265    1.875590   -0.000036
     11          8           0       -0.020597    1.746852   -0.000059
     12          6           0       -3.316422    0.401837    0.000004
     13          8           0       -4.169298    1.258789   -0.000053
     14          7           0       -3.587481   -1.007164    0.000076
     15          7           0       -4.801945   -1.292884    0.000067
     16          7           0       -5.874847   -1.653645   -0.000019
     17          8           0        5.834138   -0.728934    0.000035
     18          1           0        1.461907   -2.018353   -0.000162
     19          1           0        3.864987   -2.559939   -0.000125
     20          1           0        4.825415    1.627774    0.000129
     21          1           0        2.400670    2.180501    0.000114
     22          1           0       -0.905641   -1.397242    0.000112
     23          1           0        5.990418   -1.686286   -0.000028
 ---------------------------------------------------------------------

 SCF Done:  E(UB3LYP) =  -829.555399903     A.U. after   25 cycles

 The electronic state is 2-A.
 Alpha  occ. eigenvalues --  -19.07726 -19.05648 -18.95328 -14.34935 -14.25757
 Alpha  occ. eigenvalues --  -14.23367 -14.19914 -10.14334 -10.13079 -10.10588
 Alpha  occ. eigenvalues --  -10.08926 -10.08675 -10.08450 -10.08159 -10.07801
 Alpha  occ. eigenvalues --  -10.06375 -10.05086  -1.01952  -1.00239  -0.98862
 Alpha  occ. eigenvalues --   -0.91026  -0.84198  -0.76843  -0.72801  -0.68566
 Alpha  occ. eigenvalues --   -0.66310  -0.63478  -0.58045  -0.54466  -0.52862
 Alpha  occ. eigenvalues --   -0.48072  -0.46264  -0.45243  -0.42499  -0.39279
 Alpha  occ. eigenvalues --   -0.38489  -0.37886  -0.36247  -0.35021  -0.34224
 Alpha  occ. eigenvalues --   -0.33912  -0.33511  -0.33136  -0.32348  -0.31174
 Alpha  occ. eigenvalues --   -0.29633  -0.27612  -0.27360  -0.26195  -0.25693
 Alpha  occ. eigenvalues --   -0.24536  -0.20721  -0.17289  -0.17151  -0.16441
 Alpha  occ. eigenvalues --   -0.16233  -0.14949  -0.12710  -0.10937   0.02029
 Alpha virt. eigenvalues --    0.05091   0.06385   0.07317   0.08152   0.08496
 Alpha virt. eigenvalues --    0.08920   0.11084   0.12117   0.12532   0.13096
 Alpha virt. eigenvalues --    0.13642   0.13958   0.14799   0.15483   0.16185

  Beta  occ. eigenvalues --  -19.07701 -19.05314 -18.94987 -14.34715 -14.25419
  Beta  occ. eigenvalues --  -14.23532 -14.19215 -10.14225 -10.12802 -10.10526
  Beta  occ. eigenvalues --  -10.08944 -10.08649 -10.08424 -10.08193 -10.07724
  Beta  occ. eigenvalues --  -10.06425 -10.05141  -1.01530  -0.99575  -0.98792
  Beta  occ. eigenvalues --   -0.90486  -0.83960  -0.76719  -0.72139  -0.68383
  Beta  occ. eigenvalues --   -0.66244  -0.63199  -0.57402  -0.54342  -0.52764
  Beta  occ. eigenvalues --   -0.47930  -0.46182  -0.44997  -0.42335  -0.38420
  Beta  occ. eigenvalues --   -0.38115  -0.37660  -0.36161  -0.34707  -0.33873
  Beta  occ. eigenvalues --   -0.33273  -0.33104  -0.32375  -0.31978  -0.30996
  Beta  occ. eigenvalues --   -0.29426  -0.27498  -0.26043  -0.25984  -0.24859
  Beta  occ. eigenvalues --   -0.24358  -0.20661  -0.16949  -0.16329  -0.15582
  Beta  occ. eigenvalues --   -0.15077  -0.14092  -0.12463  -0.09546
  Beta virt. eigenvalues --    0.05086   0.07032   0.07376   0.08149   0.08485
  Beta virt. eigenvalues --    0.09065   0.09215   0.11094   0.12117   0.13104
  Beta virt. eigenvalues --    0.13437   0.13645   0.14799   0.14960   0.15998

 Mulliken charges and spin densities:
               1          2
     1  C   -1.535204   0.018283
     2  C   -0.190732  -0.005134
     3  C   -0.458433   0.063817
     4  C   -0.327519  -0.027187
     5  C    0.522024   0.080479
     6  C    1.048764   0.004278
     7  C   -0.382905   0.047934
     8  C   -0.893592  -0.016801
     9  C    1.131694  -0.068409
    10  N   -0.544694   0.330082
    11  O    0.259322   0.076448
    12  C   -0.106109   0.188988
    13  O   -0.370290   0.124211
    14  N   -0.643150  -0.106333
    15  N    1.118856   0.084547
    16  N   -0.368639   0.200813
    17  O   -0.253908   0.004933
    18  H    0.060715  -0.000983
    19  H    0.122837   0.000325
    20  H    0.160377   0.001582
    21  H    0.185908  -0.004977
    22  H    0.211378   0.003253
    23  H    0.253298  -0.000152
 Sum of Mulliken charges =  -1.00000   1.00000

 Dipole moment (field-independent basis, Debye):
    X=             10.9413    Y=             -5.5481    Z=              0.0002  Tot=             12.2676
 Quadrupole moment (field-independent basis, Debye-Ang):
   XX=           -180.0378   YY=           -108.7495   ZZ=           -102.9087
   XY=             -2.6281   XZ=             -0.0014   YZ=              0.0009

 Summary of Natural Population Analysis:

                                       Natural Population
                Natural  -----------------------------------------------
    Atom  No    Charge         Core      Valence    Rydberg      Total
 -----------------------------------------------------------------------
      C    1   -0.06885      0.99946     2.06153    0.00786     3.06885
      C    2   -0.15477      0.99955     2.14570    0.00951     3.15477
      C    3    0.16657      0.99940     1.82190    0.01212     2.83343
      C    4   -0.13550      0.99953     2.12708    0.00889     3.13550
      C    5   -0.06935      0.99957     2.06055    0.00923     3.06935
      C    6   -0.04695      0.99937     2.03818    0.00940     3.04695
      C    7    0.15292      0.99947     1.83410    0.01351     2.84708
      C    8   -0.16415      0.99947     2.15756    0.00711     3.16415
      C    9    0.00219      0.99955     1.98367    0.01459     2.99781
      N   10    0.05387      0.99968     2.43394    0.01251     3.44613
      O   11   -0.14509      0.99985     3.13380    0.01144     4.14509
      C   12    0.35145      0.99963     1.62588    0.02303     2.64855
      O   13   -0.26248      0.99987     3.25559    0.00702     4.26248
      N   14   -0.24540      0.99969     2.73107    0.01464     3.74540
      N   15    0.15070      0.99971     2.33237    0.01722     3.34930
      N   16    0.00933      0.99981     2.47788    0.01298     3.49067
      O   17   -0.34067      0.99988     3.33456    0.00624     4.34067
      H   18    0.09980      0.00000     0.39844    0.00175     0.40020
      H   19    0.09352      0.00000     0.40523    0.00125     0.40648
      H   20    0.10239      0.00000     0.39659    0.00101     0.39761
      H   21    0.10955      0.00000     0.38940    0.00104     0.39045
      H   22    0.11188      0.00000     0.38722    0.00089     0.38812
      H   23    0.22903      0.00000     0.26857    0.00240     0.27097
 =======================================================================
   * Total *    0.00002     16.99351    41.80082    0.20566    58.99998

 Normal termination of Gaussian 16 at Sun Dec 13 20:28:33 2020.
