 Gaussian 16, Revision A.03,

 -----------------------------------------------------------
 # opt freq B3LYP/6-31G(d) empiricaldispersion=gd3bj scf=xqc
 -----------------------------------------------------------

 ------------------------------
 CID_64343392_JID_8466_neutraal
 ------------------------------
 Symbolic Z-matrix:
 Charge =  0 Multiplicity = 1

 SCF Done:  E(RB3LYP) =  -829.041643761     A.U. after   14 cycles
 SCF Done:  E(RB3LYP) =  -829.045430322     A.U. after   11 cycles
 SCF Done:  E(RB3LYP) =  -829.045656171     A.U. after   12 cycles
 SCF Done:  E(RB3LYP) =  -829.045861568     A.U. after   12 cycles
 SCF Done:  E(RB3LYP) =  -829.046017390     A.U. after   11 cycles
 SCF Done:  E(RB3LYP) =  -829.046140044     A.U. after   11 cycles
 SCF Done:  E(RB3LYP) =  -829.046274367     A.U. after   12 cycles
 SCF Done:  E(RB3LYP) =  -829.046340457     A.U. after   12 cycles
 SCF Done:  E(RB3LYP) =  -829.046436046     A.U. after   11 cycles
 SCF Done:  E(RB3LYP) =  -829.046621559     A.U. after   12 cycles
 SCF Done:  E(RB3LYP) =  -829.055735922     A.U. after    9 cycles
 SCF Done:  E(RB3LYP) =  -829.055736148     A.U. after    7 cycles
 SCF Done:  E(RB3LYP) =  -829.055736181     A.U. after    6 cycles
 SCF Done:  E(RB3LYP) =  -829.055736210     A.U. after    6 cycles
 Optimization completed.
    -- Stationary point found.
 Normal termination of Gaussian 16 at Fri Dec 11 21:42:55 2020.

 --------------------------------------------------------------------
 #N Geom=AllCheck Guess=TCheck SCRF=Check GenChk RB3LYP/6-31G(d) Freq
 --------------------------------------------------------------------

 Structure from the checkpoint file:  "JID_8466.chk"
 ------------------------------
 CID_64343392_JID_8466_neutraal
 ------------------------------
 Charge =  0 Multiplicity = 1

 SCF Done:  E(RB3LYP) =  -829.055736210     A.U. after    1 cycles

  Exact polarizability: 183.422   7.993 156.020   4.844   0.815 135.423
 Approx polarizability: 224.327  10.117 220.033  16.154 -10.056 222.350

                      1                      2                      3
                      A                      A                      A
 Frequencies --     15.4111                19.8845                30.3006
 Red. masses --      4.6631                 4.4260                 3.6137
 Frc consts  --      0.0007                 0.0010                 0.0020
 IR Inten    --      0.4299                 0.2654                 0.3154

                      4                      5                      6
                      A                      A                      A
 Frequencies --     47.4057                48.8082                61.5349
 Red. masses --      8.0451                 3.5834                 4.9755
 Frc consts  --      0.0107                 0.0050                 0.0111
 IR Inten    --      1.7918                 0.1588                 0.8486

                      7                      8                      9
                      A                      A                      A
 Frequencies --     64.7665                87.9345               112.6910
 Red. masses --      3.2939                 5.6621                 2.9543
 Frc consts  --      0.0081                 0.0258                 0.0221
 IR Inten    --      0.0751                 2.7373                 0.2468

                     10                     11                     12
                      A                      A                      A
 Frequencies --    128.1953               168.6531               184.9208
 Red. masses --      2.9274                 2.9543                 2.3365
 Frc consts  --      0.0283                 0.0495                 0.0471
 IR Inten    --      0.2527                 0.9867                 0.4916

                     13                     14                     15
                      A                      A                      A
 Frequencies --    194.0544               222.8831               233.7268
 Red. masses --      3.2152                 1.8253                 1.3602
 Frc consts  --      0.0713                 0.0534                 0.0438
 IR Inten    --      0.5762                 2.6353                 0.4703

                     16                     17                     18
                      A                      A                      A
 Frequencies --    246.8717               265.4881               310.2739
 Red. masses --      1.7974                 3.4379                 2.3942
 Frc consts  --      0.0645                 0.1428                 0.1358
 IR Inten    --      0.8583                 1.9123                 3.1213

                     19                     20                     21
                      A                      A                      A
 Frequencies --    327.5613               361.1223               370.9004
 Red. masses --      2.1187                 2.1216                 2.7297
 Frc consts  --      0.1339                 0.1630                 0.2212
 IR Inten    --      0.3883                 0.6675                 2.4465

                     22                     23                     24
                      A                      A                      A
 Frequencies --    389.8518               414.0930               426.1158
 Red. masses --      2.0963                 2.4244                 2.4045
 Frc consts  --      0.1877                 0.2449                 0.2572
 IR Inten    --      1.0688                 4.0902                 5.1551

                     25                     26                     27
                      A                      A                      A
 Frequencies --    461.0338               489.5793               526.1944
 Red. masses --      3.0104                 2.2463                 3.2552
 Frc consts  --      0.3770                 0.3172                 0.5310
 IR Inten    --      5.7616                 0.9924                11.9467

                     28                     29                     30
                      A                      A                      A
 Frequencies --    554.6616               573.3322               588.2373
 Red. masses --      2.7910                 2.6940                 1.7086
 Frc consts  --      0.5059                 0.5218                 0.3483
 IR Inten    --     32.7529                 9.3044                34.0179

                     31                     32                     33
                      A                      A                      A
 Frequencies --    619.1466               648.5642               719.2831
 Red. masses --      1.9002                 1.7957                 1.8545
 Frc consts  --      0.4292                 0.4450                 0.5653
 IR Inten    --     53.2801                39.0634                20.6874

                     34                     35                     36
                      A                      A                      A
 Frequencies --    728.0451               735.5398               771.7905
 Red. masses --      3.3244                 1.8724                 2.1761
 Frc consts  --      1.0382                 0.5968                 0.7637
 IR Inten    --     66.1401                54.4659                 3.9860

                     37                     38                     39
                      A                      A                      A
 Frequencies --    793.6064               799.9479               824.3612
 Red. masses --      1.8190                 2.6936                 1.9347
 Frc consts  --      0.6750                 1.0156                 0.7747
 IR Inten    --      5.3699                 1.8192                 5.7502

                     40                     41                     42
                      A                      A                      A
 Frequencies --    858.2297               868.9658               881.1077
 Red. masses --      1.9348                 1.5029                 1.8863
 Frc consts  --      0.8396                 0.6686                 0.8628
 IR Inten    --      0.6813                 5.9929                 7.0619

                     43                     44                     45
                      A                      A                      A
 Frequencies --    902.4460               917.8878               935.4660
 Red. masses --      2.4112                 2.2517                 2.0372
 Frc consts  --      1.1570                 1.1178                 1.0504
 IR Inten    --     11.5483                 3.1859                13.0589

                     46                     47                     48
                      A                      A                      A
 Frequencies --    954.9451               959.8424               973.3842
 Red. masses --      1.7953                 1.2977                 1.8717
 Frc consts  --      0.9646                 0.7044                 1.0448
 IR Inten    --      5.1479                 3.5331                10.8085

                     49                     50                     51
                      A                      A                      A
 Frequencies --   1022.1520              1037.4901              1044.1458
 Red. masses --      1.9204                 2.5031                 2.2912
 Frc consts  --      1.1822                 1.5874                 1.4718
 IR Inten    --      5.3935                 2.8066                 1.6051

                     52                     53                     54
                      A                      A                      A
 Frequencies --   1072.2115              1082.8519              1086.8817
 Red. masses --      1.6912                 1.4706                 1.9165
 Frc consts  --      1.1455                 1.0160                 1.3339
 IR Inten    --     10.9800                 1.3533                 4.6838

                     55                     56                     57
                      A                      A                      A
 Frequencies --   1096.5741              1105.8053              1111.3731
 Red. masses --      2.1713                 1.8761                 1.4506
 Frc consts  --      1.5383                 1.3517                 1.0557
 IR Inten    --      1.3047                 2.0350                42.6501

                     58                     59                     60
                      A                      A                      A
 Frequencies --   1124.4596              1134.2307              1157.4748
 Red. masses --      1.3147                 1.7209                 1.4272
 Frc consts  --      0.9794                 1.3044                 1.1266
 IR Inten    --      5.9869                82.1688                 6.8146

                     61                     62                     63
                      A                      A                      A
 Frequencies --   1183.4252              1185.7819              1221.2048
 Red. masses --      2.2305                 2.4780                 1.7034
 Frc consts  --      1.8405                 2.0528                 1.4968
 IR Inten    --     69.3831                45.5536                 9.8253

                     64                     65                     66
                      A                      A                      A
 Frequencies --   1234.6521              1240.9104              1245.4024
 Red. masses --      1.4240                 1.2723                 1.5484
 Frc consts  --      1.2789                 1.1543                 1.4150
 IR Inten    --     34.9973                 6.3341                49.2330

                     67                     68                     69
                      A                      A                      A
 Frequencies --   1257.3851              1289.2820              1291.8519
 Red. masses --      1.4391                 1.2592                 1.3574
 Frc consts  --      1.3405                 1.2332                 1.3347
 IR Inten    --     63.1704                 2.1693                27.5857

                     70                     71                     72
                      A                      A                      A
 Frequencies --   1315.7831              1322.3988              1336.8840
 Red. masses --      1.6232                 1.2597                 1.4077
 Frc consts  --      1.6558                 1.2979                 1.4824
 IR Inten    --     93.2419                 5.7603                 2.0666

                     73                     74                     75
                      A                      A                      A
 Frequencies --   1366.4321              1373.1751              1394.0117
 Red. masses --      1.1963                 1.3347                 1.4508
 Frc consts  --      1.3160                 1.4828                 1.6611
 IR Inten    --      1.3370                 2.1856                 2.4325

                     76                     77                     78
                      A                      A                      A
 Frequencies --   1400.4417              1409.3821              1414.6367
 Red. masses --      1.3571                 1.3142                 1.3742
 Frc consts  --      1.5681                 1.5380                 1.6202
 IR Inten    --     12.2461                13.4623                 3.3598

                     79                     80                     81
                      A                      A                      A
 Frequencies --   1418.7794              1431.3357              1435.0299
 Red. masses --      1.6517                 1.5885                 1.4003
 Frc consts  --      1.9589                 1.9175                 1.6989
 IR Inten    --     16.3222                29.5395                 2.4167

                     82                     83                     84
                      A                      A                      A
 Frequencies --   1446.5626              1451.5918              1464.9979
 Red. masses --      1.2728                 1.3963                 1.6519
 Frc consts  --      1.5693                 1.7335                 2.0889
 IR Inten    --      5.6219                 7.1250                70.5374

                     85                     86                     87
                      A                      A                      A
 Frequencies --   1501.4871              1502.4998              1507.4903
 Red. masses --      1.1378                 1.4435                 1.4756
 Frc consts  --      1.5113                 1.9200                 1.9757
 IR Inten    --     15.8433                80.1794                32.6105

                     88                     89                     90
                      A                      A                      A
 Frequencies --   1512.8796              1523.5742              1525.2143
 Red. masses --      1.1174                 1.1935                 1.0745
 Frc consts  --      1.5068                 1.6322                 1.4728
 IR Inten    --     15.0657                 8.3226                 1.6428

                     91                     92                     93
                      A                      A                      A
 Frequencies --   1529.6277              1530.3248              1530.8444
 Red. masses --      1.0871                 1.1057                 1.0892
 Frc consts  --      1.4987                 1.5257                 1.5039
 IR Inten    --      6.9079                 8.6733                 2.6377

                     94                     95                     96
                      A                      A                      A
 Frequencies --   1537.0372              1538.6432              1540.3647
 Red. masses --      1.0653                 1.0505                 1.0878
 Frc consts  --      1.4829                 1.4653                 1.5207
 IR Inten    --     10.2463                 8.3924                 7.6409

                     97                     98                     99
                      A                      A                      A
 Frequencies --   1759.3768              1844.3615              3029.1845
 Red. masses --      7.0403                 9.3510                 1.0611
 Frc consts  --     12.8399                18.7414                 5.7364
 IR Inten    --    295.7178               217.3310                25.0115

                    100                    101                    102
                      A                      A                      A
 Frequencies --   3036.3519              3038.4612              3043.3423
 Red. masses --      1.0705                 1.0648                 1.0744
 Frc consts  --      5.8151                 5.7921                 5.8629
 IR Inten    --      3.9848                17.6378                 2.9355

                    103                    104                    105
                      A                      A                      A
 Frequencies --   3047.1895              3052.4981              3053.5533
 Red. masses --      1.0391                 1.0686                 1.0405
 Frc consts  --      5.6844                 5.8663                 5.7160
 IR Inten    --     46.9720                54.5676                25.6809

                    106                    107                    108
                      A                      A                      A
 Frequencies --   3059.0786              3063.0425              3069.4530
 Red. masses --      1.0747                 1.0854                 1.0704
 Frc consts  --      5.9256                 5.9998                 5.9418
 IR Inten    --      5.0606                61.7638                20.9419

                    109                    110                    111
                      A                      A                      A
 Frequencies --   3072.4849              3086.5146              3101.1847
 Red. masses --      1.0950                 1.1009                 1.1021
 Frc consts  --      6.0904                 6.1792                 6.2450
 IR Inten    --     68.3396                23.1457                30.0701

                    112                    113                    114
                      A                      A                      A
 Frequencies --   3101.7410              3118.2443              3121.3807
 Red. masses --      1.1035                 1.1020                 1.1017
 Frc consts  --      6.2553                 6.3131                 6.3243
 IR Inten    --     19.5960                53.3863                42.9890

                    115                    116                    117
                      A                      A                      A
 Frequencies --   3136.8270              3137.6395              3139.9875
 Red. masses --      1.0949                 1.0886                 1.0909
 Frc consts  --      6.3478                 6.3145                 6.3369
 IR Inten    --     11.6241                22.2989                17.0151

                    118                    119                    120
                      A                      A                      A
 Frequencies --   3152.9704              3159.3207              3212.6281
 Red. masses --      1.0555                 1.0974                 1.0881
 Frc consts  --      6.1822                 6.4537                 6.6168
 IR Inten    --     13.9534                12.0984                13.3256

                    121                    122                    123
                      A                      A                      A
 Frequencies --   3243.1957              3584.5275              3674.8532
 Red. masses --      1.1165                 1.0754                 1.0638
 Frc consts  --      6.9195                 8.1409                 8.4640
 IR Inten    --      6.5852                19.4808                45.0645

 - Thermochemistry -
 -------------------
 Temperature   298.150 Kelvin.  Pressure   1.00000 Atm.
 Atom     1 has atomic number  6 and mass  12.00000

 Molecular mass:   255.18344 amu.
 Principal axes and moments of inertia in atomic units:
                           1         2         3
     Eigenvalues --  2641.980818892.57008**********
           X            0.99997  -0.00522  -0.00630
           Y            0.00538   0.99966   0.02554
           Z            0.00616  -0.02558   0.99965
 This molecule is an asymmetric top.
 Rotational symmetry number  1.
 Warning -- assumption of classical behavior for rotation
           may cause significant error
 Rotational temperatures (Kelvin)      0.03278     0.00974     0.00841
 Rotational constants (GHZ):           0.68310     0.20295     0.17520
 Zero-point vibrational energy    1007527.3 (Joules/Mol)
                                  240.80481 (Kcal/Mol)
 Warning -- explicit consideration of  31 degrees of freedom as
           vibrations may cause significant error
 Vibrational temperatures:     22.17    28.61    43.60    68.21    70.22
          (Kelvin)             88.53    93.18   126.52   162.14   184.44
                              242.65   266.06   279.20   320.68   336.28
                              355.19   381.98   446.41   471.29   519.57
                              533.64   560.91   595.79   613.09   663.32
                              704.40   757.08   798.03   824.90   846.34
                              890.81   933.14  1034.89  1047.49  1058.28
                             1110.43  1141.82  1150.95  1186.07  1234.80
                             1250.25  1267.72  1298.42  1320.64  1345.93
                             1373.95  1381.00  1400.48  1470.65  1492.72
                             1502.29  1542.67  1557.98  1563.78  1577.73
                             1591.01  1599.02  1617.85  1631.91  1665.35
                             1702.68  1706.08  1757.04  1776.39  1785.39
                             1791.86  1809.10  1854.99  1858.69  1893.12
                             1902.64  1923.48  1965.99  1975.69  2005.67
                             2014.92  2027.79  2035.35  2041.31  2059.37
                             2064.69  2081.28  2088.52  2107.81  2160.31
                             2161.76  2168.94  2176.70  2192.08  2194.44
                             2200.79  2201.80  2202.54  2211.45  2213.76
                             2216.24  2531.35  2653.62  4358.32  4368.63
                             4371.67  4378.69  4384.23  4391.86  4393.38
                             4401.33  4407.03  4416.26  4420.62  4440.81
                             4461.91  4462.71  4486.46  4490.97  4513.19
                             4514.36  4517.74  4536.42  4545.56  4622.26
                             4666.24  5157.34  5287.29

 Zero-point correction=                           0.383747 (Hartree/Particle)
 Thermal correction to Energy=                    0.404055
 Thermal correction to Enthalpy=                  0.404999
 Thermal correction to Gibbs Free Energy=         0.331462
 Sum of electronic and zero-point Energies=           -828.671989
 Sum of electronic and thermal Energies=              -828.651682
 Sum of electronic and thermal Enthalpies=            -828.650738
 Sum of electronic and thermal Free Energies=         -828.724275

                     E (Thermal)             CV                S
                      KCal/Mol        Cal/Mol-Kelvin    Cal/Mol-Kelvin
 Total                  253.548             74.922            154.772
 Electronic               0.000              0.000              0.000
 Translational            0.889              2.981             42.510
 Rotational               0.889              2.981             33.847
 Vibrational            251.771             68.960             78.414
 Vibration     1          0.593              1.986              7.152
 Vibration     2          0.593              1.986              6.646
 Vibration     3          0.594              1.984              5.810
 Vibration     4          0.595              1.979              4.923
 Vibration     5          0.595              1.978              4.865
 Vibration     6          0.597              1.973              4.407
 Vibration     7          0.597              1.971              4.306
 Vibration     8          0.601              1.958              3.706
 Vibration     9          0.607              1.939              3.222
 Vibration    10          0.611              1.925              2.973
 Vibration    11          0.625              1.881              2.450
 Vibration    12          0.631              1.860              2.278
 Vibration    13          0.635              1.848              2.189
 Vibration    14          0.649              1.806              1.936
 Vibration    15          0.654              1.789              1.850
 Vibration    16          0.661              1.768              1.753
 Vibration    17          0.671              1.736              1.625
 Vibration    18          0.699              1.654              1.361
 Vibration    19          0.711              1.620              1.272
 Vibration    20          0.735              1.552              1.117
 Vibration    21          0.743              1.532              1.076
 Vibration    22          0.758              1.492              1.001
 Vibration    23          0.778              1.440              0.912
 Vibration    24          0.788              1.413              0.871
 Vibration    25          0.819              1.336              0.763
 Vibration    26          0.845              1.273              0.685
 Vibration    27          0.881              1.192              0.596
 Vibration    28          0.910              1.129              0.535
 Vibration    29          0.930              1.089              0.498
 Vibration    30          0.945              1.057              0.470
 Vibration    31          0.979              0.991              0.418

 Optimization completed.
    -- Stationary point found.
 Normal termination of Gaussian 16 at Fri Dec 11 22:04:15 2020.

 ----------------------------------------------------------------------
 # B3LYP/6-311++G(d,p) empiricaldispersion=gd3bj scf=xqc pop=npa geom=c
 heck
 ----------------------------------------------------------------------

 --------------------------------------
 CID_64343392_JID_8466_Energie_neutraal
 --------------------------------------
 Structure from the checkpoint file:  "JID_8466.chk"
 Charge =  0 Multiplicity = 1

 SCF Done:  E(RB3LYP) =  -829.304694231     A.U. after   15 cycles
 Normal termination of Gaussian 16 at Fri Dec 11 22:14:52 2020.

 ----------------------------------------------------------------------
 # B3LYP/6-311++G(d,p) empiricaldispersion=gd3bj scf=xqc pop=npa geom=c
 heck
 ----------------------------------------------------------------------

 ------------------------------------
 CID_64343392_JID_8466_Energie_kation
 ------------------------------------
 Structure from the checkpoint file:  "JID_8466.chk"
 Charge =  1 Multiplicity = 2

 SCF Done:  E(UB3LYP) =  -828.982098490     A.U. after   33 cycles
 SCF Done:  E(UB3LYP) =  -828.982098490     a.u. after    1 cycles
 Normal termination of Gaussian 16 at Fri Dec 11 22:48:34 2020.
 Gaussian 16:  ES64L-G16RevA.03 25-Dec-2016

 ----------------------------------------------------------------------
 # B3LYP/6-311++G(d,p) empiricaldispersion=gd3bj scf=xqc pop=npa geom=c
 heck
 ----------------------------------------------------------------------

 -----------------------------------
 CID_64343392_JID_8466_Energie_anion
 -----------------------------------
 Structure from the checkpoint file:  "JID_8466.chk"
 Charge = -1 Multiplicity = 2

                         Standard orientation:
 ---------------------------------------------------------------------
 Center     Atomic      Atomic             Coordinates (Angstroms)
 Number     Number       Type             X           Y           Z
 ---------------------------------------------------------------------
      1          6           0        0.290715    3.147401    0.498314
      2          6           0       -0.915579    2.847931   -0.396614
      3          6           0       -0.984754    1.395477   -0.891157
      4          6           0       -1.064647    0.316040    0.206170
      5          6           0       -2.246293    0.532571    1.174523
      6          6           0       -3.644125    0.595311    0.532916
      7          6           0       -4.122313   -0.751735    0.041067
      8          8           0       -4.132021   -1.773023    0.693078
      9          8           0       -4.562186   -0.707752   -1.243006
     10          6           0       -1.062548   -1.094949   -0.414102
     11          6           0        0.320206   -1.570725   -0.885944
     12          7           0        1.253367   -1.772076    0.212045
     13          6           0        2.365445   -1.062000    0.583573
     14          8           0        3.049668   -1.444778    1.532580
     15          6           0        2.712931    0.159303   -0.208475
     16          6           0        3.728758    1.107922    0.392349
     17          6           0        4.120254    0.295206   -0.801017
     18          6           0        5.142315   -0.815469   -0.704493
     19          1           0        0.265623    2.567083    1.426920
     20          1           0        0.324118    4.207636    0.771750
     21          1           0        1.229869    2.903084   -0.011324
     22          1           0       -1.839441    3.104464    0.138039
     23          1           0       -0.886016    3.508060   -1.273195
     24          1           0       -1.846507    1.285366   -1.563289
     25          1           0       -0.102097    1.202009   -1.516029
     26          1           0       -0.162055    0.388023    0.827142
     27          1           0       -2.248953   -0.269628    1.920803
     28          1           0       -2.089867    1.467726    1.723327
     29          1           0       -4.365044    0.913850    1.296233
     30          1           0       -3.689611    1.323506   -0.279642
     31          1           0       -4.861035   -1.613020   -1.454000
     32          1           0       -1.439213   -1.820722    0.316353
     33          1           0       -1.750962   -1.133681   -1.269069
     34          1           0        0.209747   -2.520974   -1.423882
     35          1           0        0.761639   -0.870110   -1.596758
     36          1           0        1.087242   -2.566973    0.818309
     37          1           0        1.917391    0.607684   -0.790908
     38          1           0        3.552556    2.173543    0.276905
     39          1           0        4.124427    0.799197    1.355027
     40          1           0        4.128167    0.829973   -1.749864
     41          1           0        5.009610   -1.543447   -1.514092
     42          1           0        6.155758   -0.404583   -0.784754
     43          1           0        5.055220   -1.342803    0.247813
 ---------------------------------------------------------------------

 SCF Done:  E(UB3LYP) =  -829.296709794     A.U. after   33 cycles
 SCF Done:  E(UB3LYP) =  -829.296709794     a.u. after    1 cycles

 The electronic state is 2-A.
 Alpha  occ. eigenvalues --  -19.07911 -19.02531 -18.99516 -14.24867 -10.21704
 Alpha  occ. eigenvalues --  -10.18583 -10.12251 -10.10301 -10.09892 -10.09646
 Alpha  occ. eigenvalues --  -10.08785 -10.08677 -10.08617 -10.07865 -10.07716
 Alpha  occ. eigenvalues --  -10.07616 -10.07443 -10.07093  -1.01934  -0.94832
 Alpha  occ. eigenvalues --   -0.93058  -0.83521  -0.78291  -0.74234  -0.69233
 Alpha  occ. eigenvalues --   -0.67922  -0.63481  -0.62910  -0.59022  -0.57635
 Alpha  occ. eigenvalues --   -0.55887  -0.51850  -0.50241  -0.49690  -0.46362
 Alpha  occ. eigenvalues --   -0.45662  -0.43049  -0.41790  -0.40565  -0.40323
 Alpha  occ. eigenvalues --   -0.39542  -0.38718  -0.36720  -0.36307  -0.35823
 Alpha  occ. eigenvalues --   -0.35096  -0.33863  -0.33091  -0.32984  -0.32419
 Alpha  occ. eigenvalues --   -0.31749  -0.30956  -0.30301  -0.29778  -0.29493
 Alpha  occ. eigenvalues --   -0.28907  -0.27641  -0.27248  -0.27141  -0.25884
 Alpha  occ. eigenvalues --   -0.25665  -0.23726  -0.22920  -0.22838  -0.22162
 Alpha  occ. eigenvalues --   -0.21359  -0.20284  -0.19458  -0.17058  -0.16608
 Alpha  occ. eigenvalues --    0.03740
 Alpha virt. eigenvalues --    0.05511   0.05794   0.06960   0.07274   0.07471
 Alpha virt. eigenvalues --    0.08148   0.08826   0.09208   0.09586   0.09654
 Alpha virt. eigenvalues --    0.09794   0.10305   0.10622   0.11552   0.11701

  Beta  occ. eigenvalues --  -19.07857 -19.02519 -18.99507 -14.24867 -10.21698
  Beta  occ. eigenvalues --  -10.18577 -10.12234 -10.10285 -10.09885 -10.09620
  Beta  occ. eigenvalues --  -10.08778 -10.08670 -10.08617 -10.07852 -10.07698
  Beta  occ. eigenvalues --  -10.07610 -10.07423 -10.07075  -1.01866  -0.94817
  Beta  occ. eigenvalues --   -0.93002  -0.83511  -0.78265  -0.74213  -0.69195
  Beta  occ. eigenvalues --   -0.67893  -0.63459  -0.62878  -0.58972  -0.57609
  Beta  occ. eigenvalues --   -0.55843  -0.51792  -0.50158  -0.49652  -0.46340
  Beta  occ. eigenvalues --   -0.45613  -0.43019  -0.41756  -0.40537  -0.40285
  Beta  occ. eigenvalues --   -0.39515  -0.38692  -0.36692  -0.36269  -0.35797
  Beta  occ. eigenvalues --   -0.35073  -0.33840  -0.33069  -0.32956  -0.32391
  Beta  occ. eigenvalues --   -0.31727  -0.30930  -0.30268  -0.29743  -0.29462
  Beta  occ. eigenvalues --   -0.28881  -0.27616  -0.27222  -0.27116  -0.25856
  Beta  occ. eigenvalues --   -0.25633  -0.23686  -0.22889  -0.22816  -0.22138
  Beta  occ. eigenvalues --   -0.21340  -0.20259  -0.19417  -0.17047  -0.16588
  Beta virt. eigenvalues --    0.05847   0.06282   0.06641   0.07248   0.07570
  Beta virt. eigenvalues --    0.07949   0.08382   0.09056   0.09384   0.09807
  Beta virt. eigenvalues --    0.09906   0.09969   0.10477   0.10828   0.11803

 Mulliken charges and spin densities:
               1          2
     1  C   -0.256671  -0.249664
     2  C    0.298887  -0.884999
     3  C   -0.145800   0.119501
     4  C    0.408064   0.439566
     5  C   -0.431362  -0.030202
     6  C    0.555297  -0.959668
     7  C    0.001205  -0.326675
     8  O   -0.255702   0.047176
     9  O   -0.145761   0.074245
    10  C   -0.287571  -0.354114
    11  C    0.104464  -0.660071
    12  N   -0.139346   0.021465
    13  C   -0.912819   0.276630
    14  O   -0.325648   0.001015
    15  C    0.574063   0.056384
    16  C   -0.279286  -0.458104
    17  C    0.012458   0.161883
    18  C   -0.211523  -0.448188
    19  H    0.080897   0.052717
    20  H   -0.183405   0.341004
    21  H   -0.001466   0.156709
    22  H    0.008781   0.111614
    23  H   -0.248738   0.419978
    24  H   -0.134236   0.333554
    25  H   -0.417461   0.538640
    26  H    0.185882   0.079976
    27  H    0.235592  -0.040013
    28  H    0.118094   0.041049
    29  H   -0.192012   0.387881
    30  H    0.229815  -0.018079
    31  H   -0.424205   0.731290
    32  H    0.110441   0.070420
    33  H    0.250124  -0.077418
    34  H   -0.381136   0.591643
    35  H   -0.155240   0.349302
    36  H    0.271101   0.017755
    37  H    1.070395  -0.887953
    38  H    0.045503   0.089776
    39  H    0.201787  -0.001405
    40  H   -0.531117   0.730216
    41  H    0.068915   0.069655
    42  H    0.078670   0.056904
    43  H    0.150070   0.028605
 Sum of Mulliken charges =  -1.00000   1.00000

 Dipole moment (field-independent basis, Debye):
    X=              3.2182    Y=              0.4661    Z=              3.5583  Tot=              4.8203
 Quadrupole moment (field-independent basis, Debye-Ang):
   XX=           -207.6782   YY=           -162.6933   ZZ=           -157.4338
   XY=            -10.4388   XZ=             -6.6825   YZ=              4.0047

 Summary of Natural Population Analysis:

                                       Natural Population
                Natural  -----------------------------------------------
    Atom  No    Charge         Core      Valence    Rydberg      Total
 -----------------------------------------------------------------------
      C    1   -0.28647      0.99966     2.28147    0.00534     3.28647
      C    2   -0.19040      0.99964     2.18285    0.00792     3.19040
      C    3   -0.19109      0.99961     2.18198    0.00950     3.19109
      C    4   -0.11687      0.99958     2.10704    0.01025     3.11687
      C    5   -0.18424      0.99961     2.17561    0.00902     3.18424
      C    6   -0.24235      0.99957     2.23348    0.00930     3.24235
      C    7    0.40782      0.99971     1.56663    0.02583     2.59218
      O    8   -0.31069      0.99987     3.30458    0.00624     4.31069
      O    9   -0.34243      0.99988     3.33583    0.00671     4.34243
      C   10   -0.19759      0.99960     2.18851    0.00947     3.19759
      C   11   -0.08588      0.99961     2.07576    0.01051     3.08588
      N   12   -0.31394      0.99967     2.80569    0.00859     3.81394
      C   13    0.34041      0.99963     1.63598    0.02398     2.65959
      O   14   -0.33674      0.99988     3.33192    0.00494     4.33674
      C   15   -0.16472      0.99953     2.15552    0.00968     3.16472
      C   16   -0.18687      0.99960     2.17814    0.00913     3.18687
      C   17   -0.09763      0.99960     2.08776    0.01026     3.09763
      C   18   -0.29328      0.99964     2.28731    0.00633     3.29328
      H   19    0.09477      0.00000     0.40433    0.00089     0.40523
      H   20    0.09846      0.00000     0.40078    0.00075     0.40154
      H   21    0.09738      0.00000     0.40149    0.00113     0.40262
      H   22    0.09203      0.00000     0.40674    0.00122     0.40797
      H   23    0.09850      0.00000     0.40036    0.00114     0.40150
      H   24    0.10056      0.00000     0.39797    0.00147     0.39944
      H   25    0.09622      0.00000     0.40195    0.00183     0.40378
      H   26    0.09973      0.00000     0.39785    0.00241     0.40027
      H   27    0.10497      0.00000     0.39396    0.00107     0.39503
      H   28    0.10068      0.00000     0.39844    0.00088     0.39932
      H   29    0.11547      0.00000     0.38353    0.00101     0.38453
      H   30    0.11039      0.00000     0.38812    0.00149     0.38961
      H   31    0.24407      0.00000     0.24114    0.01479     0.25593
      H   32    0.10273      0.00000     0.39601    0.00126     0.39727
      H   33    0.10348      0.00000     0.39433    0.00219     0.39652
      H   34    0.09766      0.00000     0.40129    0.00106     0.40234
      H   35    0.10096      0.00000     0.39739    0.00164     0.39904
      H   36    0.19178      0.00000     0.30613    0.00209     0.30822
      H   37    0.11207      0.00000     0.38520    0.00273     0.38793
      H   38    0.10416      0.00000     0.39502    0.00082     0.39584
      H   39    0.11202      0.00000     0.38700    0.00098     0.38798
      H   40    0.10496      0.00000     0.39336    0.00169     0.39504
      H   41    0.09884      0.00000     0.40042    0.00074     0.40116
      H   42    0.09759      0.00000     0.40173    0.00068     0.40241
      H   43    0.11346      0.00000     0.38555    0.00098     0.38654
 =======================================================================
   * Total *   -0.00000     17.99387    51.77616    0.22997    70.00000

 Normal termination of Gaussian 16 at Fri Dec 11 23:21:24 2020.
