 Gaussian 16, Revision A.03,

 -----------------------------------------------------------
 # opt freq B3LYP/6-31G(d) empiricaldispersion=gd3bj scf=xqc
 -----------------------------------------------------------

 -------------------------------
 CID_117008576_JID_5237_neutraal
 -------------------------------
 Symbolic Z-matrix:
 Charge =  0 Multiplicity = 1

 SCF Done:  E(RB3LYP) =  -692.424532245     A.U. after   14 cycles
 SCF Done:  E(RB3LYP) =  -692.429762569     A.U. after   12 cycles
 SCF Done:  E(RB3LYP) =  -692.430517924     A.U. after   11 cycles
 SCF Done:  E(RB3LYP) =  -692.430702527     A.U. after   11 cycles
 SCF Done:  E(RB3LYP) =  -692.431086099     A.U. after   11 cycles
 SCF Done:  E(RB3LYP) =  -692.431114900     A.U. after   11 cycles
 SCF Done:  E(RB3LYP) =  -692.431170655     A.U. after    9 cycles
 SCF Done:  E(RB3LYP) =  -692.431173261     A.U. after    9 cycles
 SCF Done:  E(RB3LYP) =  -692.431178111     A.U. after    9 cycles
 SCF Done:  E(RB3LYP) =  -692.431178760     A.U. after    7 cycles
 SCF Done:  E(RB3LYP) =  -692.431178916     A.U. after    7 cycles
 SCF Done:  E(RB3LYP) =  -692.431178972     A.U. after    6 cycles
 Optimization completed.
    -- Stationary point found.
 Normal termination of Gaussian 16 at Thu Dec 10 14:53:07 2020.

 --------------------------------------------------------------------
 #N Geom=AllCheck Guess=TCheck SCRF=Check GenChk RB3LYP/6-31G(d) Freq
 --------------------------------------------------------------------

 Structure from the checkpoint file:  "JID_5237.chk"
 -------------------------------
 CID_117008576_JID_5237_neutraal
 -------------------------------
 Charge =  0 Multiplicity = 1

 SCF Done:  E(RB3LYP) =  -692.431178972     A.U. after    1 cycles

  Exact polarizability: 158.547  -8.920 131.571   0.472   3.375 111.802
 Approx polarizability: 191.085 -15.028 187.329  -1.843  10.972 170.916

                      1                      2                      3
                      A                      A                      A
 Frequencies --     20.1772                50.1416                58.2713
 Red. masses --      3.8789                 3.5055                 2.7657
 Frc consts  --      0.0009                 0.0052                 0.0055
 IR Inten    --      0.0156                 1.6476                 0.1089

                      4                      5                      6
                      A                      A                      A
 Frequencies --     72.9394                85.4230               106.4214
 Red. masses --      3.5813                 3.0763                 3.3932
 Frc consts  --      0.0112                 0.0132                 0.0226
 IR Inten    --      0.5656                 2.2784                 4.7090

                      7                      8                      9
                      A                      A                      A
 Frequencies --    133.9773               160.1133               165.3542
 Red. masses --      2.0282                 2.4317                 2.1777
 Frc consts  --      0.0214                 0.0367                 0.0351
 IR Inten    --      0.8668                 0.8514                 1.0649

                     10                     11                     12
                      A                      A                      A
 Frequencies --    192.1205               225.7167               258.3100
 Red. masses --      2.0609                 3.4621                 1.4185
 Frc consts  --      0.0448                 0.1039                 0.0558
 IR Inten    --      1.0097                 1.4587                 1.2283

                     13                     14                     15
                      A                      A                      A
 Frequencies --    270.8558               296.0530               327.5458
 Red. masses --      1.4109                 2.3059                 2.4940
 Frc consts  --      0.0610                 0.1191                 0.1577
 IR Inten    --      0.5410                 2.4088                 0.6016

                     16                     17                     18
                      A                      A                      A
 Frequencies --    334.0627               352.2391               384.2815
 Red. masses --      2.9317                 3.1443                 4.1403
 Frc consts  --      0.1928                 0.2298                 0.3602
 IR Inten    --      3.8813                 2.8798                 5.5202

                     19                     20                     21
                      A                      A                      A
 Frequencies --    384.4234               433.6217               474.1248
 Red. masses --      2.3058                 2.3233                 2.8567
 Frc consts  --      0.2008                 0.2574                 0.3784
 IR Inten    --     12.7866                 7.1762                 7.3054

                     22                     23                     24
                      A                      A                      A
 Frequencies --    510.9176               525.2175               555.3315
 Red. masses --      3.5372                 3.4681                 3.5659
 Frc consts  --      0.5440                 0.5637                 0.6479
 IR Inten    --      7.0129                 5.3020                 5.4558

                     25                     26                     27
                      A                      A                      A
 Frequencies --    658.7179               702.0849               741.9145
 Red. masses --      2.5644                 3.0255                 1.4859
 Frc consts  --      0.6556                 0.8787                 0.4819
 IR Inten    --      9.7368                 2.4327                 8.5008

                     28                     29                     30
                      A                      A                      A
 Frequencies --    766.0203               782.6428               853.1243
 Red. masses --      2.7503                 2.0544                 1.6138
 Frc consts  --      0.9509                 0.7414                 0.6920
 IR Inten    --      1.4910                 3.7523                 1.5376

                     31                     32                     33
                      A                      A                      A
 Frequencies --    880.2294               885.8518               920.8407
 Red. masses --      1.4344                 2.0165                 1.9919
 Frc consts  --      0.6548                 0.9323                 0.9952
 IR Inten    --     87.6410                15.1168                 4.6667

                     34                     35                     36
                      A                      A                      A
 Frequencies --    939.5009               963.3936               995.7912
 Red. masses --      2.1959                 1.6769                 2.2479
 Frc consts  --      1.1420                 0.9170                 1.3133
 IR Inten    --      1.9669                 2.0869                 7.9671

                     37                     38                     39
                      A                      A                      A
 Frequencies --   1005.4431              1011.6414              1031.7985
 Red. masses --      1.7150                 1.8180                 1.6208
 Frc consts  --      1.0215                 1.0962                 1.0166
 IR Inten    --     17.1616                 0.6285                 6.4044

                     40                     41                     42
                      A                      A                      A
 Frequencies --   1038.3366              1071.4357              1097.8689
 Red. masses --      2.3422                 2.1094                 2.0048
 Frc consts  --      1.4878                 1.4267                 1.4237
 IR Inten    --     11.0139                15.4973                 3.4102

                     43                     44                     45
                      A                      A                      A
 Frequencies --   1118.0754              1137.7578              1147.0803
 Red. masses --      1.9549                 1.9201                 1.8671
 Frc consts  --      1.4399                 1.4645                 1.4475
 IR Inten    --      0.6229                 3.0675                11.6123

                     46                     47                     48
                      A                      A                      A
 Frequencies --   1149.7521              1159.3085              1175.5536
 Red. masses --      2.1564                 2.8726                 2.1082
 Frc consts  --      1.6795                 2.2747                 1.7165
 IR Inten    --     11.7655                 7.0454                 8.6754

                     49                     50                     51
                      A                      A                      A
 Frequencies --   1187.6670              1212.3597              1217.6622
 Red. masses --      2.9514                 1.8931                 1.6612
 Frc consts  --      2.4528                 1.6394                 1.4512
 IR Inten    --    131.8512                18.5171                 3.0208

                     52                     53                     54
                      A                      A                      A
 Frequencies --   1246.7017              1272.2617              1283.8960
 Red. masses --      1.4307                 1.2800                 1.4557
 Frc consts  --      1.3102                 1.2207                 1.4137
 IR Inten    --      4.9108                 8.4238                26.0368

                     55                     56                     57
                      A                      A                      A
 Frequencies --   1293.1313              1300.7755              1324.1661
 Red. masses --      1.3925                 1.3508                 1.3650
 Frc consts  --      1.3719                 1.3466                 1.4101
 IR Inten    --     21.9842                 7.6141                44.8867

                     58                     59                     60
                      A                      A                      A
 Frequencies --   1338.2253              1351.5868              1372.7176
 Red. masses --      1.2647                 1.1841                 1.4575
 Frc consts  --      1.3344                 1.2744                 1.6182
 IR Inten    --      0.1781                21.2713                 3.4408

                     61                     62                     63
                      A                      A                      A
 Frequencies --   1384.3558              1391.4355              1399.8750
 Red. masses --      1.5307                 1.4456                 1.4447
 Frc consts  --      1.7284                 1.6491                 1.6680
 IR Inten    --     35.0288                73.5277                 9.8105

                     64                     65                     66
                      A                      A                      A
 Frequencies --   1406.4492              1418.4894              1424.4324
 Red. masses --      1.4200                 1.4201                 1.3815
 Frc consts  --      1.6549                 1.6835                 1.6516
 IR Inten    --      3.0017                 5.8532                33.2074

                     67                     68                     69
                      A                      A                      A
 Frequencies --   1432.5415              1444.3438              1483.4544
 Red. masses --      1.3430                 1.2720                 1.1822
 Frc consts  --      1.6239                 1.5634                 1.5328
 IR Inten    --     16.5241                 4.3277                 7.4822

                     70                     71                     72
                      A                      A                      A
 Frequencies --   1485.4200              1507.7116              1515.8494
 Red. masses --      1.6412                 1.1601                 1.1108
 Frc consts  --      2.1336                 1.5537                 1.5039
 IR Inten    --     64.9939                18.7858                10.9579

                     73                     74                     75
                      A                      A                      A
 Frequencies --   1517.1055              1524.3775              1524.8299
 Red. masses --      1.0706                 1.0847                 1.0911
 Frc consts  --      1.4518                 1.4851                 1.4947
 IR Inten    --     19.3992                 3.8259                 9.9917

                     76                     77                     78
                      A                      A                      A
 Frequencies --   1525.8541              1529.8434              1534.3822
 Red. masses --      1.0975                 1.1732                 1.0642
 Frc consts  --      1.5056                 1.6178                 1.4762
 IR Inten    --      7.7361                 5.4879                 7.2908

                     79                     80                     81
                      A                      A                      A
 Frequencies --   1542.5621              1545.5775              1547.8172
 Red. masses --      1.0717                 1.1705                 1.1250
 Frc consts  --      1.5024                 1.6474                 1.5880
 IR Inten    --      3.5332                13.7885                62.2139

                     82                     83                     84
                      A                      A                      A
 Frequencies --   1549.2533              1734.8608              2925.5315
 Red. masses --      1.1120                 8.8792                 1.0726
 Frc consts  --      1.5725                15.7453                 5.4090
 IR Inten    --      8.2014               238.9131                51.3253

                     85                     86                     87
                      A                      A                      A
 Frequencies --   2944.4760              2999.0891              3002.8926
 Red. masses --      1.0622                 1.0766                 1.0766
 Frc consts  --      5.4261                 5.7054                 5.7200
 IR Inten    --    121.0535                14.0162                67.0962

                     88                     89                     90
                      A                      A                      A
 Frequencies --   3032.8605              3035.3393              3039.3255
 Red. masses --      1.0609                 1.0628                 1.0597
 Frc consts  --      5.7497                 5.7693                 5.7672
 IR Inten    --     20.9627                25.2123                42.6896

                     91                     92                     93
                      A                      A                      A
 Frequencies --   3045.6424              3053.6631              3063.7085
 Red. masses --      1.0394                 1.0701                 1.0954
 Frc consts  --      5.6808                 5.8791                 6.0576
 IR Inten    --     14.3567                 6.3572                23.8846

                     94                     95                     96
                      A                      A                      A
 Frequencies --   3064.5151              3069.3553              3072.9753
 Red. masses --      1.0740                 1.0868                 1.0939
 Frc consts  --      5.9424                 6.0327                 6.0863
 IR Inten    --     52.2406                44.2585                78.9825

                     97                     98                     99
                      A                      A                      A
 Frequencies --   3076.4636              3078.1304              3110.7068
 Red. masses --      1.0781                 1.0907                 1.0981
 Frc consts  --      6.0118                 6.0890                 6.2603
 IR Inten    --     14.1058                50.1891                22.6452

                    100                    101                    102
                      A                      A                      A
 Frequencies --   3111.9870              3116.6516              3118.0181
 Red. masses --      1.1006                 1.1017                 1.1006
 Frc consts  --      6.2797                 6.3052                 6.3040
 IR Inten    --     47.3540                46.7065                37.0933

                    103                    104                    105
                      A                      A                      A
 Frequencies --   3121.8875              3128.0939              3496.6676
 Red. masses --      1.0949                 1.1048                 1.0740
 Frc consts  --      6.2873                 6.3694                 7.7370
 IR Inten    --     35.0060                18.7592                40.7981

 - Thermochemistry -
 -------------------
 Temperature   298.150 Kelvin.  Pressure   1.00000 Atm.
 Atom     1 has atomic number  6 and mass  12.00000

 Molecular mass:   214.16813 amu.
 Principal axes and moments of inertia in atomic units:
                           1         2         3
     Eigenvalues --  1901.763705743.770406581.10431
           X            0.99997  -0.00631   0.00335
           Y            0.00641   0.99955  -0.02915
           Z           -0.00316   0.02917   0.99957
 This molecule is an asymmetric top.
 Rotational symmetry number  1.
 Warning -- assumption of classical behavior for rotation
           may cause significant error
 Rotational temperatures (Kelvin)      0.04554     0.01508     0.01316
 Rotational constants (GHZ):           0.94898     0.31421     0.27423
 Zero-point vibrational energy     879804.1 (Joules/Mol)
                                  210.27822 (Kcal/Mol)
 Warning -- explicit consideration of  24 degrees of freedom as
           vibrations may cause significant error
 Vibrational temperatures:     29.03    72.14    83.84   104.94   122.90
          (Kelvin)            153.12   192.76   230.37   237.91   276.42
                              324.76   371.65   389.70   425.95   471.27
                              480.64   506.79   552.90   553.10   623.88
                              682.16   735.10   755.67   799.00   947.75
                             1010.14  1067.45  1102.13  1126.05  1227.46
                             1266.45  1274.54  1324.88  1351.73  1386.11
                             1432.72  1446.61  1455.53  1484.53  1493.93
                             1541.56  1579.59  1608.66  1636.98  1650.39
                             1654.24  1667.99  1691.36  1708.79  1744.32
                             1751.94  1793.73  1830.50  1847.24  1860.53
                             1871.53  1905.18  1925.41  1944.63  1975.03
                             1991.78  2001.97  2014.11  2023.57  2040.89
                             2049.44  2061.11  2078.09  2134.36  2137.19
                             2169.26  2180.97  2182.78  2193.24  2193.89
                             2195.36  2201.10  2207.63  2219.40  2223.74
                             2226.96  2229.03  2496.08  4209.19  4236.44
                             4315.02  4320.49  4363.61  4367.18  4372.91
                             4382.00  4393.54  4407.99  4409.15  4416.12
                             4421.33  4426.35  4428.74  4475.61  4477.46
                             4484.17  4486.13  4491.70  4500.63  5030.92

 Zero-point correction=                           0.335100 (Hartree/Particle)
 Thermal correction to Energy=                    0.351477
 Thermal correction to Enthalpy=                  0.352421
 Thermal correction to Gibbs Free Energy=         0.290050
 Sum of electronic and zero-point Energies=           -692.096079
 Sum of electronic and thermal Energies=              -692.079702
 Sum of electronic and thermal Enthalpies=            -692.078758
 Sum of electronic and thermal Free Energies=         -692.141129

                     E (Thermal)             CV                S
                      KCal/Mol        Cal/Mol-Kelvin    Cal/Mol-Kelvin
 Total                  220.555             60.717            131.271
 Electronic               0.000              0.000              0.000
 Translational            0.889              2.981             41.988
 Rotational               0.889              2.981             32.641
 Vibrational            218.778             54.756             56.642
 Vibration     1          0.593              1.986              6.617
 Vibration     2          0.595              1.978              4.812
 Vibration     3          0.596              1.974              4.515
 Vibration     4          0.599              1.967              4.072
 Vibration     5          0.601              1.959              3.762
 Vibration     6          0.605              1.944              3.333
 Vibration     7          0.613              1.919              2.888
 Vibration     8          0.622              1.891              2.548
 Vibration     9          0.624              1.885              2.488
 Vibration    10          0.634              1.851              2.207
 Vibration    11          0.650              1.802              1.913
 Vibration    12          0.667              1.749              1.673
 Vibration    13          0.675              1.727              1.591
 Vibration    14          0.690              1.681              1.439
 Vibration    15          0.711              1.620              1.272
 Vibration    16          0.716              1.607              1.240
 Vibration    17          0.729              1.571              1.156
 Vibration    18          0.753              1.504              1.022
 Vibration    19          0.753              1.503              1.022
 Vibration    20          0.794              1.397              0.847
 Vibration    21          0.831              1.307              0.726
 Vibration    22          0.866              1.226              0.631
 Vibration    23          0.880              1.194              0.598
 Vibration    24          0.911              1.128              0.533

 Optimization completed.
    -- Stationary point found.
 Normal termination of Gaussian 16 at Thu Dec 10 15:06:14 2020.

 ----------------------------------------------------------------------
 # B3LYP/6-311++G(d,p) empiricaldispersion=gd3bj scf=xqc pop=npa geom=c
 heck
 ----------------------------------------------------------------------

 ---------------------------------------
 CID_117008576_JID_5237_Energie_neutraal
 ---------------------------------------
 Structure from the checkpoint file:  "JID_5237.chk"
 Charge =  0 Multiplicity = 1

 SCF Done:  E(RB3LYP) =  -692.631909301     A.U. after   14 cycles
 Normal termination of Gaussian 16 at Thu Dec 10 15:12:58 2020.

 ----------------------------------------------------------------------
 # B3LYP/6-311++G(d,p) empiricaldispersion=gd3bj scf=xqc pop=npa geom=c
 heck
 ----------------------------------------------------------------------

 -------------------------------------
 CID_117008576_JID_5237_Energie_kation
 -------------------------------------
 Structure from the checkpoint file:  "JID_5237.chk"
 Charge =  1 Multiplicity = 2

 SCF Done:  E(UB3LYP) =  -692.334129106     A.U. after   25 cycles
 Normal termination of Gaussian 16 at Thu Dec 10 15:30:05 2020.
 Gaussian 16:  ES64L-G16RevA.03 25-Dec-2016

 ----------------------------------------------------------------------
 # B3LYP/6-311++G(d,p) empiricaldispersion=gd3bj scf=xqc pop=npa geom=c
 heck
 ----------------------------------------------------------------------

 ------------------------------------
 CID_117008576_JID_5237_Energie_anion
 ------------------------------------
 Structure from the checkpoint file:  "JID_5237.chk"
 Charge = -1 Multiplicity = 2

                         Standard orientation:
 ---------------------------------------------------------------------
 Center     Atomic      Atomic             Coordinates (Angstroms)
 Number     Number       Type             X           Y           Z
 ---------------------------------------------------------------------
      1          6           0       -4.931353   -0.759999    0.380698
      2          6           0       -3.678084   -0.170446    1.034790
      3          6           0       -2.436070   -1.068897    0.925922
      4          6           0       -1.978052   -1.394805   -0.501903
      5          6           0       -1.566961   -0.180536   -1.344375
      6          7           0       -0.473906    0.601852   -0.754148
      7          6           0       -0.778865    1.857859   -0.072648
      8          6           0        0.484058    2.687615    0.077847
      9          8           0        1.482498    1.913088    0.712149
     10          6           0        1.921299    0.848343   -0.124004
     11          6           0        0.782433    0.079588   -0.806378
     12          8           0        1.026026   -0.977974   -1.394381
     13          6           0        2.762367   -0.088273    0.747345
     14          7           0        3.611064   -0.938998   -0.069225
     15          6           0        4.365263   -1.894758    0.727513
     16          1           0       -4.812870   -0.867589   -0.703273
     17          1           0       -5.805100   -0.122232    0.554073
     18          1           0       -5.155939   -1.753501    0.787753
     19          1           0       -3.471449    0.814941    0.595982
     20          1           0       -3.879535    0.014277    2.097999
     21          1           0       -1.602959   -0.603789    1.469705
     22          1           0       -2.641520   -2.014582    1.445615
     23          1           0       -1.122523   -2.075812   -0.462129
     24          1           0       -2.772209   -1.923353   -1.044599
     25          1           0       -1.235948   -0.524453   -2.328077
     26          1           0       -2.408982    0.503414   -1.489396
     27          1           0       -1.211519    1.664167    0.917415
     28          1           0       -1.524668    2.405301   -0.662415
     29          1           0        0.297523    3.557200    0.713806
     30          1           0        0.832291    3.039675   -0.906914
     31          1           0        2.566358    1.239604   -0.927822
     32          1           0        3.391685    0.547221    1.382564
     33          1           0        2.086939   -0.648600    1.424081
     34          1           0        3.007198   -1.427239   -0.729082
     35          1           0        3.741453   -2.533338    1.382442
     36          1           0        4.942348   -2.546874    0.064095
     37          1           0        5.074907   -1.359481    1.370796
 ---------------------------------------------------------------------

 SCF Done:  E(UB3LYP) =  -692.620421777     A.U. after   31 cycles

 The electronic state is 2-A.
 Alpha  occ. eigenvalues --  -19.04499 -19.00015 -14.25640 -14.20900 -10.18174
 Alpha  occ. eigenvalues --  -10.14462 -10.13079 -10.11488 -10.10985 -10.10856
 Alpha  occ. eigenvalues --  -10.10845 -10.07117 -10.06967 -10.06611 -10.05946
 Alpha  occ. eigenvalues --   -0.97103  -0.94552  -0.84893  -0.82053  -0.71015
 Alpha  occ. eigenvalues --   -0.69308  -0.66500  -0.63526  -0.60162  -0.57577
 Alpha  occ. eigenvalues --   -0.56112  -0.53581  -0.52374  -0.47307  -0.44299
 Alpha  occ. eigenvalues --   -0.43282  -0.41971  -0.41127  -0.38412  -0.38046
 Alpha  occ. eigenvalues --   -0.37284  -0.36310  -0.34913  -0.34457  -0.33786
 Alpha  occ. eigenvalues --   -0.33672  -0.32282  -0.31452  -0.31009  -0.29685
 Alpha  occ. eigenvalues --   -0.28917  -0.28654  -0.28062  -0.27389  -0.26960
 Alpha  occ. eigenvalues --   -0.25585  -0.24350  -0.23333  -0.22742  -0.22434
 Alpha  occ. eigenvalues --   -0.19871  -0.15928  -0.15733  -0.14403   0.04294
 Alpha virt. eigenvalues --    0.06082   0.06495   0.07439   0.08079   0.08407
 Alpha virt. eigenvalues --    0.08921   0.09156   0.09582   0.09928   0.10419
 Alpha virt. eigenvalues --    0.10856   0.11395   0.11893   0.12103   0.12485

  Beta  occ. eigenvalues --  -19.04492 -19.00013 -14.25641 -14.20899 -10.18169
  Beta  occ. eigenvalues --  -10.14460 -10.13045 -10.11450 -10.10981 -10.10841
  Beta  occ. eigenvalues --  -10.10838 -10.07111 -10.06957 -10.06587 -10.05911
  Beta  occ. eigenvalues --   -0.97091  -0.94545  -0.84879  -0.82049  -0.70986
  Beta  occ. eigenvalues --   -0.69281  -0.66465  -0.63489  -0.60130  -0.57545
  Beta  occ. eigenvalues --   -0.56060  -0.53550  -0.52322  -0.47249  -0.44270
  Beta  occ. eigenvalues --   -0.43250  -0.41939  -0.41100  -0.38389  -0.38006
  Beta  occ. eigenvalues --   -0.37253  -0.36291  -0.34886  -0.34435  -0.33748
  Beta  occ. eigenvalues --   -0.33645  -0.32238  -0.31422  -0.30976  -0.29665
  Beta  occ. eigenvalues --   -0.28901  -0.28626  -0.28040  -0.27357  -0.26936
  Beta  occ. eigenvalues --   -0.25561  -0.24320  -0.23301  -0.22711  -0.22399
  Beta  occ. eigenvalues --   -0.19841  -0.15912  -0.15717  -0.14395
  Beta virt. eigenvalues --    0.05971   0.06804   0.07343   0.07903   0.08518
  Beta virt. eigenvalues --    0.08775   0.08976   0.09676   0.09913   0.10134
  Beta virt. eigenvalues --    0.10690   0.11278   0.11615   0.12089   0.12451

 Mulliken charges and spin densities:
               1          2
     1  C    0.906567  -1.561150
     2  C   -0.370417   0.225948
     3  C    0.058766  -0.240932
     4  C   -0.149569  -0.023050
     5  C    0.026674  -0.316453
     6  N   -0.060092   0.240065
     7  C    0.267115  -0.423044
     8  C    1.321685  -1.725362
     9  O   -0.065743   0.052832
    10  C   -0.367189  -0.253799
    11  C   -0.157432   0.175876
    12  O   -0.354215   0.007831
    13  C    0.074332  -0.489890
    14  N   -0.113872   0.026669
    15  C   -0.219529  -0.126318
    16  H   -0.236737   0.371330
    17  H   -0.457513   0.607445
    18  H   -0.000765   0.132180
    19  H   -0.071894   0.230220
    20  H   -0.386859   0.539493
    21  H    0.084246   0.066409
    22  H   -0.102070   0.254422
    23  H    0.203412  -0.022698
    24  H    0.039213   0.111785
    25  H    0.065744   0.143050
    26  H   -0.220300   0.399105
    27  H    0.128877   0.060813
    28  H   -0.827864   1.018941
    29  H   -0.799470   1.006263
    30  H   -0.095903   0.245771
    31  H    0.138127   0.085202
    32  H    0.120126   0.046119
    33  H    0.120126   0.013554
    34  H    0.252635   0.005951
    35  H    0.068875   0.042617
    36  H    0.104160   0.019254
    37  H    0.076754   0.053552
 Sum of Mulliken charges =  -1.00000   1.00000

 Dipole moment (field-independent basis, Debye):
    X=              7.6863    Y=             -5.8061    Z=              0.0634  Tot=              9.6330
 Quadrupole moment (field-independent basis, Debye-Ang):
   XX=           -182.1124   YY=           -148.5188   ZZ=           -130.5516
   XY=              7.4324   XZ=              6.2579   YZ=             -1.2986

 Summary of Natural Population Analysis:

                                       Natural Population
                Natural  -----------------------------------------------
    Atom  No    Charge         Core      Valence    Rydberg      Total
 -----------------------------------------------------------------------
      C    1   -0.28672      0.99967     2.28124    0.00582     3.28672
      C    2   -0.19419      0.99964     2.18609    0.00846     3.19419
      C    3   -0.19074      0.99962     2.18284    0.00827     3.19074
      C    4   -0.19652      0.99961     2.18997    0.00694     3.19652
      C    5   -0.08617      0.99960     2.07458    0.01199     3.08617
      N    6   -0.24839      0.99964     2.73663    0.01212     3.74839
      C    7   -0.09174      0.99960     2.08044    0.01171     3.09174
      C    8   -0.01388      0.99958     2.00044    0.01386     3.01388
      O    9   -0.29708      0.99988     3.28800    0.00920     4.29708
      C   10    0.02632      0.99951     1.95729    0.01689     2.97368
      C   11    0.33487      0.99961     1.64169    0.02383     2.66513
      O   12   -0.34138      0.99988     3.33621    0.00529     4.34138
      C   13   -0.08643      0.99961     2.07591    0.01092     3.08643
      N   14   -0.34403      0.99974     2.83447    0.00982     3.84403
      C   15   -0.17717      0.99968     2.17098    0.00652     3.17717
      H   16    0.09511      0.00000     0.40373    0.00116     0.40489
      H   17    0.10232      0.00000     0.39644    0.00125     0.39768
      H   18    0.09357      0.00000     0.40541    0.00103     0.40643
      H   19    0.09547      0.00000     0.40244    0.00209     0.40453
      H   20    0.09693      0.00000     0.40177    0.00130     0.40307
      H   21    0.09648      0.00000     0.40194    0.00158     0.40352
      H   22    0.09564      0.00000     0.40341    0.00095     0.40436
      H   23    0.10605      0.00000     0.39278    0.00117     0.39395
      H   24    0.09764      0.00000     0.40137    0.00098     0.40236
      H   25    0.10692      0.00000     0.39204    0.00104     0.39308
      H   26    0.10038      0.00000     0.39805    0.00157     0.39962
      H   27    0.09711      0.00000     0.40079    0.00211     0.40289
      H   28    0.10670      0.00000     0.38893    0.00437     0.39330
      H   29    0.10073      0.00000     0.39713    0.00214     0.39927
      H   30    0.08114      0.00000     0.41691    0.00195     0.41886
      H   31    0.09526      0.00000     0.40255    0.00219     0.40474
      H   32    0.09709      0.00000     0.40121    0.00170     0.40291
      H   33    0.08162      0.00000     0.41666    0.00171     0.41838
      H   34    0.19057      0.00000     0.30665    0.00278     0.30943
      H   35    0.07660      0.00000     0.42145    0.00195     0.42340
      H   36    0.09241      0.00000     0.40669    0.00091     0.40759
      H   37    0.08752      0.00000     0.41106    0.00142     0.41248
 =======================================================================
   * Total *    0.00000     14.99486    43.80617    0.19897    59.00000

 Normal termination of Gaussian 16 at Thu Dec 10 15:50:28 2020.
