 Gaussian 16, Revision A.03,

 -----------------------------------------------------------
 # opt freq B3LYP/6-31G(d) empiricaldispersion=gd3bj scf=xqc
 -----------------------------------------------------------

 ------------------------------
 CID_55000924_JID_8288_neutraal
 ------------------------------
 Symbolic Z-matrix:
 Charge =  0 Multiplicity = 1

 SCF Done:  E(RB3LYP) =  -845.067087790     A.U. after   14 cycles
 SCF Done:  E(RB3LYP) =  -845.074270510     A.U. after   13 cycles
 SCF Done:  E(RB3LYP) =  -845.075483525     A.U. after   13 cycles
 SCF Done:  E(RB3LYP) =  -845.077451551     A.U. after   12 cycles
 SCF Done:  E(RB3LYP) =  -845.077885536     A.U. after   12 cycles
 SCF Done:  E(RB3LYP) =  -845.079618786     A.U. after   12 cycles
 SCF Done:  E(RB3LYP) =  -845.081822035     A.U. after   13 cycles
 SCF Done:  E(RB3LYP) =  -845.075254133     A.U. after   14 cycles
 SCF Done:  E(RB3LYP) =  -845.082630569     A.U. after   13 cycles
 SCF Done:  E(RB3LYP) =  -845.083381422     A.U. after   13 cycles
 SCF Done:  E(RB3LYP) =  -845.084201579     A.U. after    9 cycles
 SCF Done:  E(RB3LYP) =  -845.084204270     A.U. after    9 cycles
 SCF Done:  E(RB3LYP) =  -845.084204773     A.U. after    8 cycles
 SCF Done:  E(RB3LYP) =  -845.084205109     A.U. after    7 cycles
 SCF Done:  E(RB3LYP) =  -845.084205273     A.U. after    7 cycles
 Optimization completed.
    -- Stationary point found.
 Normal termination of Gaussian 16 at Fri Dec 11 20:11:27 2020.

 --------------------------------------------------------------------
 #N Geom=AllCheck Guess=TCheck SCRF=Check GenChk RB3LYP/6-31G(d) Freq
 --------------------------------------------------------------------

 Structure from the checkpoint file:  "JID_8288.chk"
 ------------------------------
 CID_55000924_JID_8288_neutraal
 ------------------------------
 Charge =  0 Multiplicity = 1

 SCF Done:  E(RB3LYP) =  -845.084205273     A.U. after    1 cycles

  Exact polarizability: 166.186  -3.228 152.809  12.469  -2.446 142.890
 Approx polarizability: 211.256   3.705 228.554  20.035  -8.419 209.896

                      1                      2                      3
                      A                      A                      A
 Frequencies --     13.3627                28.6210                33.3794
 Red. masses --      3.3459                 4.4970                 5.4537
 Frc consts  --      0.0004                 0.0022                 0.0036
 IR Inten    --      0.0177                 0.1567                 0.5247

                      4                      5                      6
                      A                      A                      A
 Frequencies --     53.2207                63.5154                68.3243
 Red. masses --      4.5428                 3.5591                 3.8966
 Frc consts  --      0.0076                 0.0085                 0.0107
 IR Inten    --      3.5942                 1.1070                 0.3355

                      7                      8                      9
                      A                      A                      A
 Frequencies --     78.8256                90.7925               107.1464
 Red. masses --      4.1637                 4.3594                 2.6700
 Frc consts  --      0.0152                 0.0212                 0.0181
 IR Inten    --      2.7856                 1.1172                 0.6729

                     10                     11                     12
                      A                      A                      A
 Frequencies --    127.4054               140.5807               171.4723
 Red. masses --      4.0738                 3.5704                 1.3392
 Frc consts  --      0.0390                 0.0416                 0.0232
 IR Inten    --      1.4185                 1.7430                 0.0799

                     13                     14                     15
                      A                      A                      A
 Frequencies --    204.0852               220.1142               231.8076
 Red. masses --      2.2548                 1.3142                 1.9223
 Frc consts  --      0.0553                 0.0375                 0.0609
 IR Inten    --      0.8221                 0.0368                 1.5557

                     16                     17                     18
                      A                      A                      A
 Frequencies --    245.1755               253.0684               291.3169
 Red. masses --      1.2284                 2.6504                 2.6705
 Frc consts  --      0.0435                 0.1000                 0.1335
 IR Inten    --      1.2744                 0.9783                 0.2301

                     19                     20                     21
                      A                      A                      A
 Frequencies --    296.7069               322.8170               374.5901
 Red. masses --      3.0810                 2.5007                 2.7357
 Frc consts  --      0.1598                 0.1535                 0.2262
 IR Inten    --      0.5672                 1.4134                 9.4767

                     22                     23                     24
                      A                      A                      A
 Frequencies --    379.2579               400.7427               421.0750
 Red. masses --      2.9256                 2.7054                 2.1074
 Frc consts  --      0.2479                 0.2560                 0.2202
 IR Inten    --     11.9050                 3.5547                 0.4121

                     25                     26                     27
                      A                      A                      A
 Frequencies --    456.0694               464.5650               492.6597
 Red. masses --      2.4282                 2.3277                 2.9303
 Frc consts  --      0.2976                 0.2960                 0.4190
 IR Inten    --      1.8367                 9.8873                 3.8037

                     28                     29                     30
                      A                      A                      A
 Frequencies --    517.0751               518.1357               575.0642
 Red. masses --      2.7818                 1.9898                 3.3099
 Frc consts  --      0.4382                 0.3147                 0.6449
 IR Inten    --     15.0770                 9.7394                31.0135

                     31                     32                     33
                      A                      A                      A
 Frequencies --    598.2875               639.6215               683.8328
 Red. masses --      3.4599                 3.5711                 1.5033
 Frc consts  --      0.7297                 0.8608                 0.4142
 IR Inten    --      8.1516                 7.8619                97.7339

                     34                     35                     36
                      A                      A                      A
 Frequencies --    713.8989               761.1263               777.5769
 Red. masses --      3.3074                 8.0553                 1.9952
 Frc consts  --      0.9932                 2.7494                 0.7108
 IR Inten    --      9.4054                13.6472                35.2115

                     37                     38                     39
                      A                      A                      A
 Frequencies --    794.8312               826.7485               836.2807
 Red. masses --      1.2355                 2.5584                 2.9338
 Frc consts  --      0.4599                 1.0303                 1.2089
 IR Inten    --      4.0153                 2.4497                 3.2751

                     40                     41                     42
                      A                      A                      A
 Frequencies --    849.3583               870.5165               904.6629
 Red. masses --      1.4081                 2.0869                 2.4647
 Frc consts  --      0.5985                 0.9318                 1.1884
 IR Inten    --     14.5705                 9.0255                 1.0086

                     43                     44                     45
                      A                      A                      A
 Frequencies --    921.0687               939.5577               949.8293
 Red. masses --      1.9937                 1.3419                 1.8176
 Frc consts  --      0.9965                 0.6979                 0.9661
 IR Inten    --      0.5645                 1.6796                22.4268

                     46                     47                     48
                      A                      A                      A
 Frequencies --    958.4039               977.7900               982.6995
 Red. masses --      2.2554                 2.4440                 1.5784
 Frc consts  --      1.2206                 1.3767                 0.8980
 IR Inten    --      8.3709                14.7672                 3.1361

                     49                     50                     51
                      A                      A                      A
 Frequencies --   1011.2891              1049.6268              1067.9439
 Red. masses --      1.8452                 1.7990                 1.4086
 Frc consts  --      1.1119                 1.1678                 0.9465
 IR Inten    --     31.3548                 5.7701                11.4787

                     52                     53                     54
                      A                      A                      A
 Frequencies --   1076.9297              1088.4991              1115.1310
 Red. masses --      1.8249                 1.3867                 2.4163
 Frc consts  --      1.2470                 0.9681                 1.7703
 IR Inten    --     13.2904                 0.3560                 9.2727

                     55                     56                     57
                      A                      A                      A
 Frequencies --   1121.1585              1147.3815              1155.8850
 Red. masses --      2.0808                 1.1646                 2.1762
 Frc consts  --      1.5410                 0.9033                 1.7131
 IR Inten    --     31.3601                 3.8423                 3.9085

                     58                     59                     60
                      A                      A                      A
 Frequencies --   1158.7988              1169.4882              1179.3667
 Red. masses --      1.3174                 1.6885                 1.7798
 Frc consts  --      1.0423                 1.3607                 1.4586
 IR Inten    --      7.5752               141.1913                19.0350

                     61                     62                     63
                      A                      A                      A
 Frequencies --   1207.9921              1210.5482              1211.7820
 Red. masses --      1.6745                 1.5424                 1.7256
 Frc consts  --      1.4397                 1.3317                 1.4929
 IR Inten    --      0.8533                 5.0319                21.9003

                     64                     65                     66
                      A                      A                      A
 Frequencies --   1227.6548              1238.9365              1268.3068
 Red. masses --      2.3579                 1.4174                 2.2978
 Frc consts  --      2.0938                 1.2819                 2.1778
 IR Inten    --     17.9995                80.2291                46.2771

                     67                     68                     69
                      A                      A                      A
 Frequencies --   1282.4043              1302.5786              1334.1585
 Red. masses --      2.0490                 1.9554                 1.4423
 Frc consts  --      1.9853                 1.9547                 1.5126
 IR Inten    --     27.0533                58.1520                87.8706

                     70                     71                     72
                      A                      A                      A
 Frequencies --   1351.6748              1358.9063              1381.0060
 Red. masses --      1.2576                 1.5702                 1.6862
 Frc consts  --      1.3537                 1.7084                 1.8948
 IR Inten    --      5.6796                19.6431                13.4189

                     73                     74                     75
                      A                      A                      A
 Frequencies --   1391.8336              1401.8232              1406.7402
 Red. masses --      1.7125                 1.8908                 1.4834
 Frc consts  --      1.9545                 2.1892                 1.7296
 IR Inten    --     66.0956                20.1318                25.4921

                     76                     77                     78
                      A                      A                      A
 Frequencies --   1414.8879              1419.5005              1422.7510
 Red. masses --      1.5440                 1.5264                 1.3474
 Frc consts  --      1.8211                 1.8122                 1.6069
 IR Inten    --     44.2659                38.1341                13.1067

                     79                     80                     81
                      A                      A                      A
 Frequencies --   1429.5281              1447.8397              1452.4962
 Red. masses --      1.2994                 1.3839                 1.4583
 Frc consts  --      1.5645                 1.7092                 1.8127
 IR Inten    --      4.4867                81.1327                79.8451

                     82                     83                     84
                      A                      A                      A
 Frequencies --   1488.4706              1490.6236              1500.8767
 Red. masses --      1.0875                 1.0954                 1.2058
 Frc consts  --      1.4196                 1.4340                 1.6003
 IR Inten    --      2.3032                 6.7345                27.1214

                     85                     86                     87
                      A                      A                      A
 Frequencies --   1507.9722              1511.7682              1518.3429
 Red. masses --      1.1091                 1.0784                 1.1112
 Frc consts  --      1.4860                 1.4521                 1.5093
 IR Inten    --      8.8244                 3.9636                30.2685

                     88                     89                     90
                      A                      A                      A
 Frequencies --   1519.9243              1525.0976              1527.0544
 Red. masses --      1.0517                 1.0964                 1.0494
 Frc consts  --      1.4315                 1.5025                 1.4418
 IR Inten    --      3.0881                15.1009                13.5839

                     91                     92                     93
                      A                      A                      A
 Frequencies --   1532.9922              1534.7738              1541.6204
 Red. masses --      1.2171                 1.1336                 1.0568
 Frc consts  --      1.6852                 1.5733                 1.4798
 IR Inten    --      7.3540                15.4747                10.8433

                     94                     95                     96
                      A                      A                      A
 Frequencies --   1549.5423              1727.0161              1855.3861
 Red. masses --      1.1298                 9.6220                 9.8290
 Frc consts  --      1.5983                16.9086                19.9356
 IR Inten    --     68.4983               282.7222               261.7596

                     97                     98                     99
                      A                      A                      A
 Frequencies --   3009.2043              3038.9438              3039.6339
 Red. masses --      1.0831                 1.0413                 1.0355
 Frc consts  --      5.7786                 5.6658                 5.6371
 IR Inten    --     23.0402                34.3774                26.2574

                    100                    101                    102
                      A                      A                      A
 Frequencies --   3042.0303              3046.7469              3057.1653
 Red. masses --      1.0639                 1.0362                 1.0703
 Frc consts  --      5.8006                 5.6670                 5.8938
 IR Inten    --     38.0750                22.0911                21.8110

                    103                    104                    105
                      A                      A                      A
 Frequencies --   3060.4709              3074.2541              3085.8058
 Red. masses --      1.0680                 1.0712                 1.1027
 Frc consts  --      5.8937                 5.9651                 6.1864
 IR Inten    --     41.6772                40.2081                38.2209

                    106                    107                    108
                      A                      A                      A
 Frequencies --   3092.5353              3103.7793              3110.0728
 Red. masses --      1.0973                 1.1018                 1.1021
 Frc consts  --      6.1832                 6.2538                 6.2807
 IR Inten    --     32.6955                23.9887                 9.5861

                    109                    110                    111
                      A                      A                      A
 Frequencies --   3113.1108              3114.7763              3119.0823
 Red. masses --      1.0918                 1.0978                 1.1009
 Frc consts  --      6.2343                 6.2750                 6.3101
 IR Inten    --      7.6139                91.6692                44.8753

                    112                    113                    114
                      A                      A                      A
 Frequencies --   3127.8561              3147.5361              3155.6037
 Red. masses --      1.0902                 1.0949                 1.0533
 Frc consts  --      6.2844                 6.3912                 6.1797
 IR Inten    --     23.8682                 9.1780                12.3573

                    115                    116                    117
                      A                      A                      A
 Frequencies --   3160.5803              3164.5332              3169.9322
 Red. masses --      1.0956                 1.0601                 1.0955
 Frc consts  --      6.4482                 6.2550                 6.4858
 IR Inten    --      5.0846                 8.6906                17.9453

                    118                    119                    120
                      A                      A                      A
 Frequencies --   3237.4900              3255.4218              3688.9253
 Red. masses --      1.1188                 1.1139                 1.0639
 Frc consts  --      6.9089                 6.9552                 8.5300
 IR Inten    --      4.1794                11.3277                49.9981

 - Thermochemistry -
 -------------------
 Temperature   298.150 Kelvin.  Pressure   1.00000 Atm.
 Atom     1 has atomic number  6 and mass  12.00000

 Molecular mass:   256.17869 amu.
 Principal axes and moments of inertia in atomic units:
                           1         2         3
     Eigenvalues --  3117.002576911.541497505.48209
           X            0.99950  -0.03120   0.00593
           Y            0.03107   0.99929   0.02111
           Z           -0.00659  -0.02092   0.99976
 This molecule is an asymmetric top.
 Rotational symmetry number  1.
 Warning -- assumption of classical behavior for rotation
           may cause significant error
 Rotational temperatures (Kelvin)      0.02779     0.01253     0.01154
 Rotational constants (GHZ):           0.57900     0.26112     0.24046
 Zero-point vibrational energy     973035.7 (Joules/Mol)
                                  232.56111 (Kcal/Mol)
 Warning -- explicit consideration of  31 degrees of freedom as
           vibrations may cause significant error
 Vibrational temperatures:     19.23    41.18    48.03    76.57    91.38
          (Kelvin)             98.30   113.41   130.63   154.16   183.31
                              202.26   246.71   293.63   316.70   333.52
                              352.75   364.11   419.14   426.90   464.46
                              538.95   545.67   576.58   605.83   656.18
                              668.41   708.83   743.96   745.48   827.39
                              860.80   920.27   983.88  1027.14  1095.09
                             1118.76  1143.58  1189.51  1203.22  1222.04
                             1252.48  1301.61  1325.21  1351.81  1366.59
                             1378.93  1406.82  1413.89  1455.02  1510.18
                             1536.53  1549.46  1566.11  1604.42  1613.10
                             1650.83  1663.06  1667.25  1682.63  1696.85
                             1738.03  1741.71  1743.48  1766.32  1782.55
                             1824.81  1845.09  1874.12  1919.56  1944.76
                             1955.16  1986.96  2002.54  2016.91  2023.99
                             2035.71  2042.34  2047.02  2056.77  2083.12
                             2089.82  2141.58  2144.67  2159.43  2169.64
                             2175.10  2184.56  2186.83  2194.28  2197.09
                             2205.63  2208.20  2218.05  2229.45  2484.79
                             2669.49  4329.57  4372.36  4373.36  4376.80
                             4383.59  4398.58  4403.34  4423.17  4439.79
                             4449.47  4465.65  4474.70  4479.07  4481.47
                             4487.66  4500.29  4528.60  4540.21  4547.37
                             4553.06  4560.83  4658.03  4683.83  5307.54

 Zero-point correction=                           0.370610 (Hartree/Particle)
 Thermal correction to Energy=                    0.391087
 Thermal correction to Enthalpy=                  0.392031
 Thermal correction to Gibbs Free Energy=         0.318969
 Sum of electronic and zero-point Energies=           -844.713596
 Sum of electronic and thermal Energies=              -844.693118
 Sum of electronic and thermal Enthalpies=            -844.692174
 Sum of electronic and thermal Free Energies=         -844.765237

                     E (Thermal)             CV                S
                      KCal/Mol        Cal/Mol-Kelvin    Cal/Mol-Kelvin
 Total                  245.411             74.912            153.773
 Electronic               0.000              0.000              0.000
 Translational            0.889              2.981             42.522
 Rotational               0.889              2.981             33.447
 Vibrational            243.633             68.951             77.804
 Vibration     1          0.593              1.987              7.435
 Vibration     2          0.593              1.984              5.923
 Vibration     3          0.594              1.983              5.618
 Vibration     4          0.596              1.976              4.694
 Vibration     5          0.597              1.972              4.345
 Vibration     6          0.598              1.969              4.201
 Vibration     7          0.600              1.963              3.920
 Vibration     8          0.602              1.956              3.643
 Vibration     9          0.606              1.944              3.320
 Vibration    10          0.611              1.926              2.985
 Vibration    11          0.615              1.913              2.796
 Vibration    12          0.626              1.878              2.419
 Vibration    13          0.640              1.834              2.096
 Vibration    14          0.647              1.810              1.958
 Vibration    15          0.653              1.792              1.865
 Vibration    16          0.660              1.771              1.765
 Vibration    17          0.664              1.758              1.709
 Vibration    18          0.687              1.690              1.466
 Vibration    19          0.690              1.680              1.435
 Vibration    20          0.708              1.630              1.296
 Vibration    21          0.746              1.524              1.061
 Vibration    22          0.749              1.514              1.042
 Vibration    23          0.767              1.469              0.960
 Vibration    24          0.784              1.424              0.888
 Vibration    25          0.814              1.347              0.778
 Vibration    26          0.822              1.329              0.753
 Vibration    27          0.848              1.266              0.677
 Vibration    28          0.872              1.212              0.617
 Vibration    29          0.873              1.210              0.614
 Vibration    30          0.931              1.085              0.495
 Vibration    31          0.956              1.035              0.453

                           ! Non-Optimized Parameters !
 Normal termination of Gaussian 16 at Fri Dec 11 20:32:28 2020.

 ----------------------------------------------------------------------
 # B3LYP/6-311++G(d,p) empiricaldispersion=gd3bj scf=xqc pop=npa geom=c
 heck
 ----------------------------------------------------------------------

 --------------------------------------
 CID_55000924_JID_8288_Energie_neutraal
 --------------------------------------
 Structure from the checkpoint file:  "JID_8288.chk"
 Charge =  0 Multiplicity = 1

 SCF Done:  E(RB3LYP) =  -845.334624529     A.U. after   14 cycles
 Normal termination of Gaussian 16 at Fri Dec 11 20:42:16 2020.

 ----------------------------------------------------------------------
 # B3LYP/6-311++G(d,p) empiricaldispersion=gd3bj scf=xqc pop=npa geom=c
 heck
 ----------------------------------------------------------------------

 ------------------------------------
 CID_55000924_JID_8288_Energie_kation
 ------------------------------------
 Structure from the checkpoint file:  "JID_8288.chk"
 Charge =  1 Multiplicity = 2

 SCF Done:  E(UB3LYP) =  -845.038308049     A.U. after   26 cycles
 Normal termination of Gaussian 16 at Fri Dec 11 21:07:54 2020.
 Gaussian 16:  ES64L-G16RevA.03 25-Dec-2016

 ----------------------------------------------------------------------
 # B3LYP/6-311++G(d,p) empiricaldispersion=gd3bj scf=xqc pop=npa geom=c
 heck
 ----------------------------------------------------------------------

 -----------------------------------
 CID_55000924_JID_8288_Energie_anion
 -----------------------------------
 Structure from the checkpoint file:  "JID_8288.chk"
 Charge = -1 Multiplicity = 2

                         Standard orientation:
 ---------------------------------------------------------------------
 Center     Atomic      Atomic             Coordinates (Angstroms)
 Number     Number       Type             X           Y           Z
 ---------------------------------------------------------------------
      1          6           0       -3.169057    1.038411    1.691792
      2          6           0       -3.461534    0.812424    0.205203
      3          6           0       -4.398843    1.890764   -0.349491
      4          6           0       -2.164932    0.784037   -0.620629
      5          7           0       -1.249671   -0.283477   -0.215394
      6          6           0       -1.543251   -1.600028   -0.711535
      7          6           0       -1.528316   -1.820942   -2.209841
      8          6           0       -0.468489   -2.443516   -1.343248
      9          6           0       -0.073881    0.092657    0.431871
     10          8           0        0.356932    1.245293    0.359624
     11          7           0        0.600491   -0.879852    1.150406
     12          6           0       -0.048931   -2.023616    1.772153
     13          6           0        1.943726   -0.528070    1.618536
     14          6           0        3.057687   -0.956679    0.654936
     15          6           0        2.998961   -0.292988   -0.725191
     16          6           0        3.160933    1.212878   -0.779527
     17          8           0        2.889336    1.895024   -1.740245
     18          8           0        3.713444    1.730800    0.347511
     19          1           0       -2.661773    1.998817    1.844643
     20          1           0       -2.518841    0.254082    2.093463
     21          1           0       -4.093997    1.045003    2.279769
     22          1           0       -3.959809   -0.162754    0.093999
     23          1           0       -3.939836    2.883909   -0.264950
     24          1           0       -4.627621    1.717663   -1.407839
     25          1           0       -5.346000    1.913337    0.200907
     26          1           0       -2.408152    0.654239   -1.681670
     27          1           0       -1.627357    1.727868   -0.514242
     28          1           0       -2.317065   -2.144056   -0.169355
     29          1           0       -2.297069   -2.455276   -2.641398
     30          1           0       -1.230227   -0.980363   -2.828785
     31          1           0        0.530821   -2.026784   -1.389711
     32          1           0       -0.499837   -3.513952   -1.162009
     33          1           0        0.243780   -2.074168    2.827550
     34          1           0       -1.132023   -1.909998    1.735714
     35          1           0        0.216764   -2.975775    1.296669
     36          1           0        1.981850    0.550064    1.775430
     37          1           0        2.099900   -1.019477    2.584446
     38          1           0        4.021986   -0.733463    1.125565
     39          1           0        3.014937   -2.044592    0.513160
     40          1           0        3.787668   -0.708235   -1.366925
     41          1           0        2.055994   -0.508110   -1.234682
     42          1           0        3.748047    2.694403    0.199871
 ---------------------------------------------------------------------

 SCF Done:  E(UB3LYP) =  -845.324754860     A.U. after   33 cycles
 SCF Done:  E(UB3LYP) =  -845.324754860     a.u. after    1 cycles

 The electronic state is 2-A.
 Alpha  occ. eigenvalues --  -19.08358 -19.02174 -18.97926 -14.23855 -14.23714
 Alpha  occ. eigenvalues --  -10.21585 -10.19331 -10.11971 -10.10159 -10.10005
 Alpha  occ. eigenvalues --  -10.09910 -10.09474 -10.08381 -10.08351 -10.08339
 Alpha  occ. eigenvalues --  -10.08148 -10.07460 -10.06483  -1.02125  -0.94912
 Alpha  occ. eigenvalues --   -0.93037  -0.84765  -0.82988  -0.75536  -0.71252
 Alpha  occ. eigenvalues --   -0.70476  -0.63400  -0.61257  -0.59684  -0.58479
 Alpha  occ. eigenvalues --   -0.55211  -0.53107  -0.51583  -0.50693  -0.47413
 Alpha  occ. eigenvalues --   -0.44704  -0.43427  -0.41498  -0.40392  -0.39634
 Alpha  occ. eigenvalues --   -0.39310  -0.38527  -0.37516  -0.36921  -0.35366
 Alpha  occ. eigenvalues --   -0.34743  -0.34108  -0.33110  -0.32663  -0.32143
 Alpha  occ. eigenvalues --   -0.31253  -0.30372  -0.29972  -0.29462  -0.29038
 Alpha  occ. eigenvalues --   -0.28541  -0.27818  -0.26840  -0.26338  -0.26209
 Alpha  occ. eigenvalues --   -0.25565  -0.24747  -0.23815  -0.23180  -0.22282
 Alpha  occ. eigenvalues --   -0.21099  -0.19095  -0.16726  -0.14579  -0.13764
 Alpha  occ. eigenvalues --    0.03967
 Alpha virt. eigenvalues --    0.05777   0.06513   0.06956   0.07344   0.08060
 Alpha virt. eigenvalues --    0.08412   0.08913   0.09219   0.09585   0.10030
 Alpha virt. eigenvalues --    0.10418   0.11016   0.11276   0.11514   0.12237

  Beta  occ. eigenvalues --  -19.08348 -19.02168 -18.97921 -14.23857 -14.23712
  Beta  occ. eigenvalues --  -10.21577 -10.19323 -10.11953 -10.10148 -10.09962
  Beta  occ. eigenvalues --  -10.09908 -10.09464 -10.08365 -10.08330 -10.08330
  Beta  occ. eigenvalues --  -10.08127 -10.07448 -10.06467  -1.02108  -0.94902
  Beta  occ. eigenvalues --   -0.93024  -0.84753  -0.82976  -0.75510  -0.71228
  Beta  occ. eigenvalues --   -0.70453  -0.63369  -0.61212  -0.59654  -0.58447
  Beta  occ. eigenvalues --   -0.55177  -0.53078  -0.51533  -0.50657  -0.47379
  Beta  occ. eigenvalues --   -0.44669  -0.43391  -0.41446  -0.40371  -0.39606
  Beta  occ. eigenvalues --   -0.39273  -0.38499  -0.37485  -0.36892  -0.35348
  Beta  occ. eigenvalues --   -0.34711  -0.34086  -0.33079  -0.32639  -0.32114
  Beta  occ. eigenvalues --   -0.31235  -0.30352  -0.29945  -0.29435  -0.29012
  Beta  occ. eigenvalues --   -0.28521  -0.27792  -0.26808  -0.26313  -0.26184
  Beta  occ. eigenvalues --   -0.25543  -0.24725  -0.23789  -0.23162  -0.22255
  Beta  occ. eigenvalues --   -0.21073  -0.19077  -0.16718  -0.14557  -0.13755
  Beta virt. eigenvalues --    0.06036   0.06313   0.07206   0.07501   0.07736
  Beta virt. eigenvalues --    0.08455   0.08757   0.09260   0.09461   0.09931
  Beta virt. eigenvalues --    0.10270   0.10736   0.11223   0.11447   0.11859

 Mulliken charges and spin densities:
               1          2
     1  C    0.164825  -0.717282
     2  C   -0.097098   0.756384
     3  C   -0.489049  -0.223700
     4  C   -0.267898  -0.497868
     5  N    0.174436   0.032513
     6  C   -0.901422   0.872025
     7  C    0.731001  -1.142628
     8  C    0.753834  -1.169299
     9  C   -0.097945  -0.272622
    10  O   -0.265994   0.008386
    11  N    0.020109   0.108509
    12  C    0.701805  -1.061259
    13  C   -0.311345   0.298591
    14  C    0.463684  -1.113331
    15  C   -0.111655   0.183273
    16  C   -0.092928  -0.105630
    17  O   -0.250234   0.002738
    18  O   -0.134052   0.007943
    19  H    0.127341   0.018067
    20  H    0.135231   0.002045
    21  H   -0.085672   0.250290
    22  H   -0.170748   0.330355
    23  H    0.104595   0.022896
    24  H   -0.050620   0.182697
    25  H   -0.005464   0.142463
    26  H    0.245146  -0.163373
    27  H    0.171324   0.059938
    28  H   -0.314524   0.584512
    29  H   -0.067535   0.231668
    30  H    0.052408   0.089042
    31  H    0.196025  -0.131549
    32  H   -0.505606   0.698429
    33  H   -0.505973   0.656884
    34  H   -0.330283   0.460146
    35  H   -0.196599   0.392935
    36  H    0.234310  -0.026786
    37  H   -0.119989   0.261425
    38  H   -0.125668   0.309936
    39  H   -0.157632   0.317381
    40  H   -0.145506   0.365852
    41  H    0.334175  -0.107015
    42  H    0.191189   0.085019
 Sum of Mulliken charges =  -1.00000   1.00000

 Dipole moment (field-independent basis, Debye):
    X=              1.2190    Y=              5.5914    Z=             -1.1401  Tot=              5.8352
 Quadrupole moment (field-independent basis, Debye-Ang):
   XX=           -179.6300   YY=           -171.1424   ZZ=           -153.5441
   XY=             -3.5754   XZ=              4.4331   YZ=              8.3398

 Summary of Natural Population Analysis:

                                       Natural Population
                Natural  -----------------------------------------------
    Atom  No    Charge         Core      Valence    Rydberg      Total
 -----------------------------------------------------------------------
      C    1   -0.28547      0.99965     2.27963    0.00619     3.28547
      C    2   -0.11987      0.99961     2.11147    0.00880     3.11987
      C    3   -0.28288      0.99965     2.27865    0.00458     3.28288
      C    4   -0.08210      0.99958     2.07125    0.01127     3.08210
      N    5   -0.27651      0.99963     2.76429    0.01259     3.77651
      C    6   -0.01932      0.99955     2.00509    0.01468     3.01932
      C    7   -0.19838      0.99961     2.19007    0.00870     3.19838
      C    8   -0.19546      0.99960     2.18580    0.01006     3.19546
      C    9    0.42106      0.99961     1.55551    0.02382     2.57894
      O   10   -0.34613      0.99988     3.34177    0.00448     4.34613
      N   11   -0.27388      0.99965     2.76194    0.01230     3.77388
      C   12   -0.17201      0.99962     2.16395    0.00843     3.17201
      C   13   -0.08398      0.99959     2.07351    0.01088     3.08398
      C   14   -0.19490      0.99962     2.18620    0.00907     3.19490
      C   15   -0.24156      0.99956     2.23305    0.00895     3.24156
      C   16    0.41567      0.99972     1.55926    0.02535     2.58433
      O   17   -0.30700      0.99986     3.30123    0.00591     4.30700
      O   18   -0.34858      0.99988     3.34250    0.00621     4.34858
      H   19    0.09719      0.00000     0.40202    0.00079     0.40281
      H   20    0.10299      0.00000     0.39582    0.00119     0.39701
      H   21    0.09765      0.00000     0.40164    0.00071     0.40235
      H   22    0.09425      0.00000     0.40360    0.00215     0.40575
      H   23    0.09529      0.00000     0.40384    0.00087     0.40471
      H   24    0.09807      0.00000     0.40108    0.00086     0.40193
      H   25    0.09928      0.00000     0.39989    0.00083     0.40072
      H   26    0.09331      0.00000     0.40564    0.00105     0.40669
      H   27    0.11384      0.00000     0.38504    0.00111     0.38616
      H   28    0.10142      0.00000     0.39577    0.00282     0.39858
      H   29    0.10506      0.00000     0.39399    0.00095     0.39494
      H   30    0.10387      0.00000     0.39521    0.00092     0.39613
      H   31    0.10501      0.00000     0.39325    0.00174     0.39499
      H   32    0.10867      0.00000     0.38947    0.00187     0.39133
      H   33    0.09552      0.00000     0.40316    0.00132     0.40448
      H   34    0.10313      0.00000     0.39492    0.00195     0.39687
      H   35    0.09662      0.00000     0.40128    0.00209     0.40338
      H   36    0.11298      0.00000     0.38542    0.00160     0.38702
      H   37    0.09581      0.00000     0.40303    0.00116     0.40419
      H   38    0.10217      0.00000     0.39640    0.00143     0.39783
      H   39    0.10142      0.00000     0.39704    0.00155     0.39858
      H   40    0.11492      0.00000     0.38409    0.00099     0.38508
      H   41    0.11361      0.00000     0.38503    0.00137     0.38639
      H   42    0.23925      0.00000     0.25749    0.00327     0.26075
 =======================================================================
   * Total *    0.00000     17.99388    51.77929    0.22682    70.00000

 Normal termination of Gaussian 16 at Fri Dec 11 21:40:05 2020.
