 Gaussian 16, Revision A.03,

 -----------------------------------------------------------
 # opt freq B3LYP/6-31G(d) empiricaldispersion=gd3bj scf=xqc
 -----------------------------------------------------------

 -------------------------------
 CID_129109614_JID_7847_neutraal
 -------------------------------
 Symbolic Z-matrix:
 Charge =  0 Multiplicity = 1

 SCF Done:  E(RB3LYP) =  -709.254550804     A.U. after   15 cycles
 SCF Done:  E(RB3LYP) =  -709.260420446     A.U. after   12 cycles
 SCF Done:  E(RB3LYP) =  -709.261706798     A.U. after   12 cycles
 SCF Done:  E(RB3LYP) =  -709.262297420     A.U. after   12 cycles
 SCF Done:  E(RB3LYP) =  -709.262518791     A.U. after   11 cycles
 SCF Done:  E(RB3LYP) =  -709.262607212     A.U. after   11 cycles
 SCF Done:  E(RB3LYP) =  -709.262630454     A.U. after   10 cycles
 SCF Done:  E(RB3LYP) =  -709.262639350     A.U. after   10 cycles
 SCF Done:  E(RB3LYP) =  -709.262642574     A.U. after    8 cycles
 SCF Done:  E(RB3LYP) =  -709.262644150     A.U. after    8 cycles
 SCF Done:  E(RB3LYP) =  -709.262644478     A.U. after    7 cycles
 Optimization completed.
    -- Stationary point found.
 Normal termination of Gaussian 16 at Sun Dec 13 20:10:01 2020.

 --------------------------------------------------------------------
 #N Geom=AllCheck Guess=TCheck SCRF=Check GenChk RB3LYP/6-31G(d) Freq
 --------------------------------------------------------------------

 Structure from the checkpoint file:  "JID_7847.chk"
 -------------------------------
 CID_129109614_JID_7847_neutraal
 -------------------------------
 Charge =  0 Multiplicity = 1

 SCF Done:  E(RB3LYP) =  -709.262644478     A.U. after    1 cycles

  Exact polarizability: 201.116  -4.761 169.352  14.493   1.386 112.269
 Approx polarizability: 278.787  -6.642 268.478  29.433   3.666 177.481

                      1                      2                      3
                      A                      A                      A
 Frequencies --     61.8869                79.2533               100.6986
 Red. masses --      4.0083                 4.1071                 2.7118
 Frc consts  --      0.0090                 0.0152                 0.0162
 IR Inten    --      0.0413                 0.3982                 0.8509

                      4                      5                      6
                      A                      A                      A
 Frequencies --    132.6021               149.4294               169.9734
 Red. masses --      2.1058                 1.5137                 2.9982
 Frc consts  --      0.0218                 0.0199                 0.0510
 IR Inten    --      1.4093                 0.3435                 0.7425

                      7                      8                      9
                      A                      A                      A
 Frequencies --    195.4077               261.6968               271.3913
 Red. masses --      3.3360                 2.4311                 3.9365
 Frc consts  --      0.0751                 0.0981                 0.1708
 IR Inten    --      2.3102                 1.7534                 0.9957

                     10                     11                     12
                      A                      A                      A
 Frequencies --    294.9194               308.9210               338.9167
 Red. masses --      2.8453                 3.4552                 4.5531
 Frc consts  --      0.1458                 0.1943                 0.3081
 IR Inten    --      4.1233                 0.1847                 2.3749

                     13                     14                     15
                      A                      A                      A
 Frequencies --    352.4360               380.8247               426.2613
 Red. masses --      3.4863                 2.0911                 2.7175
 Frc consts  --      0.2551                 0.1787                 0.2909
 IR Inten    --      1.7059                 1.6760                14.3946

                     16                     17                     18
                      A                      A                      A
 Frequencies --    430.4017               467.8552               488.8498
 Red. masses --      1.3313                 3.1053                 3.3012
 Frc consts  --      0.1453                 0.4005                 0.4648
 IR Inten    --     81.6350                 4.1810                 1.9139

                     19                     20                     21
                      A                      A                      A
 Frequencies --    499.3882               522.8001               556.4032
 Red. masses --      2.3153                 3.4624                 3.7217
 Frc consts  --      0.3402                 0.5576                 0.6789
 IR Inten    --      1.9369                 3.9586                 3.6875

                     22                     23                     24
                      A                      A                      A
 Frequencies --    584.2132               613.5998               623.2142
 Red. masses --      3.8026                 5.2756                 2.7774
 Frc consts  --      0.7647                 1.1703                 0.6356
 IR Inten    --      5.0998                 0.9286                 5.1480

                     25                     26                     27
                      A                      A                      A
 Frequencies --    648.7827               691.1814               757.5457
 Red. masses --      4.7465                 3.4294                 3.3668
 Frc consts  --      1.1771                 0.9653                 1.1384
 IR Inten    --      1.7608                 1.0741                 2.9549

                     28                     29                     30
                      A                      A                      A
 Frequencies --    761.8371               782.5181               798.1218
 Red. masses --      1.6376                 1.9933                 3.4953
 Frc consts  --      0.5600                 0.7191                 1.3118
 IR Inten    --      8.9038                61.8204                 9.2717

                     31                     32                     33
                      A                      A                      A
 Frequencies --    828.2148               859.1863               868.2129
 Red. masses --      1.5741                 2.6383                 1.7956
 Frc consts  --      0.6361                 1.1475                 0.7975
 IR Inten    --     11.3109                 4.2520                 1.0211

                     34                     35                     36
                      A                      A                      A
 Frequencies --    883.0969               889.8789               929.2156
 Red. masses --      2.0476                 2.2228                 2.0390
 Frc consts  --      0.9408                 1.0371                 1.0373
 IR Inten    --     25.5206                14.2194                 2.5138

                     37                     38                     39
                      A                      A                      A
 Frequencies --    936.4010               939.8740               953.9275
 Red. masses --      2.1315                 1.4209                 2.2943
 Frc consts  --      1.1012                 0.7395                 1.2301
 IR Inten    --     29.9860                 7.7433                 4.5017

                     40                     41                     42
                      A                      A                      A
 Frequencies --    972.0851               990.4195              1011.2708
 Red. masses --      1.2495                 2.2845                 2.2092
 Frc consts  --      0.6957                 1.3203                 1.3311
 IR Inten    --      0.9038                 7.9420                 7.8923

                     43                     44                     45
                      A                      A                      A
 Frequencies --   1050.2465              1065.2361              1068.9394
 Red. masses --      1.7181                 1.7898                 1.5216
 Frc consts  --      1.1166                 1.1966                 1.0244
 IR Inten    --      1.5199                 1.1298                 1.7040

                     46                     47                     48
                      A                      A                      A
 Frequencies --   1075.0201              1094.8935              1108.2033
 Red. masses --      1.9560                 1.9670                 1.7874
 Frc consts  --      1.3318                 1.3893                 1.2933
 IR Inten    --      7.5781                 0.2331                 2.0334

                     49                     50                     51
                      A                      A                      A
 Frequencies --   1112.9497              1135.7596              1165.1187
 Red. masses --      2.8934                 1.8233                 2.2074
 Frc consts  --      2.1116                 1.3858                 1.7655
 IR Inten    --      8.8906                 4.3433                18.7107

                     52                     53                     54
                      A                      A                      A
 Frequencies --   1175.9552              1191.2548              1229.6374
 Red. masses --      1.6618                 1.0941                 2.5293
 Frc consts  --      1.3539                 0.9147                 2.2532
 IR Inten    --      4.6661                 0.7136                40.3445

                     55                     56                     57
                      A                      A                      A
 Frequencies --   1231.8718              1254.2787              1279.5140
 Red. masses --      1.5829                 2.6374                 1.3402
 Frc consts  --      1.4153                 2.4446                 1.2927
 IR Inten    --      3.6371                19.2982                 5.6949

                     58                     59                     60
                      A                      A                      A
 Frequencies --   1292.8868              1296.2636              1311.8679
 Red. masses --      1.3752                 2.0417                 1.6785
 Frc consts  --      1.3544                 2.0213                 1.7020
 IR Inten    --      4.4341                26.1556                19.5748

                     61                     62                     63
                      A                      A                      A
 Frequencies --   1334.3311              1343.5141              1352.7977
 Red. masses --      1.7324                 1.5105                 2.2391
 Frc consts  --      1.8173                 1.6065                 2.4143
 IR Inten    --     92.2571                 2.5119                30.3489

                     64                     65                     66
                      A                      A                      A
 Frequencies --   1357.2745              1384.1514              1388.1999
 Red. masses --      1.3510                 1.4484                 1.4634
 Frc consts  --      1.4664                 1.6349                 1.6616
 IR Inten    --      3.9697                 2.8580                 9.9798

                     67                     68                     69
                      A                      A                      A
 Frequencies --   1402.1511              1418.3307              1424.6915
 Red. masses --      1.4483                 1.4927                 1.4402
 Frc consts  --      1.6777                 1.7692                 1.7223
 IR Inten    --      2.9911                 1.1000                26.8375

                     70                     71                     72
                      A                      A                      A
 Frequencies --   1426.2924              1474.2641              1494.0067
 Red. masses --      1.2972                 1.5597                 1.5623
 Frc consts  --      1.5548                 1.9973                 2.0546
 IR Inten    --     15.9676                21.0983               120.3940

                     73                     74                     75
                      A                      A                      A
 Frequencies --   1508.2437              1510.3040              1513.5377
 Red. masses --      1.0940                 1.1729                 1.0992
 Frc consts  --      1.4663                 1.5763                 1.4836
 IR Inten    --      4.9538                 2.0499                 4.2108

                     76                     77                     78
                      A                      A                      A
 Frequencies --   1516.4815              1519.1926              1532.3999
 Red. masses --      1.0587                 1.0847                 1.1029
 Frc consts  --      1.4345                 1.4750                 1.5260
 IR Inten    --      9.4115                10.4577                 6.7483

                     79                     80                     81
                      A                      A                      A
 Frequencies --   1539.0737              1560.9018              1644.7164
 Red. masses --      2.3367                 1.8261                 4.7830
 Frc consts  --      3.2612                 2.6214                 7.6231
 IR Inten    --    201.7986                24.5322                 0.4034

                     82                     83                     84
                      A                      A                      A
 Frequencies --   1663.7582              1745.8804              3016.5708
 Red. masses --      5.8946                 7.1949                 1.0789
 Frc consts  --      9.6135                12.9212                 5.7844
 IR Inten    --      8.4218               245.7872                20.0587

                     85                     86                     87
                      A                      A                      A
 Frequencies --   3019.7528              3030.4061              3039.7743
 Red. masses --      1.0678                 1.0718                 1.0704
 Frc consts  --      5.7370                 5.7994                 5.8273
 IR Inten    --     31.0011                27.1227                12.1030

                     88                     89                     90
                      A                      A                      A
 Frequencies --   3042.6912              3046.5765              3049.7363
 Red. masses --      1.0427                 1.0732                 1.0642
 Frc consts  --      5.6876                 5.8688                 5.8318
 IR Inten    --     28.8688                36.6879                49.4340

                     91                     92                     93
                      A                      A                      A
 Frequencies --   3073.3227              3082.4967              3091.7842
 Red. masses --      1.0938                 1.0971                 1.1015
 Frc consts  --      6.0870                 6.1419                 6.2037
 IR Inten    --     69.6357                42.5530                18.2693

                     94                     95                     96
                      A                      A                      A
 Frequencies --   3096.6555              3097.0974              3175.2876
 Red. masses --      1.0992                 1.1029                 1.0877
 Frc consts  --      6.2102                 6.2331                 6.4614
 IR Inten    --     17.4396                69.9929                10.2971

                     97                     98                     99
                      A                      A                      A
 Frequencies --   3184.6530              3192.4811              3203.9190
 Red. masses --      1.0978                 1.0875                 1.0922
 Frc consts  --      6.5598                 6.5302                 6.6054
 IR Inten    --      6.2374                 5.4311                22.7737

                    100                    101                    102
                      A                      A                      A
 Frequencies --   3215.3618              3488.5149              3601.3605
 Red. masses --      1.0972                 1.0723                 1.0758
 Frc consts  --      6.6836                 7.6887                 8.2207
 IR Inten    --     20.6353                 0.6821                19.1872

 - Thermochemistry -
 -------------------
 Temperature   298.150 Kelvin.  Pressure   1.00000 Atm.
 Atom     1 has atomic number  6 and mass  12.00000

 Molecular mass:   229.15790 amu.
 Principal axes and moments of inertia in atomic units:
                           1         2         3
     Eigenvalues --  2336.268784797.692576067.41933
           X            0.99992   0.01199   0.00267
           Y           -0.01196   0.99986  -0.01165
           Z           -0.00281   0.01161   0.99993
 This molecule is an asymmetric top.
 Rotational symmetry number  1.
 Warning -- assumption of classical behavior for rotation
           may cause significant error
 Rotational temperatures (Kelvin)      0.03707     0.01805     0.01428
 Rotational constants (GHZ):           0.77249     0.37617     0.29745
 Zero-point vibrational energy     829944.9 (Joules/Mol)
                                  198.36159 (Kcal/Mol)
 Warning -- explicit consideration of  23 degrees of freedom as
           vibrations may cause significant error
 Vibrational temperatures:     89.04   114.03   144.88   190.78   215.00
          (Kelvin)            244.55   281.15   376.52   390.47   424.32
                              444.47   487.63   507.08   547.92   613.29
                              619.25   673.14   703.35   718.51   752.19
                              800.54   840.55   882.83   896.67   933.45
                              994.46  1089.94  1096.11  1125.87  1148.32
                             1191.62  1236.18  1249.16  1270.58  1280.34
                             1336.93  1347.27  1352.27  1372.49  1398.61
                             1424.99  1454.99  1511.07  1532.64  1537.97
                             1546.71  1575.31  1594.46  1601.29  1634.10
                             1676.35  1691.94  1713.95  1769.17  1772.39
                             1804.63  1840.94  1860.18  1865.03  1887.49
                             1919.80  1933.02  1946.37  1952.82  1991.49
                             1997.31  2017.38  2040.66  2049.81  2052.12
                             2121.14  2149.54  2170.03  2172.99  2177.64
                             2181.88  2185.78  2204.78  2214.38  2245.79
                             2366.38  2393.78  2511.93  4340.17  4344.75
                             4360.08  4373.56  4377.75  4383.34  4387.89
                             4421.83  4435.03  4448.39  4455.40  4456.03
                             4568.53  4582.01  4593.27  4609.72  4626.19
                             5019.19  5181.55

 Zero-point correction=                           0.316109 (Hartree/Particle)
 Thermal correction to Energy=                    0.330405
 Thermal correction to Enthalpy=                  0.331349
 Thermal correction to Gibbs Free Energy=         0.275841
 Sum of electronic and zero-point Energies=           -708.946535
 Sum of electronic and thermal Energies=              -708.932240
 Sum of electronic and thermal Enthalpies=            -708.931295
 Sum of electronic and thermal Free Energies=         -708.986803

                     E (Thermal)             CV                S
                      KCal/Mol        Cal/Mol-Kelvin    Cal/Mol-Kelvin
 Total                  207.332             59.258            116.826
 Electronic               0.000              0.000              0.000
 Translational            0.889              2.981             42.190
 Rotational               0.889              2.981             32.586
 Vibrational            205.555             53.296             42.050
 Vibration     1          0.597              1.972              4.396
 Vibration     2          0.600              1.963              3.909
 Vibration     3          0.604              1.949              3.441
 Vibration     4          0.613              1.921              2.908
 Vibration     5          0.618              1.903              2.679
 Vibration     6          0.625              1.879              2.436
 Vibration     7          0.636              1.846              2.176
 Vibration     8          0.669              1.743              1.650
 Vibration     9          0.675              1.726              1.587
 Vibration    10          0.689              1.683              1.446
 Vibration    11          0.698              1.657              1.368
 Vibration    12          0.719              1.598              1.217
 Vibration    13          0.729              1.570              1.155
 Vibration    14          0.751              1.511              1.036
 Vibration    15          0.788              1.413              0.871
 Vibration    16          0.792              1.404              0.857
 Vibration    17          0.825              1.321              0.744
 Vibration    18          0.845              1.275              0.687
 Vibration    19          0.855              1.251              0.660
 Vibration    20          0.878              1.200              0.604
 Vibration    21          0.912              1.126              0.531
 Vibration    22          0.941              1.065              0.478
 Vibration    23          0.973              1.003              0.427

                           ! Non-Optimized Parameters !
 Normal termination of Gaussian 16 at Sun Dec 13 20:25:35 2020.

 ----------------------------------------------------------------------
 # B3LYP/6-311++G(d,p) empiricaldispersion=gd3bj scf=xqc pop=npa geom=c
 heck
 ----------------------------------------------------------------------

 ---------------------------------------
 CID_129109614_JID_7847_Energie_neutraal
 ---------------------------------------
 Structure from the checkpoint file:  "JID_7847.chk"
 Charge =  0 Multiplicity = 1

 SCF Done:  E(RB3LYP) =  -709.451866304     A.U. after   16 cycles
 Normal termination of Gaussian 16 at Sun Dec 13 20:33:39 2020.

 ----------------------------------------------------------------------
 # B3LYP/6-311++G(d,p) empiricaldispersion=gd3bj scf=xqc pop=npa geom=c
 heck
 ----------------------------------------------------------------------

 -------------------------------------
 CID_129109614_JID_7847_Energie_kation
 -------------------------------------
 Structure from the checkpoint file:  "JID_7847.chk"
 Charge =  1 Multiplicity = 2

 SCF Done:  E(UB3LYP) =  -709.180955235     A.U. after   26 cycles
 Normal termination of Gaussian 16 at Sun Dec 13 20:53:21 2020.
 Gaussian 16:  ES64L-G16RevA.03 25-Dec-2016

 ----------------------------------------------------------------------
 # B3LYP/6-311++G(d,p) empiricaldispersion=gd3bj scf=xqc pop=npa geom=c
 heck
 ----------------------------------------------------------------------

 ------------------------------------
 CID_129109614_JID_7847_Energie_anion
 ------------------------------------
 Structure from the checkpoint file:  "JID_7847.chk"
 Charge = -1 Multiplicity = 2

                         Standard orientation:
 ---------------------------------------------------------------------
 Center     Atomic      Atomic             Coordinates (Angstroms)
 Number     Number       Type             X           Y           Z
 ---------------------------------------------------------------------
      1          6           0       -0.509162    3.436248   -0.606104
      2          6           0       -0.216604    2.027526   -0.130863
      3          7           0       -1.200613    1.305535    0.248676
      4          6           0       -1.045300   -0.040217    0.781561
      5          6           0       -2.257895   -0.367671    1.668227
      6          6           0       -3.557918   -0.428668    0.859142
      7          6           0       -3.444899   -1.442549   -0.286545
      8          6           0       -2.240789   -1.132359   -1.185047
      9          6           0       -0.941912   -1.065108   -0.379871
     10          7           0        0.186833   -0.780722   -1.286896
     11          6           0        1.430913   -0.672457   -0.602237
     12          6           0        2.212619   -1.817951   -0.440559
     13          6           0        3.434978   -1.777569    0.228302
     14          6           0        3.895186   -0.565566    0.742984
     15          6           0        3.118413    0.583031    0.612492
     16          6           0        1.878921    0.541420   -0.038072
     17          7           0        1.154279    1.746611   -0.179937
     18          1           0        0.042734    4.176056   -0.010903
     19          1           0       -1.576527    3.628291   -0.501927
     20          1           0       -0.214856    3.569839   -1.654109
     21          1           0       -0.137415   -0.122584    1.395473
     22          1           0       -2.078491   -1.336059    2.157280
     23          1           0       -2.332689    0.384716    2.461853
     24          1           0       -3.758562    0.566846    0.446068
     25          1           0       -4.398944   -0.685875    1.514864
     26          1           0       -4.364506   -1.450830   -0.884508
     27          1           0       -3.333602   -2.454398    0.130954
     28          1           0       -2.397274   -0.162768   -1.676646
     29          1           0       -2.129900   -1.883986   -1.974739
     30          1           0       -0.748993   -2.049677    0.066463
     31          1           0       -0.014749    0.091891   -1.772596
     32          1           0        1.844709   -2.739577   -0.881320
     33          1           0        4.029947   -2.680141    0.330399
     34          1           0        4.850923   -0.511970    1.256058
     35          1           0        3.457502    1.523418    1.040847
     36          1           0        1.737893    2.568178   -0.256865
 ---------------------------------------------------------------------

 SCF Done:  E(UB3LYP) =  -709.440032864     A.U. after   33 cycles
 SCF Done:  E(UB3LYP) =  -709.440032864     a.u. after    1 cycles

 The electronic state is 2-A.
 Alpha  occ. eigenvalues --  -14.24003 -14.20940 -14.18009 -10.14797 -10.11900
 Alpha  occ. eigenvalues --  -10.10675 -10.10554 -10.09523 -10.07674 -10.07640
 Alpha  occ. eigenvalues --  -10.07551 -10.07497 -10.07326 -10.07111 -10.06911
 Alpha  occ. eigenvalues --  -10.06889 -10.06413  -0.87265  -0.82332  -0.79840
 Alpha  occ. eigenvalues --   -0.74102  -0.72456  -0.66794  -0.65434  -0.63637
 Alpha  occ. eigenvalues --   -0.62667  -0.60171  -0.52487  -0.52296  -0.51787
 Alpha  occ. eigenvalues --   -0.50578  -0.47526  -0.46094  -0.43151  -0.40686
 Alpha  occ. eigenvalues --   -0.40277  -0.38295  -0.36600  -0.36002  -0.35585
 Alpha  occ. eigenvalues --   -0.35164  -0.33573  -0.32996  -0.31701  -0.31165
 Alpha  occ. eigenvalues --   -0.30425  -0.29617  -0.29147  -0.27774  -0.27237
 Alpha  occ. eigenvalues --   -0.26433  -0.25850  -0.25390  -0.24226  -0.23357
 Alpha  occ. eigenvalues --   -0.22759  -0.21549  -0.17820  -0.17051  -0.14596
 Alpha  occ. eigenvalues --   -0.13899  -0.10949   0.04437
 Alpha virt. eigenvalues --    0.06056   0.06606   0.07641   0.07651   0.08070
 Alpha virt. eigenvalues --    0.08375   0.08437   0.09487   0.09590   0.09971
 Alpha virt. eigenvalues --    0.10436   0.11019   0.11686   0.12020   0.12293

  Beta  occ. eigenvalues --  -14.23966 -14.20934 -14.17990 -10.14793 -10.11882
  Beta  occ. eigenvalues --  -10.10677 -10.10554 -10.09520 -10.07667 -10.07633
  Beta  occ. eigenvalues --  -10.07533 -10.07479 -10.07283 -10.07108 -10.06906
  Beta  occ. eigenvalues --  -10.06884 -10.06363  -0.87217  -0.82311  -0.79801
  Beta  occ. eigenvalues --   -0.74057  -0.72440  -0.66754  -0.65405  -0.63597
  Beta  occ. eigenvalues --   -0.62623  -0.60117  -0.52434  -0.52254  -0.51763
  Beta  occ. eigenvalues --   -0.50529  -0.47497  -0.46058  -0.43060  -0.40657
  Beta  occ. eigenvalues --   -0.40237  -0.38261  -0.36556  -0.35979  -0.35554
  Beta  occ. eigenvalues --   -0.35139  -0.33519  -0.32943  -0.31648  -0.31136
  Beta  occ. eigenvalues --   -0.30409  -0.29574  -0.29130  -0.27729  -0.27189
  Beta  occ. eigenvalues --   -0.26389  -0.25819  -0.25380  -0.24194  -0.23333
  Beta  occ. eigenvalues --   -0.22743  -0.21529  -0.17734  -0.17013  -0.14564
  Beta  occ. eigenvalues --   -0.13837  -0.10891
  Beta virt. eigenvalues --    0.06090   0.06883   0.07402   0.07788   0.07899
  Beta virt. eigenvalues --    0.08294   0.08469   0.08887   0.09710   0.10090
  Beta virt. eigenvalues --    0.10253   0.10636   0.11074   0.11838   0.12170

 Mulliken charges and spin densities:
               1          2
     1  C    1.349060  -1.975847
     2  C   -0.469561   0.397053
     3  N   -0.009144   0.169589
     4  C    0.474948  -0.639596
     5  C   -0.029182  -0.441490
     6  C   -0.368414   0.061431
     7  C   -0.094516  -0.407869
     8  C   -0.283381   0.154051
     9  C   -1.091967   0.538774
    10  N    0.132964  -0.032346
    11  C    0.167114  -0.082904
    12  C   -0.713114   0.445850
    13  C    0.146308  -0.544611
    14  C    1.471452  -1.836086
    15  C   -0.182380  -0.171462
    16  C   -0.257590   0.930034
    17  N   -0.023962  -0.089548
    18  H   -0.564693   0.734250
    19  H    0.054153   0.100853
    20  H   -0.385246   0.549621
    21  H    0.328333  -0.119899
    22  H    0.066552   0.045282
    23  H    0.091243   0.089076
    24  H    0.174118  -0.041849
    25  H   -0.002612   0.165015
    26  H   -0.054236   0.222015
    27  H    0.060539   0.045861
    28  H    0.097229   0.048937
    29  H    0.096114   0.078873
    30  H    0.117141   0.031856
    31  H    0.336704  -0.039157
    32  H    0.038274   0.106135
    33  H   -0.025499   0.175042
    34  H   -0.292485   0.457703
    35  H   -1.104301   1.287106
    36  H   -0.249963   0.588257
 Sum of Mulliken charges =  -1.00000   1.00000

 Dipole moment (field-independent basis, Debye):
    X=             -5.6558    Y=             -7.3397    Z=             -0.4050  Tot=              9.2748
 Quadrupole moment (field-independent basis, Debye-Ang):
   XX=           -174.4589   YY=           -164.5408   ZZ=           -133.0915
   XY=            -15.0661   XZ=             -4.4589   YZ=             -2.4185

 Summary of Natural Population Analysis:

                                       Natural Population
                Natural  -----------------------------------------------
    Atom  No    Charge         Core      Valence    Rydberg      Total
 -----------------------------------------------------------------------
      C    1   -0.30284      0.99962     2.29705    0.00616     3.30284
      C    2    0.23502      0.99958     1.74865    0.01674     2.76498
      N    3   -0.29071      0.99963     2.77886    0.01222     3.79071
      C    4   -0.03243      0.99954     2.01835    0.01453     3.03243
      C    5   -0.18514      0.99961     2.17709    0.00844     3.18514
      C    6   -0.19283      0.99963     2.18586    0.00734     3.19283
      C    7   -0.18703      0.99963     2.18006    0.00734     3.18703
      C    8   -0.19393      0.99960     2.18595    0.00839     3.19393
      C    9   -0.00409      0.99955     1.99306    0.01149     3.00409
      N   10   -0.33682      0.99971     2.82585    0.01126     3.83682
      C   11    0.06529      0.99943     1.92229    0.01300     2.93471
      C   12   -0.09875      0.99951     2.09067    0.00856     3.09875
      C   13   -0.11055      0.99956     2.10049    0.01049     3.11055
      C   14   -0.10067      0.99956     2.09098    0.01013     3.10067
      C   15   -0.10297      0.99952     2.09252    0.01093     3.10297
      C   16    0.07179      0.99941     1.91609    0.01271     2.92821
      N   17   -0.32264      0.99964     2.80982    0.01318     3.82264
      H   18    0.10937      0.00000     0.38764    0.00299     0.39063
      H   19    0.11015      0.00000     0.38869    0.00116     0.38985
      H   20    0.10478      0.00000     0.39398    0.00125     0.39522
      H   21    0.09602      0.00000     0.40224    0.00175     0.40398
      H   22    0.09187      0.00000     0.40703    0.00110     0.40813
      H   23    0.10255      0.00000     0.39633    0.00112     0.39745
      H   24    0.10392      0.00000     0.39459    0.00149     0.39608
      H   25    0.09420      0.00000     0.40470    0.00110     0.40580
      H   26    0.09663      0.00000     0.40222    0.00115     0.40337
      H   27    0.08937      0.00000     0.40927    0.00136     0.41063
      H   28    0.10032      0.00000     0.39819    0.00148     0.39968
      H   29    0.10068      0.00000     0.39811    0.00121     0.39932
      H   30    0.09195      0.00000     0.40621    0.00184     0.40805
      H   31    0.17992      0.00000     0.31710    0.00298     0.32008
      H   32    0.10251      0.00000     0.39653    0.00096     0.39749
      H   33    0.09857      0.00000     0.40064    0.00079     0.40143
      H   34    0.10187      0.00000     0.39702    0.00111     0.39813
      H   35    0.10838      0.00000     0.38850    0.00312     0.39162
      H   36    0.20621      0.00000     0.28143    0.01237     0.29379
 =======================================================================
   * Total *    0.00000     16.99273    44.78405    0.22322    62.00000

 Normal termination of Gaussian 16 at Sun Dec 13 21:17:09 2020.
