 Gaussian 16, Revision A.03,

 -----------------------------------------------------------
 # opt freq B3LYP/6-31G(d) empiricaldispersion=gd3bj scf=xqc
 -----------------------------------------------------------

 ------------------------------
 CID_11021049_JID_8953_neutraal
 ------------------------------
 Symbolic Z-matrix:
 Charge =  0 Multiplicity = 1

 SCF Done:  E(RB3LYP) =  -751.181933181     A.U. after   14 cycles
 SCF Done:  E(RB3LYP) =  -751.185431080     A.U. after   12 cycles
 SCF Done:  E(RB3LYP) =  -751.185752910     A.U. after   11 cycles
 SCF Done:  E(RB3LYP) =  -751.185839849     A.U. after   11 cycles
 SCF Done:  E(RB3LYP) =  -751.185883468     A.U. after   11 cycles
 SCF Done:  E(RB3LYP) =  -751.185936897     A.U. after   11 cycles
 SCF Done:  E(RB3LYP) =  -751.185975622     A.U. after   11 cycles
 SCF Done:  E(RB3LYP) =  -751.185998480     A.U. after   10 cycles
 SCF Done:  E(RB3LYP) =  -751.186025190     A.U. after   11 cycles
 SCF Done:  E(RB3LYP) =  -751.186057816     A.U. after   11 cycles
 SCF Done:  E(RB3LYP) =  -751.186099569     A.U. after   10 cycles
 SCF Done:  E(RB3LYP) =  -751.186100589     A.U. after    9 cycles
 SCF Done:  E(RB3LYP) =  -751.186100567     A.U. after    8 cycles
 SCF Done:  E(RB3LYP) =  -751.186100555     A.U. after    8 cycles
 SCF Done:  E(RB3LYP) =  -751.186100550     A.U. after    7 cycles
 Optimization completed.
    -- Stationary point found.
 Normal termination of Gaussian 16 at Fri Dec 11 23:07:53 2020.

 --------------------------------------------------------------------
 #N Geom=AllCheck Guess=TCheck SCRF=Check GenChk RB3LYP/6-31G(d) Freq
 --------------------------------------------------------------------

 Structure from the checkpoint file:  "JID_8953.chk"
 ------------------------------
 CID_11021049_JID_8953_neutraal
 ------------------------------
 Charge =  0 Multiplicity = 1

 SCF Done:  E(RB3LYP) =  -751.186100550     A.U. after    1 cycles

  Exact polarizability: 278.874  12.061 145.344 -10.953   3.687 126.955
 Approx polarizability: 355.650  22.182 241.123 -19.643   7.705 207.777

                      1                      2                      3
                      A                      A                      A
 Frequencies --      7.2930                28.9872                40.3012
 Red. masses --      4.0238                 3.5130                 3.8507
 Frc consts  --      0.0001                 0.0017                 0.0037
 IR Inten    --      0.5374                 0.3175                 0.7454

                      4                      5                      6
                      A                      A                      A
 Frequencies --     69.7541               103.8471               124.8255
 Red. masses --      2.8217                 3.7767                 3.2693
 Frc consts  --      0.0081                 0.0240                 0.0300
 IR Inten    --      0.2002                 7.4523                 0.1463

                      7                      8                      9
                      A                      A                      A
 Frequencies --    140.1253               149.0314               172.5507
 Red. masses --      1.0599                 1.6420                 1.1532
 Frc consts  --      0.0123                 0.0215                 0.0202
 IR Inten    --      0.0463                 5.1892                 0.3679

                     10                     11                     12
                      A                      A                      A
 Frequencies --    192.1769               213.7785               218.6561
 Red. masses --      1.7896                 2.3072                 3.3574
 Frc consts  --      0.0389                 0.0621                 0.0946
 IR Inten    --      0.1916                 1.0547                 0.5565

                     13                     14                     15
                      A                      A                      A
 Frequencies --    231.6687               264.9045               305.2596
 Red. masses --      2.1691                 1.8171                 2.5496
 Frc consts  --      0.0686                 0.0751                 0.1400
 IR Inten    --      2.9245                 0.3680                 0.3545

                     16                     17                     18
                      A                      A                      A
 Frequencies --    329.5080               361.5373               398.3264
 Red. masses --      3.5693                 3.9429                 4.9718
 Frc consts  --      0.2283                 0.3036                 0.4648
 IR Inten    --      1.4623                 4.8317                 3.3628

                     19                     20                     21
                      A                      A                      A
 Frequencies --    413.2119               431.3619               443.2602
 Red. masses --      3.5465                 3.2361                 3.5353
 Frc consts  --      0.3568                 0.3548                 0.4093
 IR Inten    --      0.0254                 0.4086                 1.0966

                     22                     23                     24
                      A                      A                      A
 Frequencies --    457.2978               494.0317               516.9705
 Red. masses --      3.0147                 3.6309                 3.3593
 Frc consts  --      0.3714                 0.5221                 0.5290
 IR Inten    --      1.8524                 5.7501                 1.4254

                     25                     26                     27
                      A                      A                      A
 Frequencies --    522.3160               565.4215               579.8498
 Red. masses --      3.0077                 4.2445                 3.2070
 Frc consts  --      0.4835                 0.7995                 0.6353
 IR Inten    --      7.2472                 0.1599                 1.8080

                     28                     29                     30
                      A                      A                      A
 Frequencies --    610.3863               658.1761               702.8005
 Red. masses --      3.4001                 7.1096                 4.2915
 Frc consts  --      0.7464                 1.8146                 1.2489
 IR Inten    --      2.4626                 0.0935                 0.7647

                     31                     32                     33
                      A                      A                      A
 Frequencies --    712.5809               740.7646               759.0833
 Red. masses --      3.3304                 4.6259                 4.8846
 Frc consts  --      0.9964                 1.4956                 1.6583
 IR Inten    --      1.0258                 8.9109                 2.0484

                     34                     35                     36
                      A                      A                      A
 Frequencies --    768.6312               807.0576               824.9995
 Red. masses --      4.3600                 1.2564                 1.3592
 Frc consts  --      1.5176                 0.4821                 0.5451
 IR Inten    --      1.0273                 0.7859                19.1082

                     37                     38                     39
                      A                      A                      A
 Frequencies --    838.1068               857.8790               881.2870
 Red. masses --      2.0508                 5.1244                 1.3921
 Frc consts  --      0.8487                 2.2220                 0.6370
 IR Inten    --     52.8344                18.0207                12.6522

                     40                     41                     42
                      A                      A                      A
 Frequencies --    934.6977               939.2505               941.0771
 Red. masses --      1.2985                 1.2884                 1.3353
 Frc consts  --      0.6684                 0.6696                 0.6968
 IR Inten    --      0.0590                 0.3019                 1.9467

                     43                     44                     45
                      A                      A                      A
 Frequencies --    974.1282               978.6367              1028.4288
 Red. masses --      3.1203                 2.9163                 1.6202
 Frc consts  --      1.7446                 1.6456                 1.0096
 IR Inten    --     10.6569                34.8704                10.6863

                     46                     47                     48
                      A                      A                      A
 Frequencies --   1030.8806              1038.9706              1060.4204
 Red. masses --      2.3600                 1.6355                 1.4199
 Frc consts  --      1.4777                 1.0402                 0.9407
 IR Inten    --      0.9816                44.2476                 5.3961

                     49                     50                     51
                      A                      A                      A
 Frequencies --   1084.8338              1092.7423              1143.7533
 Red. masses --      1.5705                 1.5111                 1.9150
 Frc consts  --      1.0890                 1.0631                 1.4760
 IR Inten    --      0.0022                24.7606                23.4328

                     52                     53                     54
                      A                      A                      A
 Frequencies --   1151.3366              1152.7875              1159.2396
 Red. masses --      1.3239                 1.2593                 1.3608
 Frc consts  --      1.0340                 0.9860                 1.0774
 IR Inten    --      2.8637                 0.0193                46.1365

                     55                     56                     57
                      A                      A                      A
 Frequencies --   1192.9490              1203.5588              1216.5337
 Red. masses --      1.4330                 1.5266                 1.4791
 Frc consts  --      1.2015                 1.3029                 1.2898
 IR Inten    --     11.3572                36.0698                 3.5352

                     58                     59                     60
                      A                      A                      A
 Frequencies --   1232.4758              1270.9083              1283.7895
 Red. masses --      2.0869                 3.1793                 3.4325
 Frc consts  --      1.8677                 3.0256                 3.3331
 IR Inten    --     32.9014               158.1187                43.4172

                     61                     62                     63
                      A                      A                      A
 Frequencies --   1296.8044              1319.4694              1343.8532
 Red. masses --      4.3517                 1.5205                 1.7863
 Frc consts  --      4.3118                 1.5596                 1.9006
 IR Inten    --    308.5816                78.4849                 0.9055

                     64                     65                     66
                      A                      A                      A
 Frequencies --   1358.0803              1369.9824              1390.6080
 Red. masses --      5.3628                 4.0765                 3.9192
 Frc consts  --      5.8276                 4.5078                 4.4654
 IR Inten    --     34.9729                 0.4904               100.1553

                     67                     68                     69
                      A                      A                      A
 Frequencies --   1439.1247              1451.3600              1465.4942
 Red. masses --      1.2593                 1.2388                 1.7264
 Frc consts  --      1.5367                 1.5375                 2.1845
 IR Inten    --      1.3398                 1.2963                10.2794

                     70                     71                     72
                      A                      A                      A
 Frequencies --   1468.6380              1483.2186              1507.2320
 Red. masses --      2.3097                 1.8512                 1.0453
 Frc consts  --      2.9352                 2.3994                 1.3991
 IR Inten    --     28.0372                 3.9833                 0.0089

                     73                     74                     75
                      A                      A                      A
 Frequencies --   1512.6150              1512.8500              1519.6360
 Red. masses --      1.0764                 1.1849                 1.0649
 Frc consts  --      1.4511                 1.5978                 1.4490
 IR Inten    --     10.9938                41.2134                25.4436

                     76                     77                     78
                      A                      A                      A
 Frequencies --   1522.8127              1523.5897              1526.7483
 Red. masses --      1.0496                 1.2543                 1.1297
 Frc consts  --      1.4340                 1.7155                 1.5515
 IR Inten    --     13.1633                 8.0448                11.2421

                     79                     80                     81
                      A                      A                      A
 Frequencies --   1544.0240              1548.5214              1560.4056
 Red. masses --      1.0682                 2.2586                 1.0651
 Frc consts  --      1.5004                 3.1909                 1.5280
 IR Inten    --      3.7489               214.0211                33.4093

                     82                     83                     84
                      A                      A                      A
 Frequencies --   1572.6193              1628.2292              1636.3163
 Red. masses --      2.4349                 6.5970                 6.4750
 Frc consts  --      3.5479                10.3046                10.2147
 IR Inten    --    292.6242                 3.6411                38.7108

                     85                     86                     87
                      A                      A                      A
 Frequencies --   1674.1992              1684.2300              2987.7029
 Red. masses --      5.9284                 6.0562                 1.0532
 Frc consts  --      9.7904                10.1217                 5.5391
 IR Inten    --     13.3244                90.9389                73.0102

                     88                     89                     90
                      A                      A                      A
 Frequencies --   2996.0638              3032.8980              3038.2654
 Red. masses --      1.0575                 1.0388                 1.0384
 Frc consts  --      5.5929                 5.6299                 5.6478
 IR Inten    --     89.8793                42.1119                45.6372

                     91                     92                     93
                      A                      A                      A
 Frequencies --   3076.5407              3077.6739              3077.9600
 Red. masses --      1.0842                 1.1003                 1.0858
 Frc consts  --      6.0463                 6.1404                 6.0609
 IR Inten    --     20.3338                29.1225                56.7198

                     94                     95                     96
                      A                      A                      A
 Frequencies --   3085.1929              3122.4810              3129.4137
 Red. masses --      1.1001                 1.0993                 1.0998
 Frc consts  --      6.1694                 6.3148                 6.3457
 IR Inten    --     17.0331                24.2571                16.4221

                     97                     98                     99
                      A                      A                      A
 Frequencies --   3139.7639              3151.1707              3177.4255
 Red. masses --      1.0988                 1.0960                 1.0892
 Frc consts  --      6.3820                 6.4123                 6.4791
 IR Inten    --      2.8307                50.3888                23.6086

                    100                    101                    102
                      A                      A                      A
 Frequencies --   3201.4415              3207.1852              3209.3792
 Red. masses --      1.0905                 1.0894                 1.0897
 Frc consts  --      6.5853                 6.6020                 6.6128
 IR Inten    --      7.9309                15.0868                 6.9994

                    103                    104                    105
                      A                      A                      A
 Frequencies --   3229.9305              3235.6007              3236.7484
 Red. masses --      1.0917                 1.0910                 1.0915
 Frc consts  --      6.7101                 6.7296                 6.7373
 IR Inten    --      5.3125                16.3992                 8.5318

 - Thermochemistry -
 -------------------
 Temperature   298.150 Kelvin.  Pressure   1.00000 Atm.
 Atom     1 has atomic number  6 and mass  12.00000

 Molecular mass:   241.14666 amu.
 Principal axes and moments of inertia in atomic units:
                           1         2         3
     Eigenvalues --  1422.78740********************
           X            0.99999   0.00320  -0.00225
           Y           -0.00316   0.99984   0.01745
           Z            0.00231  -0.01745   0.99985
 This molecule is an asymmetric top.
 Rotational symmetry number  1.
 Warning -- assumption of classical behavior for rotation
           may cause significant error
 Rotational temperatures (Kelvin)      0.06088     0.00759     0.00729
 Rotational constants (GHZ):           1.26845     0.15817     0.15199
 Zero-point vibrational energy     827354.7 (Joules/Mol)
                                  197.74252 (Kcal/Mol)
 Warning -- explicit consideration of  28 degrees of freedom as
           vibrations may cause significant error
 Vibrational temperatures:     10.49    41.71    57.98   100.36   149.41
          (Kelvin)            179.60   201.61   214.42   248.26   276.50
                              307.58   314.60   333.32   381.14   439.20
                              474.09   520.17   573.10   594.52   620.63
                              637.75   657.95   710.80   743.81   751.50
                              813.52   834.27   878.21   946.97  1011.17
                             1025.25  1065.80  1092.15  1105.89  1161.18
                             1186.99  1205.85  1234.30  1267.98  1344.82
                             1351.37  1354.00  1401.55  1408.04  1479.68
                             1483.21  1494.85  1525.71  1560.83  1572.21
                             1645.61  1656.52  1658.60  1667.89  1716.39
                             1731.65  1750.32  1773.26  1828.55  1847.09
                             1865.81  1898.42  1933.51  1953.97  1971.10
                             2000.77  2070.58  2088.18  2108.52  2113.04
                             2134.02  2168.57  2176.32  2176.65  2186.42
                             2190.99  2192.11  2196.65  2221.51  2227.98
                             2245.08  2262.65  2342.66  2354.29  2408.80
                             2423.23  4298.64  4310.67  4363.66  4371.39
                             4426.46  4428.09  4428.50  4438.90  4492.55
                             4502.53  4517.42  4533.83  4571.61  4606.16
                             4614.42  4617.58  4647.15  4655.31  4656.96

 Zero-point correction=                           0.315123 (Hartree/Particle)
 Thermal correction to Energy=                    0.332753
 Thermal correction to Enthalpy=                  0.333697
 Thermal correction to Gibbs Free Energy=         0.267340
 Sum of electronic and zero-point Energies=           -750.870978
 Sum of electronic and thermal Energies=              -750.853347
 Sum of electronic and thermal Enthalpies=            -750.852403
 Sum of electronic and thermal Free Energies=         -750.918761

                     E (Thermal)             CV                S
                      KCal/Mol        Cal/Mol-Kelvin    Cal/Mol-Kelvin
 Total                  208.806             67.095            139.661
 Electronic               0.000              0.000              0.000
 Translational            0.889              2.981             42.342
 Rotational               0.889              2.981             33.621
 Vibrational            207.028             61.133             63.698
 Vibration     1          0.593              1.987              8.638
 Vibration     2          0.593              1.984              5.898
 Vibration     3          0.594              1.981              5.244
 Vibration     4          0.598              1.969              4.160
 Vibration     5          0.605              1.946              3.381
 Vibration     6          0.610              1.928              3.024
 Vibration     7          0.615              1.913              2.802
 Vibration     8          0.618              1.904              2.685
 Vibration     9          0.626              1.876              2.408
 Vibration    10          0.634              1.851              2.207
 Vibration    11          0.644              1.820              2.011
 Vibration    12          0.646              1.813              1.970
 Vibration    13          0.653              1.793              1.866
 Vibration    14          0.671              1.737              1.629
 Vibration    15          0.696              1.664              1.388
 Vibration    16          0.712              1.617              1.262
 Vibration    17          0.736              1.551              1.115
 Vibration    18          0.765              1.474              0.969
 Vibration    19          0.777              1.442              0.915
 Vibration    20          0.792              1.402              0.854
 Vibration    21          0.803              1.376              0.816
 Vibration    22          0.815              1.345              0.774
 Vibration    23          0.850              1.263              0.673
 Vibration    24          0.872              1.212              0.617
 Vibration    25          0.877              1.201              0.605
 Vibration    26          0.921              1.106              0.513
 Vibration    27          0.936              1.075              0.486
 Vibration    28          0.969              1.010              0.432

                           ! Non-Optimized Parameters !
 Normal termination of Gaussian 16 at Fri Dec 11 23:21:53 2020.

 ----------------------------------------------------------------------
 # B3LYP/6-311++G(d,p) empiricaldispersion=gd3bj scf=xqc pop=npa geom=c
 heck
 ----------------------------------------------------------------------

 --------------------------------------
 CID_11021049_JID_8953_Energie_neutraal
 --------------------------------------
 Structure from the checkpoint file:  "JID_8953.chk"
 Charge =  0 Multiplicity = 1

 SCF Done:  E(RB3LYP) =  -751.381566323     A.U. after   15 cycles
 Normal termination of Gaussian 16 at Fri Dec 11 23:27:36 2020.

 ----------------------------------------------------------------------
 # B3LYP/6-311++G(d,p) empiricaldispersion=gd3bj scf=xqc pop=npa geom=c
 heck
 ----------------------------------------------------------------------

 ------------------------------------
 CID_11021049_JID_8953_Energie_kation
 ------------------------------------
 Structure from the checkpoint file:  "JID_8953.chk"
 Charge =  1 Multiplicity = 2

 SCF Done:  E(UB3LYP) =  -751.129670735     A.U. after   22 cycles
 Normal termination of Gaussian 16 at Fri Dec 11 23:38:59 2020.
 Gaussian 16:  ES64L-G16RevA.03 25-Dec-2016

 ----------------------------------------------------------------------
 # B3LYP/6-311++G(d,p) empiricaldispersion=gd3bj scf=xqc pop=npa geom=c
 heck
 ----------------------------------------------------------------------

 -----------------------------------
 CID_11021049_JID_8953_Energie_anion
 -----------------------------------
 Structure from the checkpoint file:  "JID_8953.chk"
 Charge = -1 Multiplicity = 2

                         Standard orientation:
 ---------------------------------------------------------------------
 Center     Atomic      Atomic             Coordinates (Angstroms)
 Number     Number       Type             X           Y           Z
 ---------------------------------------------------------------------
      1          6           0       -5.165750    1.860322   -0.431613
      2          6           0       -3.948742    0.983071   -0.274438
      3          6           0       -4.070183   -0.352718    0.166048
      4          6           0       -2.926300   -1.136846    0.305074
      5          6           0       -1.660811   -0.622538    0.011677
      6          6           0       -1.526113    0.692891   -0.427622
      7          6           0       -2.674584    1.474833   -0.561906
      8          8           0       -0.605593   -1.497032    0.160329
      9          6           0        0.686301   -0.990421    0.128194
     10          6           0        1.504825   -1.278758   -0.958206
     11          6           0        2.824339   -0.835026   -0.982432
     12          6           0        3.362111   -0.086818    0.087018
     13          6           0        2.504406    0.208291    1.170598
     14          6           0        1.189845   -0.244913    1.191868
     15          7           0        4.690061    0.334611    0.080669
     16          6           0        5.439769    0.251814   -1.159238
     17          6           0        5.110836    1.325085    1.054501
     18          6           0       -5.424525   -0.933084    0.490045
     19          1           0       -5.880934    1.442060   -1.152085
     20          1           0       -5.708821    1.980226    0.515130
     21          1           0       -4.886786    2.858506   -0.782563
     22          1           0       -2.998360   -2.165812    0.644715
     23          1           0       -0.548865    1.098165   -0.661636
     24          1           0       -2.571228    2.501639   -0.905195
     25          1           0        1.101584   -1.853536   -1.785915
     26          1           0        3.432898   -1.075018   -1.845043
     27          1           0        2.861975    0.790844    2.010185
     28          1           0        0.544897   -0.014482    2.034086
     29          1           0        4.987596    0.838685   -1.975863
     30          1           0        6.452372    0.622314   -0.988500
     31          1           0        5.522466   -0.787903   -1.495404
     32          1           0        4.547748    2.270033    0.978588
     33          1           0        4.994086    0.942554    2.074720
     34          1           0        6.170233    1.542685    0.905819
     35          1           0       -5.341641   -1.974096    0.815150
     36          1           0       -5.923944   -0.369670    1.288712
     37          1           0       -6.093494   -0.904326   -0.379618
 ---------------------------------------------------------------------

 SCF Done:  E(UB3LYP) =  -751.370343476     A.U. after   33 cycles
 SCF Done:  E(UB3LYP) =  -751.370343476     a.u. after    1 cycles

 The electronic state is 2-A.
 Alpha  occ. eigenvalues --  -19.07145 -14.24135 -10.14892 -10.13472 -10.12650
 Alpha  occ. eigenvalues --  -10.10554 -10.10537 -10.10057 -10.09244 -10.08985
 Alpha  occ. eigenvalues --  -10.08905 -10.08860 -10.08744 -10.08476 -10.08465
 Alpha  occ. eigenvalues --  -10.08460 -10.08450 -10.08370  -0.99012  -0.86002
 Alpha  occ. eigenvalues --   -0.78008  -0.76034  -0.69708  -0.68497  -0.66795
 Alpha  occ. eigenvalues --   -0.65725  -0.63131  -0.61870  -0.59438  -0.56855
 Alpha  occ. eigenvalues --   -0.52841  -0.52256  -0.51401  -0.48014  -0.45184
 Alpha  occ. eigenvalues --   -0.43017  -0.41167  -0.40544  -0.38769  -0.37441
 Alpha  occ. eigenvalues --   -0.36741  -0.35796  -0.35523  -0.34964  -0.34140
 Alpha  occ. eigenvalues --   -0.33754  -0.33155  -0.31928  -0.31906  -0.31511
 Alpha  occ. eigenvalues --   -0.30779  -0.30430  -0.30145  -0.29138  -0.28972
 Alpha  occ. eigenvalues --   -0.27496  -0.27016  -0.26074  -0.25285  -0.23243
 Alpha  occ. eigenvalues --   -0.19466  -0.17282  -0.16557  -0.13716  -0.10662
 Alpha  occ. eigenvalues --    0.03720
 Alpha virt. eigenvalues --    0.04684   0.06251   0.06509   0.06669   0.07203
 Alpha virt. eigenvalues --    0.07603   0.07988   0.08148   0.08641   0.08784
 Alpha virt. eigenvalues --    0.09083   0.09198   0.09438   0.09938   0.10635

  Beta  occ. eigenvalues --  -19.07144 -14.24131 -10.14892 -10.13470 -10.12648
  Beta  occ. eigenvalues --  -10.10506 -10.10488 -10.10055 -10.09244 -10.08980
  Beta  occ. eigenvalues --  -10.08901 -10.08858 -10.08718 -10.08463 -10.08458
  Beta  occ. eigenvalues --  -10.08448 -10.08442 -10.08358  -0.99009  -0.85986
  Beta  occ. eigenvalues --   -0.78001  -0.76022  -0.69694  -0.68483  -0.66775
  Beta  occ. eigenvalues --   -0.65702  -0.63066  -0.61839  -0.59402  -0.56808
  Beta  occ. eigenvalues --   -0.52815  -0.52234  -0.51371  -0.47989  -0.45164
  Beta  occ. eigenvalues --   -0.42983  -0.41154  -0.40517  -0.38748  -0.37404
  Beta  occ. eigenvalues --   -0.36717  -0.35776  -0.35497  -0.34933  -0.34122
  Beta  occ. eigenvalues --   -0.33732  -0.33137  -0.31897  -0.31879  -0.31465
  Beta  occ. eigenvalues --   -0.30753  -0.30412  -0.30112  -0.29088  -0.28953
  Beta  occ. eigenvalues --   -0.27478  -0.26994  -0.26056  -0.25271  -0.23232
  Beta  occ. eigenvalues --   -0.19448  -0.17268  -0.16548  -0.13708  -0.10638
  Beta virt. eigenvalues --    0.05330   0.05971   0.06281   0.06774   0.07259
  Beta virt. eigenvalues --    0.07638   0.07686   0.08036   0.08443   0.08789
  Beta virt. eigenvalues --    0.09095   0.09357   0.09465   0.09781   0.10147

 Mulliken charges and spin densities:
               1          2
     1  C    1.180082  -1.761966
     2  C   -0.413771   1.317854
     3  C   -1.552772   1.744196
     4  C   -0.581742   0.012799
     5  C   -0.449356   0.003114
     6  C    0.478890  -0.524818
     7  C    0.401303  -0.885544
     8  O   -0.030519  -0.000364
     9  C   -0.138605  -0.503088
    10  C    0.276118   0.020232
    11  C   -0.085708  -0.053343
    12  C   -0.308510  -0.190329
    13  C   -0.130199   0.136583
    14  C    0.263977   0.001942
    15  N   -0.187061   0.286646
    16  C    0.793140  -1.173733
    17  C    0.735384  -1.119949
    18  C    0.823622  -1.344605
    19  H   -0.071279   0.219244
    20  H   -0.079050   0.228498
    21  H   -0.155672   0.302615
    22  H    0.155771  -0.030594
    23  H    0.221033  -0.022709
    24  H   -0.041484   0.184822
    25  H    0.008878   0.169409
    26  H    0.001407   0.161574
    27  H   -0.015216   0.179872
    28  H    0.024085   0.153834
    29  H   -0.138917   0.298452
    30  H   -0.544646   0.690469
    31  H   -0.288631   0.436862
    32  H   -0.156596   0.319185
    33  H   -0.255556   0.403183
    34  H   -0.477287   0.621978
    35  H   -0.165902   0.318347
    36  H   -0.043441   0.196351
    37  H   -0.051767   0.202980
 Sum of Mulliken charges =  -1.00000   1.00000

 Dipole moment (field-independent basis, Debye):
    X=             -5.7230    Y=             -2.2458    Z=              0.0534  Tot=              6.1481
 Quadrupole moment (field-independent basis, Debye-Ang):
   XX=           -275.1898   YY=           -145.4483   ZZ=           -140.7961
   XY=             -6.4579   XZ=              1.5253   YZ=             -0.5835

 Summary of Natural Population Analysis:

                                       Natural Population
                Natural  -----------------------------------------------
    Atom  No    Charge         Core      Valence    Rydberg      Total
 -----------------------------------------------------------------------
      C    1   -0.29365      0.99964     2.28871    0.00530     3.29365
      C    2   -0.03212      0.99947     2.02266    0.00998     3.03212
      C    3   -0.00754      0.99949     1.99833    0.00972     3.00754
      C    4   -0.12014      0.99947     2.11231    0.00835     3.12014
      C    5    0.16069      0.99935     1.82789    0.01207     2.83931
      C    6   -0.13955      0.99951     2.13257    0.00747     3.13955
      C    7   -0.08764      0.99953     2.07951    0.00860     3.08764
      O    8   -0.27225      0.99984     3.26284    0.00957     4.27225
      C    9    0.12336      0.99933     1.86443    0.01288     2.87664
      C   10   -0.10803      0.99951     2.09966    0.00886     3.10803
      C   11   -0.12363      0.99954     2.11518    0.00892     3.12363
      C   12    0.09346      0.99949     1.89608    0.01097     2.90654
      C   13   -0.12345      0.99954     2.11491    0.00899     3.12345
      C   14   -0.10956      0.99951     2.10165    0.00840     3.10956
      N   15   -0.25079      0.99967     2.73948    0.01165     3.75079
      C   16   -0.17502      0.99964     2.16670    0.00868     3.17502
      C   17   -0.17503      0.99964     2.16674    0.00864     3.17503
      C   18   -0.29487      0.99964     2.28986    0.00537     3.29487
      H   19    0.10320      0.00000     0.39564    0.00115     0.39680
      H   20    0.10356      0.00000     0.39527    0.00117     0.39644
      H   21    0.10209      0.00000     0.39698    0.00093     0.39791
      H   22    0.10332      0.00000     0.39522    0.00145     0.39668
      H   23    0.11196      0.00000     0.38675    0.00130     0.38804
      H   24    0.09876      0.00000     0.40037    0.00088     0.40124
      H   25    0.10556      0.00000     0.39348    0.00095     0.39444
      H   26    0.10581      0.00000     0.39312    0.00107     0.39419
      H   27    0.10597      0.00000     0.39293    0.00110     0.39403
      H   28    0.10644      0.00000     0.39259    0.00097     0.39356
      H   29    0.08961      0.00000     0.40875    0.00164     0.41039
      H   30    0.10296      0.00000     0.39534    0.00169     0.39704
      H   31    0.09598      0.00000     0.40227    0.00175     0.40402
      H   32    0.08988      0.00000     0.40846    0.00166     0.41012
      H   33    0.09569      0.00000     0.40262    0.00169     0.40431
      H   34    0.10295      0.00000     0.39540    0.00164     0.39705
      H   35    0.10186      0.00000     0.39731    0.00083     0.39814
      H   36    0.10529      0.00000     0.39355    0.00115     0.39471
      H   37    0.10485      0.00000     0.39405    0.00110     0.39515
 =======================================================================
   * Total *    0.00000     17.99182    46.81961    0.18857    65.00000

 Normal termination of Gaussian 16 at Fri Dec 11 23:55:42 2020.
