 Gaussian 16, Revision A.03,

 -----------------------------------------------------------
 # opt freq B3LYP/6-31G(d) empiricaldispersion=gd3bj scf=xqc
 -----------------------------------------------------------

 ------------------------------
 CID_13512122_JID_6258_neutraal
 ------------------------------
 Symbolic Z-matrix:
 Charge =  0 Multiplicity = 1

 SCF Done:  E(RB3LYP) =  -734.351565663     A.U. after   14 cycles
 SCF Done:  E(RB3LYP) =  -734.357954247     A.U. after   12 cycles
 SCF Done:  E(RB3LYP) =  -734.356822509     A.U. after   12 cycles
 SCF Done:  E(RB3LYP) =  -734.358919235     A.U. after   11 cycles
 SCF Done:  E(RB3LYP) =  -734.358285466     A.U. after   12 cycles
 SCF Done:  E(RB3LYP) =  -734.359341732     A.U. after   12 cycles
 SCF Done:  E(RB3LYP) =  -734.359490739     A.U. after   11 cycles
 SCF Done:  E(RB3LYP) =  -734.359542549     A.U. after   10 cycles
 SCF Done:  E(RB3LYP) =  -734.359551475     A.U. after    9 cycles
 SCF Done:  E(RB3LYP) =  -734.359553647     A.U. after    9 cycles
 SCF Done:  E(RB3LYP) =  -734.359556052     A.U. after    8 cycles
 SCF Done:  E(RB3LYP) =  -734.359556787     A.U. after    8 cycles
 SCF Done:  E(RB3LYP) =  -734.359557072     A.U. after    7 cycles
 SCF Done:  E(RB3LYP) =  -734.359557194     A.U. after    7 cycles
 SCF Done:  E(RB3LYP) =  -734.359557221     A.U. after    6 cycles
 Optimization completed.
    -- Stationary point found.
 Normal termination of Gaussian 16 at Thu Dec 10 21:59:37 2020.

 --------------------------------------------------------------------
 #N Geom=AllCheck Guess=TCheck SCRF=Check GenChk RB3LYP/6-31G(d) Freq
 --------------------------------------------------------------------

 Structure from the checkpoint file:  "JID_6258.chk"
 ------------------------------
 CID_13512122_JID_6258_neutraal
 ------------------------------
 Charge =  0 Multiplicity = 1

 SCF Done:  E(RB3LYP) =  -734.359557221     A.U. after    1 cycles

  Exact polarizability: 158.101   2.840 135.484  -1.200   1.594 118.983
 Approx polarizability: 202.684   8.139 193.433   1.788   6.256 185.342

                      1                      2                      3
                      A                      A                      A
 Frequencies --     33.7413                62.2739                80.1875
 Red. masses --      4.1437                 3.8016                 2.5007
 Frc consts  --      0.0028                 0.0087                 0.0095
 IR Inten    --      0.5109                 0.0948                 3.2419

                      4                      5                      6
                      A                      A                      A
 Frequencies --    134.4428               151.6804               170.2953
 Red. masses --      1.5002                 2.3110                 2.7547
 Frc consts  --      0.0160                 0.0313                 0.0471
 IR Inten    --      0.1065                 0.6854                 2.9871

                      7                      8                      9
                      A                      A                      A
 Frequencies --    175.2243               182.1290               201.3490
 Red. masses --      2.6966                 4.3090                 1.3122
 Frc consts  --      0.0488                 0.0842                 0.0313
 IR Inten    --      0.7004                 2.9596                 0.0935

                     10                     11                     12
                      A                      A                      A
 Frequencies --    212.8357               233.4237               245.5819
 Red. masses --      1.4524                 1.5448                 2.4343
 Frc consts  --      0.0388                 0.0496                 0.0865
 IR Inten    --      0.5908                 2.1912                 4.3829

                     13                     14                     15
                      A                      A                      A
 Frequencies --    267.6568               296.7687               313.2645
 Red. masses --      2.1237                 2.2291                 2.9143
 Frc consts  --      0.0896                 0.1157                 0.1685
 IR Inten    --      4.0424                 0.5610                 1.9343

                     16                     17                     18
                      A                      A                      A
 Frequencies --    342.1531               357.8205               405.3568
 Red. masses --      3.3515                 2.4445                 2.8036
 Frc consts  --      0.2312                 0.1844                 0.2714
 IR Inten    --      1.3172                 0.4386                 0.0700

                     19                     20                     21
                      A                      A                      A
 Frequencies --    425.6869               431.1027               449.1287
 Red. masses --      2.3490                 2.2615                 3.1515
 Frc consts  --      0.2508                 0.2476                 0.3746
 IR Inten    --      0.9794                 1.1568                 5.9687

                     22                     23                     24
                      A                      A                      A
 Frequencies --    496.8231               516.0041               557.3521
 Red. masses --      4.0355                 4.6637                 3.0521
 Frc consts  --      0.5869                 0.7316                 0.5586
 IR Inten    --      2.1239                 7.4959                12.4364

                     25                     26                     27
                      A                      A                      A
 Frequencies --    576.1836               587.2551               643.8217
 Red. masses --      2.5085                 3.3160                 3.0934
 Frc consts  --      0.4907                 0.6738                 0.7555
 IR Inten    --      3.0203                 4.6170                 3.7241

                     28                     29                     30
                      A                      A                      A
 Frequencies --    667.0808               715.8539               788.6746
 Red. masses --      4.9670                 3.4925                 1.3956
 Frc consts  --      1.3023                 1.0545                 0.5114
 IR Inten    --      2.0401                 4.0658                 0.6740

                     31                     32                     33
                      A                      A                      A
 Frequencies --    799.9792               822.4895               848.8040
 Red. masses --      3.0892                 2.8611                 2.2260
 Frc consts  --      1.1648                 1.1404                 0.9449
 IR Inten    --      0.4900                 4.1098                24.3855

                     34                     35                     36
                      A                      A                      A
 Frequencies --    883.4621               909.1877               924.8898
 Red. masses --      1.9042                 2.5137                 1.8726
 Frc consts  --      0.8757                 1.2242                 0.9438
 IR Inten    --     35.4902                 1.2889                 2.1708

                     37                     38                     39
                      A                      A                      A
 Frequencies --    939.3808               946.2863               964.3900
 Red. masses --      1.9749                 1.9505                 1.7743
 Frc consts  --      1.0268                 1.0291                 0.9722
 IR Inten    --     17.6022                 7.3275                16.4807

                     40                     41                     42
                      A                      A                      A
 Frequencies --    967.2746               975.0838               995.7321
 Red. masses --      1.4346                 1.7875                 1.9662
 Frc consts  --      0.7908                 1.0013                 1.1486
 IR Inten    --      3.2380                 4.5979                40.3229

                     43                     44                     45
                      A                      A                      A
 Frequencies --    997.8582              1048.3066              1048.6745
 Red. masses --      2.2476                 1.7844                 1.9547
 Frc consts  --      1.3186                 1.1554                 1.2665
 IR Inten    --     26.2543                 4.0067                 8.7307

                     46                     47                     48
                      A                      A                      A
 Frequencies --   1057.3077              1069.7121              1082.4881
 Red. masses --      1.6699                 2.1454                 3.3937
 Frc consts  --      1.0999                 1.4464                 2.3430
 IR Inten    --      5.7544                10.2009                23.7681

                     49                     50                     51
                      A                      A                      A
 Frequencies --   1113.6731              1130.5549              1151.2608
 Red. masses --      2.3393                 2.7949                 2.2714
 Frc consts  --      1.7095                 2.1047                 1.7737
 IR Inten    --     21.3289               155.5890                83.7686

                     52                     53                     54
                      A                      A                      A
 Frequencies --   1181.2247              1190.1477              1200.4766
 Red. masses --      2.6456                 1.8852                 1.7100
 Frc consts  --      2.1749                 1.5733                 1.4519
 IR Inten    --     71.8550                22.1459                26.1613

                     55                     56                     57
                      A                      A                      A
 Frequencies --   1216.7513              1227.1827              1255.1428
 Red. masses --      2.4243                 2.6354                 1.8452
 Frc consts  --      2.1146                 2.3384                 1.7127
 IR Inten    --     99.9368                18.0170                 1.4666

                     58                     59                     60
                      A                      A                      A
 Frequencies --   1266.5078              1273.8133              1281.8742
 Red. masses --      1.3416                 1.4627                 1.5887
 Frc consts  --      1.2679                 1.3983                 1.5381
 IR Inten    --      4.3369                 7.4008                10.8717

                     61                     62                     63
                      A                      A                      A
 Frequencies --   1313.8204              1324.2031              1328.3535
 Red. masses --      1.4600                 1.7439                 1.3026
 Frc consts  --      1.4848                 1.8016                 1.3542
 IR Inten    --      0.8742                 0.1286                34.5194

                     64                     65                     66
                      A                      A                      A
 Frequencies --   1334.9684              1353.6312              1362.5312
 Red. masses --      1.2624                 1.4927                 1.4617
 Frc consts  --      1.3255                 1.6115                 1.5988
 IR Inten    --     14.1351                 0.5637                 2.1387

                     67                     68                     69
                      A                      A                      A
 Frequencies --   1374.5492              1388.3300              1408.5125
 Red. masses --      1.3334                 1.4052                 1.3641
 Frc consts  --      1.4843                 1.5958                 1.5945
 IR Inten    --      0.6648                 1.9270                 4.5873

                     70                     71                     72
                      A                      A                      A
 Frequencies --   1423.9410              1432.3322              1443.4024
 Red. masses --      1.2834                 1.3140                 1.2418
 Frc consts  --      1.5332                 1.5883                 1.5243
 IR Inten    --      9.3801                 2.3334                 4.6876

                     73                     74                     75
                      A                      A                      A
 Frequencies --   1457.4386              1477.9850              1513.3282
 Red. masses --      1.2578                 1.0812                 1.0648
 Frc consts  --      1.5741                 1.3915                 1.4368
 IR Inten    --     20.4016                 6.7772                 1.6202

                     76                     77                     78
                      A                      A                      A
 Frequencies --   1516.8907              1517.7389              1521.1673
 Red. masses --      1.0687                 1.0476                 1.0786
 Frc consts  --      1.4489                 1.4218                 1.4705
 IR Inten    --      9.1965                 0.5065                 5.6157

                     79                     80                     81
                      A                      A                      A
 Frequencies --   1529.6576              1530.3690              1533.0238
 Red. masses --      1.0556                 1.0803                 1.0608
 Frc consts  --      1.4552                 1.4907                 1.4689
 IR Inten    --      4.9464                 1.6482                 1.3126

                     82                     83                     84
                      A                      A                      A
 Frequencies --   1536.2616              1537.8863              1541.4766
 Red. masses --      1.0776                 1.0702                 1.0619
 Frc consts  --      1.4984                 1.4913                 1.4866
 IR Inten    --      4.6714                 6.0525                10.8557

                     85                     86                     87
                      A                      A                      A
 Frequencies --   1559.4469              1832.3602              3019.7362
 Red. masses --      1.0868                12.3742                 1.0663
 Frc consts  --      1.5572                24.4788                 5.7289
 IR Inten    --      4.6568               182.5112                41.6846

                     88                     89                     90
                      A                      A                      A
 Frequencies --   3038.4794              3043.8969              3045.2570
 Red. masses --      1.0449                 1.0551                 1.0701
 Frc consts  --      5.6836                 5.7598                 5.8468
 IR Inten    --     11.1116                36.2124                69.9939

                     91                     92                     93
                      A                      A                      A
 Frequencies --   3052.3014              3060.8821              3070.6791
 Red. masses --      1.0417                 1.0646                 1.0402
 Frc consts  --      5.7182                 5.8765                 5.7790
 IR Inten    --     24.2665                13.1801                29.9114

                     94                     95                     96
                      A                      A                      A
 Frequencies --   3079.5802              3085.5477              3090.4896
 Red. masses --      1.0614                 1.0612                 1.1016
 Frc consts  --      5.9306                 5.9525                 6.1992
 IR Inten    --     11.7029                27.3318                23.7930

                     97                     98                     99
                      A                      A                      A
 Frequencies --   3096.0351              3101.6652              3106.4666
 Red. masses --      1.0969                 1.0855                 1.0991
 Frc consts  --      6.1949                 6.1525                 6.2489
 IR Inten    --     23.7118                 6.9008                 5.5163

                    100                    101                    102
                      A                      A                      A
 Frequencies --   3106.8452              3108.3856              3113.1453
 Red. masses --      1.1018                 1.1024                 1.1016
 Frc consts  --      6.2661                 6.2756                 6.2902
 IR Inten    --     34.5589                19.0471                60.5225

                    103                    104                    105
                      A                      A                      A
 Frequencies --   3123.5377              3132.7650              3135.3732
 Red. masses --      1.1024                 1.1047                 1.0965
 Frc consts  --      6.3368                 6.3875                 6.3508
 IR Inten    --      4.9289                37.7811                24.6091

                    106                    107                    108
                      A                      A                      A
 Frequencies --   3151.2499              3158.6651              3164.3192
 Red. masses --      1.0987                 1.1031                 1.0887
 Frc consts  --      6.4283                 6.4846                 6.4226
 IR Inten    --     16.9575                30.1360                34.6934

 - Thermochemistry -
 -------------------
 Temperature   298.150 Kelvin.  Pressure   1.00000 Atm.
 Atom     1 has atomic number  6 and mass  12.00000

 Molecular mass:   226.15689 amu.
 Principal axes and moments of inertia in atomic units:
                           1         2         3
     Eigenvalues --  1965.436454404.376505160.21795
           X            0.99997   0.00219  -0.00806
           Y           -0.00237   0.99975  -0.02217
           Z            0.00801   0.02219   0.99972
 This molecule is an asymmetric top.
 Rotational symmetry number  1.
 Warning -- assumption of classical behavior for rotation
           may cause significant error
 Rotational temperatures (Kelvin)      0.04407     0.01967     0.01678
 Rotational constants (GHZ):           0.91824     0.40976     0.34974
 Zero-point vibrational energy     889243.9 (Joules/Mol)
                                  212.53440 (Kcal/Mol)
 Warning -- explicit consideration of  26 degrees of freedom as
           vibrations may cause significant error
 Vibrational temperatures:     48.55    89.60   115.37   193.43   218.23
          (Kelvin)            245.02   252.11   262.04   289.70   306.22
                              335.84   353.34   385.10   426.98   450.72
                              492.28   514.82   583.22   612.47   620.26
                              646.20   714.82   742.41   801.91   829.00
                              844.93   926.32   959.78  1029.95  1134.73
                             1150.99  1183.38  1221.24  1271.10  1308.12
                             1330.71  1351.56  1361.49  1387.54  1391.69
                             1402.93  1432.64  1435.70  1508.28  1508.81
                             1521.23  1539.08  1557.46  1602.33  1626.62
                             1656.41  1699.52  1712.36  1727.22  1750.63
                             1765.64  1805.87  1822.22  1832.73  1844.33
                             1890.29  1905.23  1911.20  1920.72  1947.57
                             1960.38  1977.67  1997.50  2026.54  2048.73
                             2060.81  2076.73  2096.93  2126.49  2177.34
                             2182.47  2183.69  2188.62  2200.84  2201.86
                             2205.68  2210.34  2212.68  2217.84  2243.70
                             2636.36  4344.73  4371.69  4379.49  4381.45
                             4391.58  4403.93  4418.02  4430.83  4439.41
                             4446.53  4454.50  4462.60  4469.51  4470.06
                             4472.27  4479.12  4494.07  4507.35  4511.10
                             4533.95  4544.61  4552.75

 Zero-point correction=                           0.338695 (Hartree/Particle)
 Thermal correction to Energy=                    0.354928
 Thermal correction to Enthalpy=                  0.355872
 Thermal correction to Gibbs Free Energy=         0.296117
 Sum of electronic and zero-point Energies=           -734.020862
 Sum of electronic and thermal Energies=              -734.004629
 Sum of electronic and thermal Enthalpies=            -734.003685
 Sum of electronic and thermal Free Energies=         -734.063440

                     E (Thermal)             CV                S
                      KCal/Mol        Cal/Mol-Kelvin    Cal/Mol-Kelvin
 Total                  222.721             63.969            125.764
 Electronic               0.000              0.000              0.000
 Translational            0.889              2.981             42.151
 Rotational               0.889              2.981             32.169
 Vibrational            220.943             58.008             51.445
 Vibration     1          0.594              1.983              5.596
 Vibration     2          0.597              1.972              4.384
 Vibration     3          0.600              1.963              3.886
 Vibration     4          0.613              1.919              2.881
 Vibration     5          0.619              1.901              2.651
 Vibration     6          0.625              1.879              2.432
 Vibration     7          0.627              1.873              2.379
 Vibration     8          0.630              1.864              2.306
 Vibration     9          0.638              1.838              2.121
 Vibration    10          0.644              1.821              2.019
 Vibration    11          0.654              1.790              1.852
 Vibration    12          0.660              1.770              1.762
 Vibration    13          0.673              1.733              1.611
 Vibration    14          0.690              1.680              1.435
 Vibration    15          0.701              1.648              1.345
 Vibration    16          0.721              1.591              1.202
 Vibration    17          0.733              1.559              1.132
 Vibration    18          0.770              1.459              0.943
 Vibration    19          0.788              1.414              0.873
 Vibration    20          0.792              1.402              0.855
 Vibration    21          0.808              1.363              0.798
 Vibration    22          0.852              1.257              0.666
 Vibration    23          0.871              1.215              0.619
 Vibration    24          0.913              1.124              0.529
 Vibration    25          0.933              1.083              0.492
 Vibration    26          0.944              1.059              0.472

                           ! Non-Optimized Parameters !
 Normal termination of Gaussian 16 at Thu Dec 10 22:16:41 2020.

 ----------------------------------------------------------------------
 # B3LYP/6-311++G(d,p) empiricaldispersion=gd3bj scf=xqc pop=npa geom=c
 heck
 ----------------------------------------------------------------------

 --------------------------------------
 CID_13512122_JID_6258_Energie_neutraal
 --------------------------------------
 Structure from the checkpoint file:  "JID_6258.chk"
 Charge =  0 Multiplicity = 1

 SCF Done:  E(RB3LYP) =  -734.565134413     A.U. after   15 cycles
 Normal termination of Gaussian 16 at Thu Dec 10 22:24:08 2020.

 ----------------------------------------------------------------------
 # B3LYP/6-311++G(d,p) empiricaldispersion=gd3bj scf=xqc pop=npa geom=c
 heck
 ----------------------------------------------------------------------

 ------------------------------------
 CID_13512122_JID_6258_Energie_kation
 ------------------------------------
 Structure from the checkpoint file:  "JID_6258.chk"
 Charge =  1 Multiplicity = 2

 SCF Done:  E(UB3LYP) =  -734.253392648     A.U. after   24 cycles
 Normal termination of Gaussian 16 at Thu Dec 10 22:41:36 2020.
 Gaussian 16:  ES64L-G16RevA.03 25-Dec-2016

 ----------------------------------------------------------------------
 # B3LYP/6-311++G(d,p) empiricaldispersion=gd3bj scf=xqc pop=npa geom=c
 heck
 ----------------------------------------------------------------------

 -----------------------------------
 CID_13512122_JID_6258_Energie_anion
 -----------------------------------
 Structure from the checkpoint file:  "JID_6258.chk"
 Charge = -1 Multiplicity = 2

                         Standard orientation:
 ---------------------------------------------------------------------
 Center     Atomic      Atomic             Coordinates (Angstroms)
 Number     Number       Type             X           Y           Z
 ---------------------------------------------------------------------
      1          6           0        1.441448    2.376854   -1.123683
      2          6           0        0.753255    2.065999    0.207676
      3          6           0        0.148889    0.652617    0.333815
      4          8           0       -0.355883    0.324425   -0.956742
      5          6           0       -1.486880   -0.537133   -1.081482
      6          6           0       -2.603795   -0.216034   -0.080073
      7          6           0       -1.931516   -0.150129    1.296275
      8          8           0       -0.886435    0.812308    1.300833
      9          6           0       -3.251029    1.134396   -0.418316
     10          6           0       -3.647938   -1.336449   -0.102052
     11          6           0        1.191481   -0.392374    0.884486
     12          6           0        0.972709   -1.885250    0.552195
     13          6           0        1.679702   -2.100580   -0.803541
     14          6           0        2.950101   -1.244881   -0.691177
     15          6           0        2.625866   -0.182603    0.362736
     16          8           0        3.409107    0.643682    0.779158
     17          1           0        2.282090    1.710823   -1.332270
     18          1           0        1.838741    3.397234   -1.096615
     19          1           0        0.734356    2.301487   -1.952749
     20          1           0        1.446600    2.221147    1.039192
     21          1           0       -0.083734    2.756715    0.348546
     22          1           0       -1.188434   -1.588816   -0.984069
     23          1           0       -1.836818   -0.391023   -2.108947
     24          1           0       -2.638071    0.186104    2.062019
     25          1           0       -1.564103   -1.142709    1.596055
     26          1           0       -4.012212    1.397665    0.325403
     27          1           0       -2.504204    1.931307   -0.438752
     28          1           0       -3.737612    1.092884   -1.399827
     29          1           0       -3.206935   -2.305381    0.162035
     30          1           0       -4.455867   -1.128737    0.609147
     31          1           0       -4.098765   -1.431934   -1.096932
     32          1           0        1.212120   -0.201151    1.960786
     33          1           0       -0.066825   -2.208898    0.549284
     34          1           0        1.482325   -2.481019    1.321253
     35          1           0        1.048954   -1.725529   -1.614032
     36          1           0        1.890346   -3.156056   -0.999123
     37          1           0        3.257064   -0.764422   -1.625982
     38          1           0        3.812926   -1.819618   -0.331565
 ---------------------------------------------------------------------

 SCF Done:  E(UB3LYP) =  -734.554239696     A.U. after   33 cycles
 SCF Done:  E(UB3LYP) =  -734.554239696     a.u. after    1 cycles

 The electronic state is 2-A.
 Alpha  occ. eigenvalues --  -19.02554 -19.02511 -18.99030 -10.17942 -10.12898
 Alpha  occ. eigenvalues --  -10.11559 -10.11351 -10.08287 -10.07289 -10.07125
 Alpha  occ. eigenvalues --  -10.06810 -10.06788 -10.06032 -10.05703 -10.05477
 Alpha  occ. eigenvalues --  -10.05355  -0.97312  -0.92610  -0.90604  -0.73960
 Alpha  occ. eigenvalues --   -0.72559  -0.67541  -0.62929  -0.60198  -0.58736
 Alpha  occ. eigenvalues --   -0.58605  -0.57591  -0.53503  -0.49188  -0.48438
 Alpha  occ. eigenvalues --   -0.44871  -0.42324  -0.40319  -0.39121  -0.38298
 Alpha  occ. eigenvalues --   -0.36346  -0.35994  -0.35366  -0.34987  -0.33501
 Alpha  occ. eigenvalues --   -0.31960  -0.31371  -0.30125  -0.29692  -0.29522
 Alpha  occ. eigenvalues --   -0.28336  -0.28240  -0.27507  -0.26958  -0.26816
 Alpha  occ. eigenvalues --   -0.26132  -0.24958  -0.24890  -0.24523  -0.23684
 Alpha  occ. eigenvalues --   -0.23201  -0.22870  -0.21986  -0.20094  -0.16688
 Alpha  occ. eigenvalues --   -0.15433  -0.12919   0.04591
 Alpha virt. eigenvalues --    0.06206   0.07349   0.07829   0.08209   0.09184
 Alpha virt. eigenvalues --    0.09412   0.09810   0.09940   0.10754   0.11315
 Alpha virt. eigenvalues --    0.11928   0.12020   0.12221   0.12890   0.13407

  Beta  occ. eigenvalues --  -19.02553 -19.02507 -18.98856 -10.17909 -10.12654
  Beta  occ. eigenvalues --  -10.11543 -10.11322 -10.08286 -10.07310 -10.07107
  Beta  occ. eigenvalues --  -10.06827 -10.06786 -10.06031 -10.05647 -10.05451
  Beta  occ. eigenvalues --  -10.05353  -0.97297  -0.92246  -0.90596  -0.73884
  Beta  occ. eigenvalues --   -0.72488  -0.67521  -0.62898  -0.60151  -0.58664
  Beta  occ. eigenvalues --   -0.58554  -0.57403  -0.53441  -0.49134  -0.48376
  Beta  occ. eigenvalues --   -0.44696  -0.42236  -0.40187  -0.39080  -0.38170
  Beta  occ. eigenvalues --   -0.36156  -0.35939  -0.35303  -0.34875  -0.33417
  Beta  occ. eigenvalues --   -0.31898  -0.31330  -0.30067  -0.29603  -0.29293
  Beta  occ. eigenvalues --   -0.28286  -0.28095  -0.27445  -0.26876  -0.26725
  Beta  occ. eigenvalues --   -0.26078  -0.24895  -0.24761  -0.24412  -0.23660
  Beta  occ. eigenvalues --   -0.23044  -0.22514  -0.21937  -0.20074  -0.16673
  Beta  occ. eigenvalues --   -0.15379  -0.12798
  Beta virt. eigenvalues --    0.06931   0.07573   0.07965   0.08258   0.09079
  Beta virt. eigenvalues --    0.09530   0.09790   0.10102   0.10216   0.10951
  Beta virt. eigenvalues --    0.11705   0.12064   0.12312   0.12569   0.13189

 Mulliken charges and spin densities:
               1          2
     1  C   -0.490123  -0.082291
     2  C    0.041569  -0.031693
     3  C   -1.621968  -0.082841
     4  O    0.103301   0.030625
     5  C    0.833875  -1.511569
     6  C   -1.790797   2.622847
     7  C    0.622045  -1.172466
     8  O    0.108460   0.010345
     9  C    0.689352  -1.036553
    10  C    1.039415  -1.594663
    11  C    1.077390   0.312711
    12  C   -0.224287  -0.166763
    13  C   -0.012409  -0.259555
    14  C   -0.404187  -0.028362
    15  C   -0.498338   0.064002
    16  O   -0.270165   0.065190
    17  H    0.152696   0.028406
    18  H    0.119643   0.010369
    19  H    0.089552   0.055473
    20  H    0.207667  -0.005428
    21  H    0.128445   0.021669
    22  H   -0.090776   0.281037
    23  H   -0.121746   0.306771
    24  H    0.003252   0.179052
    25  H    0.007156   0.164023
    26  H   -0.147210   0.298248
    27  H    0.145989   0.004152
    28  H   -0.122711   0.262494
    29  H   -0.606166   0.751417
    30  H   -0.375725   0.528122
    31  H   -0.369825   0.523842
    32  H    0.265688  -0.000133
    33  H    0.140917  -0.000943
    34  H    0.099964   0.061011
    35  H    0.163122  -0.011413
    36  H   -0.111534   0.277667
    37  H    0.014761   0.166831
    38  H    0.203706  -0.041633
 Sum of Mulliken charges =  -1.00000   1.00000

 Dipole moment (field-independent basis, Debye):
    X=              4.9154    Y=              2.0249    Z=              1.0378  Tot=              5.4165
 Quadrupole moment (field-independent basis, Debye-Ang):
   XX=           -181.5095   YY=           -136.6187   ZZ=           -129.9973
   XY=            -16.3779   XZ=             -4.4083   YZ=             -4.2940

 Summary of Natural Population Analysis:

                                       Natural Population
                Natural  -----------------------------------------------
    Atom  No    Charge         Core      Valence    Rydberg      Total
 -----------------------------------------------------------------------
      C    1   -0.28377      0.99965     2.27966    0.00446     3.28377
      C    2   -0.20446      0.99956     2.19460    0.01030     3.20446
      C    3    0.31891      0.99951     1.66040    0.02118     2.68109
      O    4   -0.31902      0.99986     3.30927    0.00989     4.31902
      C    5   -0.00395      0.99948     1.99055    0.01391     3.00395
      C    6   -0.07633      0.99957     2.06352    0.01324     3.07633
      C    7   -0.00582      0.99950     1.99277    0.01355     3.00582
      O    8   -0.31287      0.99987     3.30438    0.00862     4.31287
      C    9   -0.28440      0.99962     2.27709    0.00770     3.28440
      C   10   -0.28487      0.99962     2.27762    0.00763     3.28487
      C   11   -0.17679      0.99946     2.16671    0.01061     3.17679
      C   12   -0.19265      0.99963     2.18385    0.00916     3.19265
      C   13   -0.19497      0.99964     2.18750    0.00783     3.19497
      C   14   -0.24349      0.99959     2.23543    0.00847     3.24349
      C   15    0.33116      0.99965     1.64492    0.02427     2.66884
      O   16   -0.28034      0.99987     3.27348    0.00699     4.28034
      H   17    0.10126      0.00000     0.39777    0.00096     0.39874
      H   18    0.09429      0.00000     0.40500    0.00071     0.40571
      H   19    0.10193      0.00000     0.39710    0.00098     0.39807
      H   20    0.10766      0.00000     0.39125    0.00109     0.39234
      H   21    0.10217      0.00000     0.39656    0.00127     0.39783
      H   22    0.08483      0.00000     0.41318    0.00200     0.41517
      H   23    0.09387      0.00000     0.40470    0.00143     0.40613
      H   24    0.09336      0.00000     0.40547    0.00117     0.40664
      H   25    0.08347      0.00000     0.41518    0.00135     0.41653
      H   26    0.09894      0.00000     0.40010    0.00096     0.40106
      H   27    0.10523      0.00000     0.39343    0.00134     0.39477
      H   28    0.09978      0.00000     0.39928    0.00095     0.40022
      H   29    0.10367      0.00000     0.39396    0.00236     0.39633
      H   30    0.10314      0.00000     0.39493    0.00194     0.39686
      H   31    0.10435      0.00000     0.39365    0.00200     0.39565
      H   32    0.11685      0.00000     0.38204    0.00111     0.38315
      H   33    0.10445      0.00000     0.39406    0.00149     0.39555
      H   34    0.09583      0.00000     0.40324    0.00093     0.40417
      H   35    0.10354      0.00000     0.39495    0.00151     0.39646
      H   36    0.09625      0.00000     0.40288    0.00087     0.40375
      H   37    0.11187      0.00000     0.38692    0.00121     0.38813
      H   38    0.10693      0.00000     0.39217    0.00089     0.39307
 =======================================================================
   * Total *    0.00004     15.99409    45.79955    0.20633    61.99996

 Normal termination of Gaussian 16 at Thu Dec 10 23:09:42 2020.
