 Gaussian 16, Revision A.03,

 -----------------------------------------------------------
 # opt freq B3LYP/6-31G(d) empiricaldispersion=gd3bj scf=xqc
 -----------------------------------------------------------

 -------------------------------
 CID_112055517_JID_9814_neutraal
 -------------------------------
 Symbolic Z-matrix:
 Charge =  0 Multiplicity = 1

 SCF Done:  E(RB3LYP) =  -864.719877184     A.U. after   15 cycles
 SCF Done:  E(RB3LYP) =  -864.722143380     A.U. after   13 cycles
 SCF Done:  E(RB3LYP) =  -864.722514214     A.U. after   13 cycles
 SCF Done:  E(RB3LYP) =  -864.723749479     A.U. after   13 cycles
 SCF Done:  E(RB3LYP) =  -864.726677338     A.U. after   12 cycles
 SCF Done:  E(RB3LYP) =  -864.726810251     A.U. after   12 cycles
 SCF Done:  E(RB3LYP) =  -864.727373102     A.U. after   12 cycles
 SCF Done:  E(RB3LYP) =  -864.727614477     A.U. after   11 cycles
 SCF Done:  E(RB3LYP) =  -864.727709687     A.U. after   10 cycles
 SCF Done:  E(RB3LYP) =  -864.727745792     A.U. after   10 cycles
 SCF Done:  E(RB3LYP) =  -864.727797963     A.U. after    9 cycles
 SCF Done:  E(RB3LYP) =  -864.727798204     A.U. after    8 cycles
 SCF Done:  E(RB3LYP) =  -864.727798266     A.U. after    7 cycles
 SCF Done:  E(RB3LYP) =  -864.727798328     A.U. after    7 cycles
 Optimization completed.
    -- Stationary point found.
 Normal termination of Gaussian 16 at Mon Dec 14 19:09:34 2020.

 --------------------------------------------------------------------
 #N Geom=AllCheck Guess=TCheck SCRF=Check GenChk RB3LYP/6-31G(d) Freq
 --------------------------------------------------------------------

 Structure from the checkpoint file:  "JID_9814.chk"
 -------------------------------
 CID_112055517_JID_9814_neutraal
 -------------------------------
 Charge =  0 Multiplicity = 1

 SCF Done:  E(RB3LYP) =  -864.727798327     A.U. after    1 cycles

  Exact polarizability: 181.355  26.800 167.800  11.457  -2.603 141.718
 Approx polarizability: 250.114  50.417 236.282  22.753  -5.265 245.907

                      1                      2                      3
                      A                      A                      A
 Frequencies --     20.0040                31.4515                41.9411
 Red. masses --      4.5830                 4.9474                 4.1165
 Frc consts  --      0.0011                 0.0029                 0.0043
 IR Inten    --      0.1472                 1.0231                 0.3578

                      4                      5                      6
                      A                      A                      A
 Frequencies --     49.4706                59.2121                71.1672
 Red. masses --      6.8269                 4.0704                 3.5676
 Frc consts  --      0.0098                 0.0084                 0.0106
 IR Inten    --      2.2528                 0.9219                 0.5573

                      7                      8                      9
                      A                      A                      A
 Frequencies --     87.1272               100.4133               154.8725
 Red. masses --      2.9855                 3.9348                 4.5931
 Frc consts  --      0.0134                 0.0234                 0.0649
 IR Inten    --      1.7585                 0.5956                 0.6648

                     10                     11                     12
                      A                      A                      A
 Frequencies --    163.3408               191.1679               211.7600
 Red. masses --      2.9183                 3.3835                 4.3014
 Frc consts  --      0.0459                 0.0729                 0.1136
 IR Inten    --      1.3780                 0.9705                 0.5992

                     13                     14                     15
                      A                      A                      A
 Frequencies --    239.9460               267.4140               287.6843
 Red. masses --      2.2607                 3.0296                 4.4701
 Frc consts  --      0.0767                 0.1276                 0.2180
 IR Inten    --      0.3173                 2.2491                 2.5048

                     16                     17                     18
                      A                      A                      A
 Frequencies --    320.5942               353.0759               367.4885
 Red. masses --      3.2824                 2.6582                 3.3184
 Frc consts  --      0.1988                 0.1952                 0.2640
 IR Inten    --      5.3901                 9.4152                 1.7181

                     19                     20                     21
                      A                      A                      A
 Frequencies --    390.1702               415.9822               438.6335
 Red. masses --      1.2489                 2.8174                 6.8553
 Frc consts  --      0.1120                 0.2872                 0.7771
 IR Inten    --     64.8170                 2.6688                11.1519

                     22                     23                     24
                      A                      A                      A
 Frequencies --    452.1925               506.0885               556.3642
 Red. masses --      2.1523                 3.1264                 3.0574
 Frc consts  --      0.2593                 0.4718                 0.5576
 IR Inten    --      3.5989                 8.1718                 0.4124

                     25                     26                     27
                      A                      A                      A
 Frequencies --    585.5370               608.2500               623.5270
 Red. masses --      1.5585                 2.0201                 3.3728
 Frc consts  --      0.3148                 0.4403                 0.7726
 IR Inten    --     46.0115                 2.5236                 7.8627

                     28                     29                     30
                      A                      A                      A
 Frequencies --    638.2485               674.9194               688.5474
 Red. masses --      5.9781                 3.4721                 3.1798
 Frc consts  --      1.4348                 0.9319                 0.8882
 IR Inten    --      0.1916                34.6098                52.3683

                     31                     32                     33
                      A                      A                      A
 Frequencies --    718.9444               739.7596               754.5490
 Red. masses --      1.7726                 4.7832                 2.9534
 Frc consts  --      0.5398                 1.5422                 0.9907
 IR Inten    --     32.1430                21.0071                13.7965

                     34                     35                     36
                      A                      A                      A
 Frequencies --    772.6083               786.6507               852.3905
 Red. masses --      2.0448                 2.2207                 2.4982
 Frc consts  --      0.7192                 0.8097                 1.0694
 IR Inten    --     15.1742                11.6434                 9.1616

                     37                     38                     39
                      A                      A                      A
 Frequencies --    864.1092               877.1399               900.3424
 Red. masses --      1.2558                 1.9173                 2.2634
 Frc consts  --      0.5525                 0.8691                 1.0810
 IR Inten    --      0.7250                14.3062                 5.4620

                     40                     41                     42
                      A                      A                      A
 Frequencies --    915.2896               929.3966               934.4555
 Red. masses --      1.6714                 1.7145                 2.6721
 Frc consts  --      0.8250                 0.8725                 1.3747
 IR Inten    --     19.5777                 1.0206                 1.5582

                     43                     44                     45
                      A                      A                      A
 Frequencies --    966.1936               972.9420               982.6299
 Red. masses --      1.9760                 1.3588                 1.9452
 Frc consts  --      1.0868                 0.7578                 1.1066
 IR Inten    --      2.0425                 0.0931                 1.1725

                     46                     47                     48
                      A                      A                      A
 Frequencies --    991.4296               996.4605              1000.2132
 Red. masses --      1.9740                 3.4944                 1.2848
 Frc consts  --      1.1432                 2.0443                 0.7573
 IR Inten    --      3.4002                18.3055                 0.0650

                     49                     50                     51
                      A                      A                      A
 Frequencies --   1022.3288              1050.0327              1057.5857
 Red. masses --      6.1161                 2.4756                 2.6352
 Frc consts  --      3.7662                 1.6082                 1.7366
 IR Inten    --      0.8278                20.6931                47.3082

                     52                     53                     54
                      A                      A                      A
 Frequencies --   1062.0926              1089.3925              1108.3025
 Red. masses --      2.2469                 2.6072                 2.2961
 Frc consts  --      1.4933                 1.8230                 1.6617
 IR Inten    --      1.9166                60.1930                16.8740

                     55                     56                     57
                      A                      A                      A
 Frequencies --   1111.5874              1127.8408              1129.0187
 Red. masses --      2.4835                 2.1173                 2.4002
 Frc consts  --      1.8080                 1.5868                 1.8026
 IR Inten    --     33.1177                25.9800                46.3823

                     58                     59                     60
                      A                      A                      A
 Frequencies --   1156.5179              1195.6173              1211.5661
 Red. masses --      2.3909                 1.0989                 1.2796
 Frc consts  --      1.8842                 0.9256                 1.1066
 IR Inten    --      4.9239                 0.3002                 1.6569

                     61                     62                     63
                      A                      A                      A
 Frequencies --   1215.9736              1220.5344              1224.1078
 Red. masses --      1.3986                 1.1403                 1.8466
 Frc consts  --      1.2184                 1.0008                 1.6302
 IR Inten    --     29.9116                 0.7600                 2.8685

                     64                     65                     66
                      A                      A                      A
 Frequencies --   1225.8242              1260.1358              1273.9495
 Red. masses --      1.5129                 1.2285                 1.1881
 Frc consts  --      1.3394                 1.1494                 1.1361
 IR Inten    --      3.6079                 6.0437                 1.0478

                     67                     68                     69
                      A                      A                      A
 Frequencies --   1293.3564              1318.8211              1325.4850
 Red. masses --      1.3306                 1.9005                 1.3058
 Frc consts  --      1.3114                 1.9475                 1.3517
 IR Inten    --     39.9123                 2.9151                 0.5826

                     70                     71                     72
                      A                      A                      A
 Frequencies --   1332.7233              1358.6012              1362.8608
 Red. masses --      1.2074                 1.6377                 1.4702
 Frc consts  --      1.2635                 1.7811                 1.6089
 IR Inten    --      0.9154                 5.6844                 5.4804

                     73                     74                     75
                      A                      A                      A
 Frequencies --   1365.1009              1371.0793              1377.1971
 Red. masses --      1.3556                 1.6981                 1.3217
 Frc consts  --      1.4883                 1.8808                 1.4770
 IR Inten    --      5.8856                 5.0604                13.6182

                     76                     77                     78
                      A                      A                      A
 Frequencies --   1402.2656              1403.1508              1408.6313
 Red. masses --      1.3857                 1.7311                 1.4828
 Frc consts  --      1.6054                 2.0080                 1.7335
 IR Inten    --      6.0076                65.8224                34.7237

                     79                     80                     81
                      A                      A                      A
 Frequencies --   1417.4448              1443.0994              1448.7265
 Red. masses --      1.2542                 1.5967                 1.2715
 Frc consts  --      1.4847                 1.9591                 1.5724
 IR Inten    --      8.4953                23.1702                58.1302

                     82                     83                     84
                      A                      A                      A
 Frequencies --   1500.8809              1501.7509              1510.5406
 Red. masses --      1.9188                 1.4369                 1.2735
 Frc consts  --      2.5467                 1.9093                 1.7120
 IR Inten    --     12.0600                 9.9006                14.7058

                     85                     86                     87
                      A                      A                      A
 Frequencies --   1520.2389              1529.4190              1534.6703
 Red. masses --      1.0941                 1.1728                 1.0944
 Frc consts  --      1.4898                 1.6163                 1.5187
 IR Inten    --      0.6158                17.6047                 7.7120

                     88                     89                     90
                      A                      A                      A
 Frequencies --   1537.4381              1548.2596              1550.3580
 Red. masses --      1.0908                 2.0989                 1.1185
 Frc consts  --      1.5191                 2.9644                 1.5839
 IR Inten    --      8.9544                11.2393                 3.3921

                     91                     92                     93
                      A                      A                      A
 Frequencies --   1641.8073              1665.4044              1776.0991
 Red. masses --      5.3309                 5.4998                 7.5885
 Frc consts  --      8.4664                 8.9874                14.1039
 IR Inten    --      3.2246                 6.8431               401.7554

                     94                     95                     96
                      A                      A                      A
 Frequencies --   2982.7732              3004.2359              3037.7430
 Red. masses --      1.0725                 1.0720                 1.0657
 Frc consts  --      5.6221                 5.7005                 5.7939
 IR Inten    --     54.4884                81.9229                24.1245

                     97                     98                     99
                      A                      A                      A
 Frequencies --   3055.1447              3060.9765              3074.6918
 Red. masses --      1.0810                 1.0855                 1.0741
 Frc consts  --      5.9449                 5.9924                 5.9824
 IR Inten    --     12.8634                35.4442                54.2844

                    100                    101                    102
                      A                      A                      A
 Frequencies --   3084.0584              3090.8473              3091.7630
 Red. masses --      1.0595                 1.0953                 1.0644
 Frc consts  --      5.9373                 6.1653                 5.9945
 IR Inten    --     11.0507                21.3133                27.8268

                    103                    104                    105
                      A                      A                      A
 Frequencies --   3097.9482              3120.0071              3125.1580
 Red. masses --      1.0910                 1.0986                 1.1015
 Frc consts  --      6.1693                 6.3010                 6.3386
 IR Inten    --     52.7829                16.4303                 9.2914

                    106                    107                    108
                      A                      A                      A
 Frequencies --   3139.4390              3178.4912              3189.5054
 Red. masses --      1.1065                 1.0872                 1.0864
 Frc consts  --      6.4254                 6.4716                 6.5117
 IR Inten    --     49.6465                 7.2441                 0.2146

                    109                    110                    111
                      A                      A                      A
 Frequencies --   3193.9529              3198.7973              3207.7568
 Red. masses --      1.0917                 1.0907                 1.0929
 Frc consts  --      6.5617                 6.5752                 6.6256
 IR Inten    --      7.9382                13.1667                27.7109

                    112                    113                    114
                      A                      A                      A
 Frequencies --   3216.0724              3581.5365              3742.9326
 Red. masses --      1.0977                 1.0752                 1.0653
 Frc consts  --      6.6894                 8.1258                 8.7934
 IR Inten    --     14.3755                13.2016                81.8411

 - Thermochemistry -
 -------------------
 Temperature   298.150 Kelvin.  Pressure   1.00000 Atm.
 Atom     1 has atomic number  6 and mass  12.00000

 Molecular mass:   263.15214 amu.
 Principal axes and moments of inertia in atomic units:
                           1         2         3
     Eigenvalues --  3353.678886648.161848663.59978
           X            0.99980  -0.01868   0.00666
           Y            0.01873   0.99979  -0.00834
           Z           -0.00650   0.00847   0.99994
 This molecule is an asymmetric top.
 Rotational symmetry number  1.
 Warning -- assumption of classical behavior for rotation
           may cause significant error
 Rotational temperatures (Kelvin)      0.02583     0.01303     0.01000
 Rotational constants (GHZ):           0.53814     0.27146     0.20831
 Zero-point vibrational energy     910440.4 (Joules/Mol)
                                  217.60048 (Kcal/Mol)
 Warning -- explicit consideration of  26 degrees of freedom as
           vibrations may cause significant error
 Vibrational temperatures:     28.78    45.25    60.34    71.18    85.19
          (Kelvin)            102.39   125.36   144.47   222.83   235.01
                              275.05   304.68   345.23   384.75   413.91
                              461.26   508.00   528.73   561.37   598.51
                              631.10   650.60   728.15   800.48   842.46
                              875.14   897.12   918.30   971.06   990.67
                             1034.40  1064.35  1085.63  1111.61  1131.81
                             1226.40  1243.26  1262.01  1295.39  1316.90
                             1337.19  1344.47  1390.14  1399.85  1413.79
                             1426.45  1433.68  1439.08  1470.90  1510.76
                             1521.63  1528.11  1567.39  1594.60  1599.33
                             1622.71  1624.41  1663.97  1720.23  1743.17
                             1749.51  1756.08  1761.22  1763.69  1813.05
                             1832.93  1860.85  1897.49  1907.08  1917.49
                             1954.72  1960.85  1964.08  1972.68  1981.48
                             2017.55  2018.82  2026.71  2039.39  2076.30
                             2084.39  2159.43  2160.68  2173.33  2187.28
                             2200.49  2208.05  2212.03  2227.60  2230.62
                             2362.19  2396.15  2555.41  4291.55  4322.43
                             4370.63  4395.67  4404.06  4423.80  4437.27
                             4447.04  4448.36  4457.26  4488.99  4496.41
                             4516.95  4573.14  4588.99  4595.39  4602.36
                             4615.25  4627.21  5153.03  5385.25

 Zero-point correction=                           0.346768 (Hartree/Particle)
 Thermal correction to Energy=                    0.365073
 Thermal correction to Enthalpy=                  0.366018
 Thermal correction to Gibbs Free Energy=         0.297853
 Sum of electronic and zero-point Energies=           -864.381030
 Sum of electronic and thermal Energies=              -864.362725
 Sum of electronic and thermal Enthalpies=            -864.361781
 Sum of electronic and thermal Free Energies=         -864.429945

                     E (Thermal)             CV                S
                      KCal/Mol        Cal/Mol-Kelvin    Cal/Mol-Kelvin
 Total                  229.087             69.347            143.465
 Electronic               0.000              0.000              0.000
 Translational            0.889              2.981             42.602
 Rotational               0.889              2.981             33.623
 Vibrational            227.310             63.385             67.239
 Vibration     1          0.593              1.986              6.634
 Vibration     2          0.594              1.983              5.736
 Vibration     3          0.595              1.980              5.165
 Vibration     4          0.595              1.978              4.838
 Vibration     5          0.597              1.974              4.483
 Vibration     6          0.598              1.968              4.121
 Vibration     7          0.601              1.958              3.724
 Vibration     8          0.604              1.949              3.446
 Vibration     9          0.620              1.897              2.611
 Vibration    10          0.623              1.887              2.511
 Vibration    11          0.634              1.852              2.216
 Vibration    12          0.643              1.823              2.028
 Vibration    13          0.657              1.779              1.803
 Vibration    14          0.673              1.733              1.613
 Vibration    15          0.685              1.697              1.488
 Vibration    16          0.706              1.634              1.307
 Vibration    17          0.729              1.569              1.152
 Vibration    18          0.740              1.539              1.090
 Vibration    19          0.758              1.491              0.999
 Vibration    20          0.779              1.436              0.906
 Vibration    21          0.799              1.386              0.831
 Vibration    22          0.811              1.356              0.789
 Vibration    23          0.861              1.237              0.643
 Vibration    24          0.912              1.126              0.531
 Vibration    25          0.943              1.063              0.475
 Vibration    26          0.967              1.014              0.436

 Optimization completed.
    -- Stationary point found.
 Normal termination of Gaussian 16 at Mon Dec 14 19:34:32 2020.

 ----------------------------------------------------------------------
 # B3LYP/6-311++G(d,p) empiricaldispersion=gd3bj scf=xqc pop=npa geom=c
 heck
 ----------------------------------------------------------------------

 ---------------------------------------
 CID_112055517_JID_9814_Energie_neutraal
 ---------------------------------------
 Structure from the checkpoint file:  "JID_9814.chk"
 Charge =  0 Multiplicity = 1

 SCF Done:  E(RB3LYP) =  -864.981852304     A.U. after   16 cycles
 Normal termination of Gaussian 16 at Mon Dec 14 19:46:33 2020.

 ----------------------------------------------------------------------
 # B3LYP/6-311++G(d,p) empiricaldispersion=gd3bj scf=xqc pop=npa geom=c
 heck
 ----------------------------------------------------------------------

 -------------------------------------
 CID_112055517_JID_9814_Energie_kation
 -------------------------------------
 Structure from the checkpoint file:  "JID_9814.chk"
 Charge =  1 Multiplicity = 2

 SCF Done:  E(UB3LYP) =  -864.667620162     A.U. after   33 cycles
 SCF Done:  E(UB3LYP) =  -864.667621510     a.u. after    3 cycles
 Normal termination of Gaussian 16 at Mon Dec 14 21:26:19 2020.
 Gaussian 16:  ES64L-G16RevA.03 25-Dec-2016

 ----------------------------------------------------------------------
 # B3LYP/6-311++G(d,p) empiricaldispersion=gd3bj scf=xqc pop=npa geom=c
 heck
 ----------------------------------------------------------------------

 ------------------------------------
 CID_112055517_JID_9814_Energie_anion
 ------------------------------------
 Structure from the checkpoint file:  "JID_9814.chk"
 Charge = -1 Multiplicity = 2

                         Standard orientation:
 ---------------------------------------------------------------------
 Center     Atomic      Atomic             Coordinates (Angstroms)
 Number     Number       Type             X           Y           Z
 ---------------------------------------------------------------------
      1          6           0        1.821070   -2.171335    0.803380
      2          6           0        2.727047   -1.007372    1.253273
      3          6           0        3.183974   -0.352254   -0.089195
      4          8           0        2.553589   -1.086011   -1.140089
      5          6           0        2.266729   -2.393207   -0.642983
      6          6           0        2.919614    1.154488   -0.134114
      7          8           0        3.798607    1.904804    0.277149
      8          7           0        1.728176    1.652331   -0.588100
      9          6           0        0.481142    0.964688   -0.891168
     10          6           0       -0.436756    0.799092    0.340747
     11          6           0       -1.016457    2.151284    0.827174
     12          6           0       -2.117443    2.766553   -0.046284
     13          8           0       -3.398322    2.191685    0.162026
     14          6           0       -1.511799   -0.250215    0.120986
     15          6           0       -2.074438   -0.498181   -1.140332
     16          6           0       -3.087047   -1.448189   -1.299118
     17          6           0       -3.551515   -2.170829   -0.201030
     18          6           0       -2.995074   -1.939132    1.058621
     19          6           0       -1.987494   -0.989610    1.213755
     20          1           0        1.938574   -3.063838    1.424852
     21          1           0        0.766248   -1.881512    0.824439
     22          1           0        3.599728   -1.367231    1.804468
     23          1           0        2.206471   -0.297670    1.901584
     24          1           0        4.272172   -0.438008   -0.188263
     25          1           0        3.169246   -3.023292   -0.688974
     26          1           0        1.499846   -2.830288   -1.287627
     27          1           0        1.697136    2.661402   -0.500102
     28          1           0       -0.024819    1.541112   -1.673152
     29          1           0        0.728607   -0.007469   -1.309696
     30          1           0        0.205259    0.432703    1.150821
     31          1           0       -1.430962    2.028451    1.834397
     32          1           0       -0.183975    2.862837    0.917327
     33          1           0       -2.228467    3.823975    0.213689
     34          1           0       -1.833654    2.732159   -1.111929
     35          1           0       -3.356172    1.268081   -0.130812
     36          1           0       -1.725769    0.051590   -2.008981
     37          1           0       -3.509440   -1.621879   -2.284743
     38          1           0       -4.338341   -2.908975   -0.324779
     39          1           0       -3.347291   -2.497723    1.921160
     40          1           0       -1.561947   -0.809240    2.198074
 ---------------------------------------------------------------------

 SCF Done:  E(UB3LYP) =  -864.974295343     A.U. after   33 cycles
 SCF Done:  E(UB3LYP) =  -864.974295343     a.u. after    1 cycles

 The electronic state is 2-A.
 Alpha  occ. eigenvalues --  -19.04503 -19.02798 -19.00169 -14.25225 -10.18797
 Alpha  occ. eigenvalues --  -10.14557 -10.13157 -10.12961 -10.11878 -10.09839
 Alpha  occ. eigenvalues --  -10.09576 -10.09206 -10.08899 -10.08750 -10.08740
 Alpha  occ. eigenvalues --  -10.08564 -10.08378 -10.08372 -10.08354  -0.96807
 Alpha  occ. eigenvalues --   -0.94947  -0.93127  -0.83841  -0.77557  -0.72090
 Alpha  occ. eigenvalues --   -0.70112  -0.67063  -0.66136  -0.65855  -0.63023
 Alpha  occ. eigenvalues --   -0.57489  -0.54715  -0.52623  -0.52069  -0.51690
 Alpha  occ. eigenvalues --   -0.49505  -0.47819  -0.43588  -0.42520  -0.42313
 Alpha  occ. eigenvalues --   -0.41290  -0.40413  -0.38481  -0.37443  -0.37212
 Alpha  occ. eigenvalues --   -0.36968  -0.36046  -0.34549  -0.33911  -0.33567
 Alpha  occ. eigenvalues --   -0.33453  -0.32965  -0.32135  -0.31204  -0.29929
 Alpha  occ. eigenvalues --   -0.28682  -0.27844  -0.27384  -0.27100  -0.26592
 Alpha  occ. eigenvalues --   -0.25243  -0.25197  -0.24731  -0.24211  -0.23689
 Alpha  occ. eigenvalues --   -0.18908  -0.18672  -0.17188  -0.17119  -0.16847
 Alpha  occ. eigenvalues --   -0.15932   0.03774
 Alpha virt. eigenvalues --    0.05756   0.06001   0.06396   0.06825   0.06939
 Alpha virt. eigenvalues --    0.07958   0.08128   0.08415   0.08780   0.09185
 Alpha virt. eigenvalues --    0.09552   0.10275   0.10655   0.11184   0.11339

  Beta  occ. eigenvalues --  -19.04499 -19.02792 -19.00167 -14.25214 -10.18797
  Beta  occ. eigenvalues --  -10.14552 -10.13139 -10.12945 -10.11868 -10.09835
  Beta  occ. eigenvalues --  -10.09534 -10.09189 -10.08899 -10.08750 -10.08697
  Beta  occ. eigenvalues --  -10.08549 -10.08348 -10.08322 -10.08304  -0.96797
  Beta  occ. eigenvalues --   -0.94940  -0.93114  -0.83821  -0.77476  -0.72035
  Beta  occ. eigenvalues --   -0.70078  -0.67036  -0.66069  -0.65764  -0.62985
  Beta  occ. eigenvalues --   -0.57443  -0.54679  -0.52554  -0.51988  -0.51633
  Beta  occ. eigenvalues --   -0.49459  -0.47778  -0.43540  -0.42476  -0.42287
  Beta  occ. eigenvalues --   -0.41247  -0.40382  -0.38421  -0.37412  -0.37175
  Beta  occ. eigenvalues --   -0.36914  -0.36008  -0.34518  -0.33879  -0.33543
  Beta  occ. eigenvalues --   -0.33417  -0.32935  -0.32109  -0.31177  -0.29882
  Beta  occ. eigenvalues --   -0.28574  -0.27785  -0.27346  -0.27059  -0.26558
  Beta  occ. eigenvalues --   -0.25207  -0.25159  -0.24698  -0.24186  -0.23646
  Beta  occ. eigenvalues --   -0.18872  -0.18650  -0.17150  -0.17008  -0.16806
  Beta  occ. eigenvalues --   -0.15699
  Beta virt. eigenvalues --    0.05844   0.06482   0.06606   0.06905   0.06967
  Beta virt. eigenvalues --    0.07410   0.08458   0.08581   0.08640   0.09109
  Beta virt. eigenvalues --    0.09395   0.09669   0.10643   0.10939   0.11344

 Mulliken charges and spin densities:
               1          2
     1  C   -0.487311   0.185686
     2  C    0.387037  -0.642833
     3  C   -0.180341   0.220342
     4  O   -0.067789  -0.028186
     5  C    0.228391  -0.571332
     6  C   -0.017837  -0.091781
     7  O   -0.334169   0.018375
     8  N   -0.179036   0.138245
     9  C   -0.141934  -0.920820
    10  C    2.797751  -1.954360
    11  C   -0.257915  -0.107106
    12  C    0.183545  -0.628217
    13  O   -0.280967   0.005798
    14  C   -0.826233   0.998995
    15  C   -1.923634   1.843032
    16  C    0.253657  -0.765449
    17  C    0.825002  -1.165666
    18  C   -0.080014  -0.255597
    19  C   -0.651759   0.521882
    20  H   -0.785845   0.982696
    21  H    1.087273  -1.021992
    22  H   -0.011771   0.203389
    23  H   -0.143145   0.317802
    24  H    0.102722   0.140623
    25  H   -0.030953   0.162462
    26  H   -0.112526   0.290306
    27  H    0.098943   0.208377
    28  H   -0.044357   0.193438
    29  H    0.388211  -0.075737
    30  H    0.146524   0.000994
    31  H    0.072143   0.114269
    32  H    0.112932   0.019777
    33  H   -0.043991   0.230318
    34  H    0.043169   0.090329
    35  H    0.343962  -0.025535
    36  H   -0.067870   0.253912
    37  H   -0.353973   0.530100
    38  H   -0.220708   0.380117
    39  H   -0.505901   0.702878
    40  H   -0.321287   0.500470
 Sum of Mulliken charges =  -1.00000   1.00000

 Dipole moment (field-independent basis, Debye):
    X=              0.9169    Y=              2.3643    Z=             -2.0820  Tot=              3.2811
 Quadrupole moment (field-independent basis, Debye-Ang):
   XX=           -200.9297   YY=           -174.1593   ZZ=           -154.1747
   XY=             -6.6022   XZ=             -2.2352   YZ=              3.7873

 Summary of Natural Population Analysis:

                                       Natural Population
                Natural  -----------------------------------------------
    Atom  No    Charge         Core      Valence    Rydberg      Total
 -----------------------------------------------------------------------
      C    1   -0.20941      0.99963     2.20136    0.00842     3.20941
      C    2   -0.19893      0.99962     2.19091    0.00840     3.19893
      C    3    0.02857      0.99953     1.95792    0.01399     2.97143
      O    4   -0.30326      0.99989     3.29509    0.00829     4.30326
      C    5   -0.00999      0.99960     1.99827    0.01213     3.00999
      C    6    0.33866      0.99963     1.63961    0.02210     2.66134
      O    7   -0.32628      0.99988     3.32067    0.00573     4.32628
      N    8   -0.31281      0.99967     2.80340    0.00975     3.81281
      C    9   -0.09582      0.99958     2.08417    0.01208     3.09582
      C   10   -0.12564      0.99955     2.11459    0.01151     3.12564
      C   11   -0.19914      0.99960     2.19077    0.00878     3.19914
      C   12   -0.01172      0.99959     2.00063    0.01149     3.01172
      O   13   -0.37184      0.99990     3.36533    0.00661     4.37184
      C   14   -0.01686      0.99950     2.00399    0.01337     3.01686
      C   15   -0.12342      0.99951     2.11355    0.01036     3.12342
      C   16   -0.09249      0.99956     2.08248    0.01045     3.09249
      C   17   -0.09643      0.99956     2.08697    0.00990     3.09643
      C   18   -0.09599      0.99956     2.08617    0.01026     3.09599
      C   19   -0.09262      0.99950     2.08240    0.01072     3.09262
      H   20    0.10702      0.00000     0.39094    0.00204     0.39298
      H   21    0.10432      0.00000     0.39311    0.00257     0.39568
      H   22    0.10433      0.00000     0.39451    0.00116     0.39567
      H   23    0.10476      0.00000     0.39387    0.00137     0.39524
      H   24    0.09654      0.00000     0.40210    0.00136     0.40346
      H   25    0.07847      0.00000     0.42030    0.00123     0.42153
      H   26    0.09479      0.00000     0.40405    0.00116     0.40521
      H   27    0.19268      0.00000     0.30476    0.00256     0.30732
      H   28    0.09499      0.00000     0.40368    0.00132     0.40501
      H   29    0.11867      0.00000     0.37859    0.00274     0.38133
      H   30    0.10505      0.00000     0.39207    0.00288     0.39495
      H   31    0.10494      0.00000     0.39399    0.00107     0.39506
      H   32    0.09922      0.00000     0.39945    0.00133     0.40078
      H   33    0.08689      0.00000     0.41194    0.00117     0.41311
      H   34    0.07377      0.00000     0.42484    0.00139     0.42623
      H   35    0.23663      0.00000     0.26008    0.00329     0.26337
      H   36    0.10295      0.00000     0.39542    0.00163     0.39705
      H   37    0.10188      0.00000     0.39705    0.00106     0.39812
      H   38    0.10170      0.00000     0.39724    0.00106     0.39830
      H   39    0.10325      0.00000     0.39552    0.00123     0.39675
      H   40    0.10258      0.00000     0.39604    0.00138     0.39742
 =======================================================================
   * Total *   -0.00000     18.99284    51.76783    0.23932    71.00000

 Normal termination of Gaussian 16 at Mon Dec 14 22:00:12 2020.
