 Gaussian 16, Revision A.03,

 -----------------------------------------------------------
 # opt freq B3LYP/6-31G(d) empiricaldispersion=gd3bj scf=xqc
 -----------------------------------------------------------

 --------------------------------
 CID_126820138_JID_10926_neutraal
 --------------------------------
 Symbolic Z-matrix:
 Charge =  0 Multiplicity = 1

 SCF Done:  E(RB3LYP) =  -896.559537832     A.U. after   15 cycles
 SCF Done:  E(RB3LYP) =  -896.562913873     A.U. after   14 cycles
 SCF Done:  E(RB3LYP) =  -896.559271983     A.U. after   14 cycles
 SCF Done:  E(RB3LYP) =  -896.564769271     A.U. after   13 cycles
 SCF Done:  E(RB3LYP) =  -896.566351194     A.U. after   13 cycles
 SCF Done:  E(RB3LYP) =  -896.568164768     A.U. after   13 cycles
 SCF Done:  E(RB3LYP) =  -896.569472726     A.U. after   14 cycles
 SCF Done:  E(RB3LYP) =  -896.572297392     A.U. after   16 cycles
 SCF Done:  E(RB3LYP) =  -896.573213251     A.U. after   16 cycles
 SCF Done:  E(RB3LYP) =  -896.573055831     A.U. after   13 cycles
 SCF Done:  E(RB3LYP) =  -896.593090652     A.U. after   11 cycles
 SCF Done:  E(RB3LYP) =  -896.593092232     A.U. after   10 cycles
 SCF Done:  E(RB3LYP) =  -896.593092566     A.U. after    8 cycles
 SCF Done:  E(RB3LYP) =  -896.593092630     A.U. after    8 cycles
 SCF Done:  E(RB3LYP) =  -896.593092637     A.U. after    7 cycles
 Optimization completed.
    -- Stationary point found.
 Normal termination of Gaussian 16 at Sat Dec 12 17:20:36 2020.

 --------------------------------------------------------------------
 #N Geom=AllCheck Guess=TCheck SCRF=Check GenChk RB3LYP/6-31G(d) Freq
 --------------------------------------------------------------------

 Structure from the checkpoint file:  "JID_10926.chk"
 --------------------------------
 CID_126820138_JID_10926_neutraal
 --------------------------------
 Charge =  0 Multiplicity = 1

 SCF Done:  E(RB3LYP) =  -896.593092637     A.U. after    1 cycles

  Exact polarizability: 225.534  23.273 199.555   6.293   5.342 108.944
 Approx polarizability: 313.419  56.174 328.406  14.866  14.934 167.289

                      1                      2                      3
                      A                      A                      A
 Frequencies --     17.8945                41.4494                51.9891
 Red. masses --      4.2681                 6.0001                 7.7782
 Frc consts  --      0.0008                 0.0061                 0.0124
 IR Inten    --      0.3112                 0.8543                 0.0606

                      4                      5                      6
                      A                      A                      A
 Frequencies --     71.2746                83.3735               108.1788
 Red. masses --      5.0608                 4.6880                 8.5948
 Frc consts  --      0.0151                 0.0192                 0.0593
 IR Inten    --      2.9754                 0.9268                 4.8336

                      7                      8                      9
                      A                      A                      A
 Frequencies --    136.7855               145.8906               157.5280
 Red. masses --      5.1154                 2.7481                 5.2676
 Frc consts  --      0.0564                 0.0345                 0.0770
 IR Inten    --      2.3024                 3.7849                 0.0460

                     10                     11                     12
                      A                      A                      A
 Frequencies --    183.1999               223.2534               228.4889
 Red. masses --      3.9041                 3.0435                 3.5088
 Frc consts  --      0.0772                 0.0894                 0.1079
 IR Inten    --      2.6596                 1.7723                 4.7292

                     13                     14                     15
                      A                      A                      A
 Frequencies --    273.0305               299.9683               318.2653
 Red. masses --      4.1476                 4.5380                 3.8454
 Frc consts  --      0.1822                 0.2406                 0.2295
 IR Inten    --      0.8166                12.4471                 0.2042

                     16                     17                     18
                      A                      A                      A
 Frequencies --    362.9751               369.9769               386.3016
 Red. masses --      2.9209                 2.9720                 3.3830
 Frc consts  --      0.2267                 0.2397                 0.2974
 IR Inten    --      6.8827                 3.5641                 0.3429

                     19                     20                     21
                      A                      A                      A
 Frequencies --    419.4426               428.1127               432.6104
 Red. masses --      2.2664                 3.9445                 4.6614
 Frc consts  --      0.2349                 0.4259                 0.5140
 IR Inten    --     11.5527                 3.2527                 1.5262

                     22                     23                     24
                      A                      A                      A
 Frequencies --    495.4370               499.8047               515.0918
 Red. masses --      2.5667                 4.4414                 4.0898
 Frc consts  --      0.3712                 0.6537                 0.6393
 IR Inten    --      1.8731                 0.3283                 1.2116

                     25                     26                     27
                      A                      A                      A
 Frequencies --    540.8311               552.7939               582.0634
 Red. masses --      3.3016                 7.5077                 3.7396
 Frc consts  --      0.5690                 1.3517                 0.7465
 IR Inten    --     12.3601                 0.1964                 5.5456

                     28                     29                     30
                      A                      A                      A
 Frequencies --    606.0315               647.7933               656.6997
 Red. masses --      3.9776                 3.2845                 6.5010
 Frc consts  --      0.8607                 0.8121                 1.6518
 IR Inten    --     16.5352                 3.9002                 3.6173

                     31                     32                     33
                      A                      A                      A
 Frequencies --    697.1973               730.7913               759.4879
 Red. masses --      3.5489                 7.0148                 5.0480
 Frc consts  --      1.0164                 2.2073                 1.7156
 IR Inten    --      4.1906                 7.4047                 1.6981

                     34                     35                     36
                      A                      A                      A
 Frequencies --    780.4662               789.7693               797.2525
 Red. masses --      1.6441                 2.5640                 2.7889
 Frc consts  --      0.5900                 0.9423                 1.0444
 IR Inten    --      3.8342                14.3907                 8.1445

                     37                     38                     39
                      A                      A                      A
 Frequencies --    847.0236               849.6034               859.1865
 Red. masses --      2.7017                 1.5286                 1.8481
 Frc consts  --      1.1420                 0.6501                 0.8038
 IR Inten    --     24.2215                24.1509                37.3935

                     40                     41                     42
                      A                      A                      A
 Frequencies --    865.2137               881.7127               921.0668
 Red. masses --      2.3197                 2.4811                 2.2197
 Frc consts  --      1.0231                 1.1364                 1.1095
 IR Inten    --     24.2613                 9.3491                20.6916

                     43                     44                     45
                      A                      A                      A
 Frequencies --    965.8290               982.8770               983.4762
 Red. masses --      1.3720                 2.6843                 1.4987
 Frc consts  --      0.7541                 1.5279                 0.8541
 IR Inten    --     24.3369                45.9771                 5.9646

                     46                     47                     48
                      A                      A                      A
 Frequencies --    987.0052              1003.7327              1023.0749
 Red. masses --      1.2959                 1.3478                 2.2092
 Frc consts  --      0.7438                 0.8001                 1.3624
 IR Inten    --      1.5417                 4.0647                31.5267

                     49                     50                     51
                      A                      A                      A
 Frequencies --   1031.3964              1040.9644              1052.2393
 Red. masses --      1.2372                 2.4910                 1.9331
 Frc consts  --      0.7754                 1.5903                 1.2610
 IR Inten    --     17.3028                12.8583                 0.1314

                     52                     53                     54
                      A                      A                      A
 Frequencies --   1059.5925              1095.4800              1108.5553
 Red. masses --      2.5572                 1.4838                 1.8513
 Frc consts  --      1.6916                 1.0491                 1.3404
 IR Inten    --     95.9618                 0.2214                22.9864

                     55                     56                     57
                      A                      A                      A
 Frequencies --   1112.8269              1163.1462              1180.7706
 Red. masses --      2.2237                 1.2541                 2.7791
 Frc consts  --      1.6225                 0.9997                 2.2829
 IR Inten    --      4.3351                22.0536                 2.4064

                     58                     59                     60
                      A                      A                      A
 Frequencies --   1199.6921              1233.2225              1245.7831
 Red. masses --      1.4471                 1.4327                 3.6671
 Frc consts  --      1.2271                 1.2838                 3.3532
 IR Inten    --      3.2929                 0.1859                 9.2135

                     61                     62                     63
                      A                      A                      A
 Frequencies --   1266.0578              1304.0118              1310.2772
 Red. masses --      1.3294                 1.4424                 2.3695
 Frc consts  --      1.2555                 1.4451                 2.3968
 IR Inten    --     21.9554                 1.4337               191.2555

                     64                     65                     66
                      A                      A                      A
 Frequencies --   1319.8405              1321.7875              1343.3966
 Red. masses --      3.4757                 1.3166                 1.4571
 Frc consts  --      3.5673                 1.3553                 1.5493
 IR Inten    --      7.5330                 2.7271                63.8313

                     67                     68                     69
                      A                      A                      A
 Frequencies --   1355.4582              1367.0142              1369.7011
 Red. masses --      1.4460                 1.4058                 1.3785
 Frc consts  --      1.5652                 1.5478                 1.5237
 IR Inten    --      2.6667                23.7354                19.4330

                     70                     71                     72
                      A                      A                      A
 Frequencies --   1387.7873              1397.5570              1400.4227
 Red. masses --      1.3694                 1.6829                 1.4645
 Frc consts  --      1.5539                 1.9367                 1.6923
 IR Inten    --      2.2629                18.9180                39.7637

                     73                     74                     75
                      A                      A                      A
 Frequencies --   1412.4692              1422.8186              1426.1093
 Red. masses --      1.2661                 2.2414                 2.2242
 Frc consts  --      1.4882                 2.6734                 2.6652
 IR Inten    --      3.2145               139.6584                52.8535

                     76                     77                     78
                      A                      A                      A
 Frequencies --   1442.8903              1480.1968              1510.2088
 Red. masses --      1.9751                 1.5732                 1.0925
 Frc consts  --      2.4227                 2.0308                 1.4681
 IR Inten    --     28.9011               104.7079                 3.1779

                     79                     80                     81
                      A                      A                      A
 Frequencies --   1525.0241              1531.9727              1537.1925
 Red. masses --      1.1367                 1.9478                 1.0833
 Frc consts  --      1.5575                 2.6933                 1.5083
 IR Inten    --     25.4168               139.0270                 5.3286

                     82                     83                     84
                      A                      A                      A
 Frequencies --   1545.0910              1578.5638              1602.9659
 Red. masses --      1.2777                 1.4672                 6.3457
 Frc consts  --      1.7971                 2.1541                 9.6068
 IR Inten    --     67.0100                19.7977                41.0286

                     85                     86                     87
                      A                      A                      A
 Frequencies --   1660.2162              1703.0053              1755.6119
 Red. masses --      5.8719                 4.4405                 4.6866
 Frc consts  --      9.5359                 7.5878                 8.5106
 IR Inten    --    150.2525                84.7152               283.6866

                     88                     89                     90
                      A                      A                      A
 Frequencies --   2352.2778              3041.0427              3049.4488
 Red. masses --     12.6745                 1.0645                 1.0628
 Frc consts  --     41.3198                 5.8003                 5.8231
 IR Inten    --     47.0924                 7.7673                60.8986

                     91                     92                     93
                      A                      A                      A
 Frequencies --   3074.9235              3078.2279              3090.5228
 Red. masses --      1.0784                 1.0710                 1.0938
 Frc consts  --      6.0077                 5.9793                 6.1556
 IR Inten    --      4.7070                33.8151                60.2005

                     94                     95                     96
                      A                      A                      A
 Frequencies --   3091.9739              3095.8666              3141.5079
 Red. masses --      1.0895                 1.0980                 1.0858
 Frc consts  --      6.1368                 6.2002                 6.3137
 IR Inten    --     39.9302                 5.1055                19.3188

                     97                     98                     99
                      A                      A                      A
 Frequencies --   3149.0961              3156.7872              3166.1893
 Red. masses --      1.0939                 1.0926                 1.0583
 Frc consts  --      6.3916                 6.4150                 6.2510
 IR Inten    --     12.4670                21.7594                 8.0068

                    100                    101                    102
                      A                      A                      A
 Frequencies --   3194.2355              3196.7082              3219.8490
 Red. masses --      1.0945                 1.0927                 1.0901
 Frc consts  --      6.5796                 6.5787                 6.6585
 IR Inten    --     14.9607                 2.7847                 2.0778

                    103                    104                    105
                      A                      A                      A
 Frequencies --   3239.4407              3246.5689              3417.4060
 Red. masses --      1.0956                 1.1161                 1.0783
 Frc consts  --      6.7737                 6.9308                 7.4200
 IR Inten    --      2.4101                17.7690               541.7187

 - Thermochemistry -
 -------------------
 Temperature   298.150 Kelvin.  Pressure   1.00000 Atm.
 Atom     1 has atomic number  6 and mass  12.00000

 Molecular mass:   271.13208 amu.
 Principal axes and moments of inertia in atomic units:
                           1         2         3
     Eigenvalues --  3744.597077327.35721**********
           X            0.99990  -0.01418   0.00263
           Y            0.01419   0.99990  -0.00247
           Z           -0.00260   0.00251   0.99999
 This molecule is an asymmetric top.
 Rotational symmetry number  1.
 Warning -- assumption of classical behavior for rotation
           may cause significant error
 Rotational temperatures (Kelvin)      0.02313     0.01182     0.00848
 Rotational constants (GHZ):           0.48196     0.24630     0.17676
 Zero-point vibrational energy     803679.3 (Joules/Mol)
                                  192.08397 (Kcal/Mol)
 Warning -- explicit consideration of  28 degrees of freedom as
           vibrations may cause significant error
 Vibrational temperatures:     25.75    59.64    74.80   102.55   119.96
          (Kelvin)            155.65   196.80   209.90   226.65   263.58
                              321.21   328.74   392.83   431.59   457.91
                              522.24   532.31   555.80   603.48   615.96
                              622.43   712.82   719.11   741.10   778.14
                              795.35   837.46   871.94   932.03   944.84
                             1003.11  1051.45  1092.73  1122.92  1136.30
                             1147.07  1218.68  1222.39  1236.18  1244.85
                             1268.59  1325.21  1389.61  1414.14  1415.00
                             1420.08  1444.15  1471.98  1483.95  1497.72
                             1513.94  1524.52  1576.15  1594.96  1601.11
                             1673.51  1698.87  1726.09  1774.33  1792.40
                             1821.57  1876.18  1885.20  1898.96  1901.76
                             1932.85  1950.20  1966.83  1970.69  1996.72
                             2010.77  2014.90  2032.23  2047.12  2051.85
                             2076.00  2129.67  2172.85  2194.17  2204.17
                             2211.68  2223.04  2271.20  2306.31  2388.68
                             2450.24  2525.93  3384.40  4375.38  4387.48
                             4424.13  4428.88  4446.57  4448.66  4454.26
                             4519.93  4530.85  4541.91  4555.44  4595.79
                             4599.35  4632.64  4660.83  4671.09  4916.89

 Zero-point correction=                           0.306105 (Hartree/Particle)
 Thermal correction to Energy=                    0.323761
 Thermal correction to Enthalpy=                  0.324705
 Thermal correction to Gibbs Free Energy=         0.259166
 Sum of electronic and zero-point Energies=           -896.286987
 Sum of electronic and thermal Energies=              -896.269332
 Sum of electronic and thermal Enthalpies=            -896.268388
 Sum of electronic and thermal Free Energies=         -896.333927

                     E (Thermal)             CV                S
                      KCal/Mol        Cal/Mol-Kelvin    Cal/Mol-Kelvin
 Total                  203.163             68.407            137.939
 Electronic               0.000              0.000              0.000
 Translational            0.889              2.981             42.691
 Rotational               0.889              2.981             33.993
 Vibrational            201.385             62.446             61.255
 Vibration     1          0.593              1.986              6.855
 Vibration     2          0.594              1.981              5.189
 Vibration     3          0.596              1.977              4.740
 Vibration     4          0.598              1.968              4.118
 Vibration     5          0.600              1.961              3.810
 Vibration     6          0.606              1.943              3.301
 Vibration     7          0.614              1.917              2.848
 Vibration     8          0.617              1.907              2.725
 Vibration     9          0.621              1.894              2.579
 Vibration    10          0.631              1.863              2.296
 Vibration    11          0.649              1.806              1.933
 Vibration    12          0.651              1.798              1.891
 Vibration    13          0.676              1.723              1.577
 Vibration    14          0.693              1.674              1.417
 Vibration    15          0.705              1.639              1.319
 Vibration    16          0.737              1.549              1.109
 Vibration    17          0.742              1.534              1.080
 Vibration    18          0.755              1.499              1.014
 Vibration    19          0.782              1.428              0.894
 Vibration    20          0.790              1.409              0.865
 Vibration    21          0.794              1.399              0.850
 Vibration    22          0.851              1.260              0.670
 Vibration    23          0.855              1.250              0.659
 Vibration    24          0.870              1.217              0.621
 Vibration    25          0.896              1.160              0.563
 Vibration    26          0.908              1.134              0.538
 Vibration    27          0.939              1.070              0.482
 Vibration    28          0.965              1.019              0.439

 Optimization completed.
    -- Stationary point found.
 Normal termination of Gaussian 16 at Sat Dec 12 17:39:33 2020.

 ----------------------------------------------------------------------
 # B3LYP/6-311++G(d,p) empiricaldispersion=gd3bj scf=xqc pop=npa geom=c
 heck
 ----------------------------------------------------------------------

 ----------------------------------------
 CID_126820138_JID_10926_Energie_neutraal
 ----------------------------------------
 Structure from the checkpoint file:  "JID_10926.chk"
 Charge =  0 Multiplicity = 1

 SCF Done:  E(RB3LYP) =  -896.837758581     A.U. after   16 cycles
 Normal termination of Gaussian 16 at Sat Dec 12 17:47:06 2020.

 ----------------------------------------------------------------------
 # B3LYP/6-311++G(d,p) empiricaldispersion=gd3bj scf=xqc pop=npa geom=c
 heck
 ----------------------------------------------------------------------

 --------------------------------------
 CID_126820138_JID_10926_Energie_kation
 --------------------------------------
 Structure from the checkpoint file:  "JID_10926.chk"
 Charge =  1 Multiplicity = 2

 SCF Done:  E(UB3LYP) =  -896.526469896     A.U. after   32 cycles
 Normal termination of Gaussian 16 at Sat Dec 12 18:07:09 2020.
 Gaussian 16:  ES64L-G16RevA.03 25-Dec-2016

 ----------------------------------------------------------------------
 # B3LYP/6-311++G(d,p) empiricaldispersion=gd3bj scf=xqc pop=npa geom=c
 heck
 ----------------------------------------------------------------------

 -------------------------------------
 CID_126820138_JID_10926_Energie_anion
 -------------------------------------
 Structure from the checkpoint file:  "JID_10926.chk"
 Charge = -1 Multiplicity = 2

                         Standard orientation:
 ---------------------------------------------------------------------
 Center     Atomic      Atomic             Coordinates (Angstroms)
 Number     Number       Type             X           Y           Z
 ---------------------------------------------------------------------
      1          6           0       -4.242261    2.219516   -0.755023
      2          6           0       -3.330482    2.522735    0.171714
      3          6           0       -1.943825    1.966272    0.228389
      4          8           0       -0.995665    2.737770    0.396507
      5          7           0       -1.738810    0.631903    0.044809
      6          6           0       -2.660337   -0.501021    0.115234
      7          6           0       -2.496354   -1.384257   -1.132724
      8          6           0       -1.037239   -1.842472   -1.274859
      9          6           0       -0.469219   -2.463496    0.018371
     10          6           0       -0.917021   -1.855678    1.365084
     11          6           0       -2.372176   -1.365000    1.356517
     12          8           0        0.987164   -2.532590   -0.052383
     13          6           0        1.732367   -1.414175   -0.059195
     14          7           0        1.165984   -0.205567   -0.000840
     15          6           0        1.943434    0.882905    0.005371
     16          6           0        3.337825    0.809154   -0.057318
     17          6           0        3.930687   -0.470104   -0.126765
     18          6           0        3.128295   -1.592524   -0.126564
     19          6           0        4.137158    1.992618   -0.050609
     20          7           0        4.799993    2.948585   -0.046725
     21          1           0       -4.061959    1.463187   -1.514289
     22          1           0       -5.191921    2.744534   -0.809014
     23          1           0       -3.505811    3.329029    0.879405
     24          1           0       -0.744763    0.393535    0.062879
     25          1           0       -3.677388   -0.112949    0.173236
     26          1           0       -3.170173   -2.246556   -1.045037
     27          1           0       -2.789399   -0.833087   -2.033219
     28          1           0       -0.433512   -0.981218   -1.563073
     29          1           0       -0.940609   -2.577125   -2.081338
     30          1           0       -0.740206   -3.522794    0.024441
     31          1           0       -0.271863   -1.014682    1.618101
     32          1           0       -0.771269   -2.607069    2.148455
     33          1           0       -2.565169   -0.792199    2.270078
     34          1           0       -3.069417   -2.213321    1.353414
     35          1           0        1.419118    1.834405    0.068617
     36          1           0        5.010647   -0.561336   -0.177393
     37          1           0        3.536423   -2.595082   -0.174708
 ---------------------------------------------------------------------

 SCF Done:  E(UB3LYP) =  -896.846974848     A.U. after   33 cycles
 SCF Done:  E(UB3LYP) =  -896.846974848     a.u. after    1 cycles

 The electronic state is 2-A.
 Alpha  occ. eigenvalues --  -19.04377 -18.96400 -14.21031 -14.19150 -14.17552
 Alpha  occ. eigenvalues --  -10.15160 -10.13835 -10.13499 -10.11383 -10.09819
 Alpha  occ. eigenvalues --  -10.08141 -10.08028 -10.07778 -10.07440 -10.07320
 Alpha  occ. eigenvalues --  -10.07295 -10.06956 -10.06717 -10.06574 -10.06470
 Alpha  occ. eigenvalues --   -0.96749  -0.91441  -0.82681  -0.81347  -0.77606
 Alpha  occ. eigenvalues --   -0.72812  -0.69629  -0.67414  -0.66551  -0.66104
 Alpha  occ. eigenvalues --   -0.63368  -0.55671  -0.53506  -0.53201  -0.52695
 Alpha  occ. eigenvalues --   -0.50580  -0.48111  -0.44753  -0.43498  -0.42208
 Alpha  occ. eigenvalues --   -0.40719  -0.38386  -0.37507  -0.36565  -0.35262
 Alpha  occ. eigenvalues --   -0.34725  -0.34650  -0.34282  -0.33103  -0.31921
 Alpha  occ. eigenvalues --   -0.30851  -0.30381  -0.29563  -0.29455  -0.28458
 Alpha  occ. eigenvalues --   -0.28138  -0.26829  -0.25947  -0.25746  -0.25420
 Alpha  occ. eigenvalues --   -0.24069  -0.23919  -0.23264  -0.21255  -0.21073
 Alpha  occ. eigenvalues --   -0.20542  -0.17826  -0.17649  -0.15810  -0.14263
 Alpha  occ. eigenvalues --   -0.13537  -0.12450   0.03822
 Alpha virt. eigenvalues --    0.05579   0.06060   0.07382   0.08001   0.08198
 Alpha virt. eigenvalues --    0.08238   0.09069   0.09494   0.10021   0.10952
 Alpha virt. eigenvalues --    0.11372   0.11772   0.12150   0.12648   0.12826

  Beta  occ. eigenvalues --  -19.04274 -18.96321 -14.21026 -14.19109 -14.17372
  Beta  occ. eigenvalues --  -10.15088 -10.13837 -10.13099 -10.11379 -10.09824
  Beta  occ. eigenvalues --  -10.08138 -10.08024 -10.07767 -10.07434 -10.07283
  Beta  occ. eigenvalues --  -10.07163 -10.06865 -10.06605 -10.06589 -10.06226
  Beta  occ. eigenvalues --   -0.96468  -0.91291  -0.82450  -0.81299  -0.77331
  Beta  occ. eigenvalues --   -0.72761  -0.69200  -0.67142  -0.66311  -0.66088
  Beta  occ. eigenvalues --   -0.63218  -0.55397  -0.53368  -0.53167  -0.52403
  Beta  occ. eigenvalues --   -0.50221  -0.47920  -0.44654  -0.43343  -0.42103
  Beta  occ. eigenvalues --   -0.40638  -0.38265  -0.37414  -0.36502  -0.35148
  Beta  occ. eigenvalues --   -0.34627  -0.34222  -0.34081  -0.33028  -0.31836
  Beta  occ. eigenvalues --   -0.30480  -0.30212  -0.29408  -0.29318  -0.28308
  Beta  occ. eigenvalues --   -0.27844  -0.26611  -0.25758  -0.25642  -0.24960
  Beta  occ. eigenvalues --   -0.24000  -0.23626  -0.22849  -0.21200  -0.20960
  Beta  occ. eigenvalues --   -0.20068  -0.16988  -0.16737  -0.15698  -0.14132
  Beta  occ. eigenvalues --   -0.13288  -0.11432
  Beta virt. eigenvalues --    0.05784   0.07187   0.07509   0.07999   0.08202
  Beta virt. eigenvalues --    0.08414   0.09038   0.09130   0.09503   0.09922
  Beta virt. eigenvalues --    0.10924   0.11333   0.11714   0.12122   0.12573

 Mulliken charges and spin densities:
               1          2
     1  C   -0.408106   0.125478
     2  C   -0.074848   0.050457
     3  C   -0.070249   0.018741
     4  O   -0.301805   0.029630
     5  N   -0.117375  -0.001004
     6  C    0.118549   0.176802
     7  C   -0.383266  -0.309423
     8  C    0.130644   0.055935
     9  C   -0.762611  -0.033080
    10  C    0.135663  -0.042918
    11  C   -0.584265  -0.207393
    12  O   -0.023793   0.018085
    13  C   -0.227298   0.240033
    14  N    0.118214   0.035319
    15  C   -0.722953  -0.025003
    16  C    1.977776   0.106560
    17  C   -0.124903   0.295450
    18  C   -0.269197  -0.091162
    19  C   -1.810968  -0.036571
    20  N   -0.266560   0.096377
    21  H    0.114584  -0.001938
    22  H    0.075900   0.038360
    23  H    0.171131   0.007249
    24  H    0.497240  -0.021580
    25  H    0.014581   0.168398
    26  H    0.028053   0.090115
    27  H    0.163655  -0.007301
    28  H    0.234233  -0.000455
    29  H    0.173148  -0.001564
    30  H    0.139144   0.051945
    31  H    0.191624   0.035673
    32  H    0.117952   0.049404
    33  H    0.187231  -0.013036
    34  H    0.002365   0.113729
    35  H    0.260445   0.000714
    36  H    0.157030  -0.020091
    37  H    0.139034   0.008066
 Sum of Mulliken charges =  -1.00000   1.00000

 Dipole moment (field-independent basis, Debye):
    X=             -6.2258    Y=             -8.2768    Z=             -0.2864  Tot=             10.3609
 Quadrupole moment (field-independent basis, Debye-Ang):
   XX=           -189.6667   YY=           -166.0097   ZZ=           -127.3897
   XY=            -19.5248   XZ=             -0.1387   YZ=              0.9661

 Summary of Natural Population Analysis:

                                       Natural Population
                Natural  -----------------------------------------------
    Atom  No    Charge         Core      Valence    Rydberg      Total
 -----------------------------------------------------------------------
      C    1   -0.16526      0.99959     2.15707    0.00860     3.16526
      C    2   -0.11402      0.99954     2.10527    0.00921     3.11402
      C    3    0.33376      0.99963     1.64592    0.02069     2.66624
      O    4   -0.31999      0.99988     3.31432    0.00579     4.31999
      N    5   -0.34518      0.99965     2.83528    0.01025     3.84518
      C    6   -0.01378      0.99958     2.00171    0.01249     3.01378
      C    7   -0.19047      0.99961     2.18164    0.00922     3.19047
      C    8   -0.20933      0.99960     2.20152    0.00820     3.20933
      C    9    0.06926      0.99953     1.91602    0.01519     2.93074
      C   10   -0.21168      0.99960     2.20268    0.00940     3.21168
      C   11   -0.19047      0.99961     2.18289    0.00797     3.19047
      O   12   -0.27083      0.99985     3.26219    0.00879     4.27083
      C   13    0.33901      0.99947     1.64680    0.01473     2.66099
      N   14   -0.29498      0.99966     2.78463    0.01069     3.79498
      C   15    0.06054      0.99956     1.92584    0.01405     2.93946
      C   16   -0.11029      0.99942     2.10140    0.00947     3.11029
      C   17    0.00520      0.99956     1.98774    0.00750     2.99480
      C   18   -0.16604      0.99953     2.15836    0.00814     3.16604
      C   19    0.15242      0.99964     1.83034    0.01759     2.84758
      N   20   -0.17653      0.99979     2.66588    0.01086     3.67653
      H   21    0.08864      0.00000     0.41026    0.00110     0.41136
      H   22    0.08890      0.00000     0.40997    0.00113     0.41110
      H   23    0.09826      0.00000     0.40071    0.00103     0.40174
      H   24    0.21814      0.00000     0.27939    0.00247     0.28186
      H   25    0.10982      0.00000     0.38858    0.00160     0.39018
      H   26    0.09292      0.00000     0.40605    0.00103     0.40708
      H   27    0.10134      0.00000     0.39771    0.00095     0.39866
      H   28    0.11557      0.00000     0.38330    0.00113     0.38443
      H   29    0.09819      0.00000     0.40090    0.00091     0.40181
      H   30    0.08893      0.00000     0.40989    0.00119     0.41107
      H   31    0.11618      0.00000     0.38263    0.00120     0.38382
      H   32    0.09947      0.00000     0.39955    0.00098     0.40053
      H   33    0.10196      0.00000     0.39719    0.00084     0.39804
      H   34    0.09325      0.00000     0.40572    0.00103     0.40675
      H   35    0.10865      0.00000     0.39036    0.00099     0.39135
      H   36    0.09571      0.00000     0.40345    0.00084     0.40429
      H   37    0.10273      0.00000     0.39629    0.00098     0.39727
 =======================================================================
   * Total *   -0.00000     19.99231    51.76945    0.23824    72.00000

 Normal termination of Gaussian 16 at Sat Dec 12 18:27:48 2020.
