 Gaussian 16, Revision A.03,

 -----------------------------------------------------------
 # opt freq B3LYP/6-31G(d) empiricaldispersion=gd3bj scf=xqc
 -----------------------------------------------------------

 -------------------------------
 CID_147078642_JID_2422_neutraal
 -------------------------------
 Symbolic Z-matrix:
 Charge =  0 Multiplicity = 1

 SCF Done:  E(RB3LYP) =  -506.443475660     A.U. after   13 cycles
 SCF Done:  E(RB3LYP) =  -506.451060875     A.U. after   11 cycles
 SCF Done:  E(RB3LYP) =  -506.451843998     A.U. after   11 cycles
 SCF Done:  E(RB3LYP) =  -506.452205465     A.U. after   10 cycles
 SCF Done:  E(RB3LYP) =  -506.452286806     A.U. after   10 cycles
 SCF Done:  E(RB3LYP) =  -506.452320109     A.U. after    9 cycles
 SCF Done:  E(RB3LYP) =  -506.452325722     A.U. after    8 cycles
 SCF Done:  E(RB3LYP) =  -506.452328731     A.U. after    8 cycles
 SCF Done:  E(RB3LYP) =  -506.452330793     A.U. after    8 cycles
 SCF Done:  E(RB3LYP) =  -506.452331622     A.U. after    7 cycles
 SCF Done:  E(RB3LYP) =  -506.452331774     A.U. after    7 cycles
 Optimization completed.
    -- Stationary point found.
 Normal termination of Gaussian 16 at Wed Dec  9 17:20:47 2020.

 --------------------------------------------------------------------
 #N Geom=AllCheck Guess=TCheck SCRF=Check GenChk RB3LYP/6-31G(d) Freq
 --------------------------------------------------------------------

 Structure from the checkpoint file:  "JID_2422.chk"
 -------------------------------
 CID_147078642_JID_2422_neutraal
 -------------------------------
 Charge =  0 Multiplicity = 1

 SCF Done:  E(RB3LYP) =  -506.452331774     A.U. after    1 cycles

  Exact polarizability: 128.958  -0.280 107.576  -1.382  -0.229 103.620
 Approx polarizability: 159.502  -0.343 156.857  -1.462  -2.814 156.308

                      1                      2                      3
                      A                      A                      A
 Frequencies --     43.1244                51.2417               118.8311
 Red. masses --      3.3126                 2.8992                 2.2988
 Frc consts  --      0.0036                 0.0045                 0.0191
 IR Inten    --      0.1707                 0.0835                 0.0549

                      4                      5                      6
                      A                      A                      A
 Frequencies --    145.4421               157.2367               215.4548
 Red. masses --      2.9745                 2.4045                 1.5987
 Frc consts  --      0.0371                 0.0350                 0.0437
 IR Inten    --      0.7612                 1.0142                 0.5512

                      7                      8                      9
                      A                      A                      A
 Frequencies --    238.6748               247.7694               262.5094
 Red. masses --      1.1576                 1.3658                 1.9196
 Frc consts  --      0.0389                 0.0494                 0.0779
 IR Inten    --      0.6899                38.1238                75.6594

                     10                     11                     12
                      A                      A                      A
 Frequencies --    291.1468               307.3263               337.0553
 Red. masses --      2.7060                 1.6781                 3.1772
 Frc consts  --      0.1351                 0.0934                 0.2127
 IR Inten    --      0.4381                 0.1627                 3.8137

                     13                     14                     15
                      A                      A                      A
 Frequencies --    396.1927               410.9133               433.1157
 Red. masses --      2.2520                 2.5608                 2.5693
 Frc consts  --      0.2083                 0.2548                 0.2840
 IR Inten    --      1.0702                 0.9875                 1.3307

                     16                     17                     18
                      A                      A                      A
 Frequencies --    470.7962               536.0592               623.4035
 Red. masses --      1.9960                 2.4361                 4.2725
 Frc consts  --      0.2607                 0.4124                 0.9783
 IR Inten    --      0.1440                 1.6560                 6.9892

                     19                     20                     21
                      A                      A                      A
 Frequencies --    704.5458               755.4477               811.9462
 Red. masses --      3.4082                 1.3962                 3.0441
 Frc consts  --      0.9968                 0.4695                 1.1824
 IR Inten    --      2.5966                 3.8825                 3.5100

                     22                     23                     24
                      A                      A                      A
 Frequencies --    823.5968               850.0205               852.7771
 Red. masses --      2.0470                 2.2210                 2.7185
 Frc consts  --      0.8181                 0.9455                 1.1648
 IR Inten    --      0.2031                 2.1562                 0.9919

                     25                     26                     27
                      A                      A                      A
 Frequencies --    862.7052               877.3299               896.5192
 Red. masses --      2.4538                 1.6519                 2.0017
 Frc consts  --      1.0760                 0.7491                 0.9479
 IR Inten    --      0.4021                 2.5941                 3.2213

                     28                     29                     30
                      A                      A                      A
 Frequencies --    922.0967               959.3866               975.1868
 Red. masses --      1.7222                 1.4309                 1.9937
 Frc consts  --      0.8627                 0.7760                 1.1171
 IR Inten    --      1.2318                 6.6399                 0.1761

                     31                     32                     33
                      A                      A                      A
 Frequencies --    984.8310              1002.8642              1024.8003
 Red. masses --      1.8271                 1.6263                 1.3000
 Frc consts  --      1.0441                 0.9637                 0.8044
 IR Inten    --      0.2901                 3.8374                 0.9713

                     34                     35                     36
                      A                      A                      A
 Frequencies --   1036.4687              1052.1800              1077.1400
 Red. masses --      3.1750                 1.6112                 1.3293
 Frc consts  --      2.0096                 1.0510                 0.9087
 IR Inten    --      1.2453                 2.8866                 2.3668

                     37                     38                     39
                      A                      A                      A
 Frequencies --   1084.9001              1089.9944              1108.1208
 Red. masses --      1.8872                 1.9153                 1.2089
 Frc consts  --      1.3087                 1.3407                 0.8746
 IR Inten    --      2.0574                 2.7062                 7.9058

                     40                     41                     42
                      A                      A                      A
 Frequencies --   1152.7373              1164.7460              1170.4946
 Red. masses --      1.3349                 3.2276                 1.9772
 Frc consts  --      1.0451                 2.5798                 1.5960
 IR Inten    --     11.3235                76.4655                13.6799

                     43                     44                     45
                      A                      A                      A
 Frequencies --   1188.3936              1196.0331              1205.5382
 Red. masses --      2.1013                 1.6254                 1.9786
 Frc consts  --      1.7485                 1.3699                 1.6942
 IR Inten    --      0.9556                 3.3762                 4.9133

                     46                     47                     48
                      A                      A                      A
 Frequencies --   1238.4110              1253.5979              1269.0482
 Red. masses --      1.4160                 1.5694                 1.4255
 Frc consts  --      1.2795                 1.4532                 1.3526
 IR Inten    --      2.6749                 0.7123                 3.7757

                     49                     50                     51
                      A                      A                      A
 Frequencies --   1290.9593              1300.3510              1304.6634
 Red. masses --      1.3995                 1.3570                 1.4025
 Frc consts  --      1.3742                 1.3520                 1.4066
 IR Inten    --      5.6527                13.1386                18.6095

                     52                     53                     54
                      A                      A                      A
 Frequencies --   1312.9707              1334.8063              1348.3710
 Red. masses --      1.3895                 1.3086                 1.5050
 Frc consts  --      1.4113                 1.3737                 1.6121
 IR Inten    --      2.7135                 4.5139                 8.9621

                     55                     56                     57
                      A                      A                      A
 Frequencies --   1366.8646              1380.2335              1398.0128
 Red. masses --      1.4855                 1.2974                 1.3757
 Frc consts  --      1.6352                 1.4563                 1.5841
 IR Inten    --      0.0231                 2.8228                 8.4712

                     58                     59                     60
                      A                      A                      A
 Frequencies --   1413.9640              1425.5800              1438.8881
 Red. masses --      1.3681                 1.4286                 1.2553
 Frc consts  --      1.6115                 1.7106                 1.5312
 IR Inten    --      2.4517                 3.5471                 5.5535

                     61                     62                     63
                      A                      A                      A
 Frequencies --   1444.2268              1457.7410              1511.1618
 Red. masses --      1.2644                 1.3095                 1.0772
 Frc consts  --      1.5538                 1.6395                 1.4494
 IR Inten    --      7.2652                 3.3643                 0.6680

                     64                     65                     66
                      A                      A                      A
 Frequencies --   1520.2465              1521.8506              1526.0653
 Red. masses --      1.0918                 1.0599                 1.0611
 Frc consts  --      1.4867                 1.4463                 1.4560
 IR Inten    --      1.2947                 0.8234                 3.9882

                     67                     68                     69
                      A                      A                      A
 Frequencies --   1533.8879              1535.1711              1539.6548
 Red. masses --      1.0476                 1.0524                 1.1209
 Frc consts  --      1.4522                 1.4614                 1.5656
 IR Inten    --      3.5644                 2.1349                 2.7219

                     70                     71                     72
                      A                      A                      A
 Frequencies --   1545.5549              3010.3049              3014.5218
 Red. masses --      1.0667                 1.0739                 1.0744
 Frc consts  --      1.5013                 5.7337                 5.7527
 IR Inten    --      6.5205                12.9618                40.8883

                     73                     74                     75
                      A                      A                      A
 Frequencies --   3030.0047              3036.2211              3040.5240
 Red. masses --      1.0847                 1.0483                 1.0537
 Frc consts  --      5.8672                 5.6937                 5.7396
 IR Inten    --     63.7487                16.8407                57.6931

                     76                     77                     78
                      A                      A                      A
 Frequencies --   3045.5588              3056.5715              3069.5835
 Red. masses --      1.0369                 1.0983                 1.0597
 Frc consts  --      5.6664                 6.0458                 5.8830
 IR Inten    --     15.7906                12.8135                23.3581

                     79                     80                     81
                      A                      A                      A
 Frequencies --   3073.1870              3077.6466              3093.7650
 Red. masses --      1.0964                 1.0575                 1.0887
 Frc consts  --      6.1012                 5.9015                 6.1397
 IR Inten    --     47.4896                39.6037                14.2305

                     82                     83                     84
                      A                      A                      A
 Frequencies --   3109.0550              3109.5634              3111.2743
 Red. masses --      1.0969                 1.1019                 1.0894
 Frc consts  --      6.2469                 6.2776                 6.2133
 IR Inten    --     10.7231                49.5342                65.2347

                     85                     86                     87
                      A                      A                      A
 Frequencies --   3114.2370              3117.2399              3120.3744
 Red. masses --      1.1047                 1.1003                 1.0997
 Frc consts  --      6.3123                 6.2994                 6.3089
 IR Inten    --     78.4470                56.3158                29.7004

                     88                     89                     90
                      A                      A                      A
 Frequencies --   3131.7071              3143.8602              3740.5546
 Red. masses --      1.1100                 1.0894                 1.0662
 Frc consts  --      6.4141                 6.3441                 8.7890
 IR Inten    --     37.6243                42.6579                15.4125

 - Thermochemistry -
 -------------------
 Temperature   298.150 Kelvin.  Pressure   1.00000 Atm.
 Atom     1 has atomic number  6 and mass  12.00000

 Molecular mass:   168.15142 amu.
 Principal axes and moments of inertia in atomic units:
                           1         2         3
     Eigenvalues --  1118.861803118.604673402.27591
           X            0.99997   0.00635  -0.00404
           Y           -0.00622   0.99948   0.03171
           Z            0.00424  -0.03169   0.99949
 This molecule is an asymmetric top.
 Rotational symmetry number  1.
 Warning -- assumption of classical behavior for rotation
           may cause significant error
 Rotational temperatures (Kelvin)      0.07741     0.02777     0.02546
 Rotational constants (GHZ):           1.61302     0.57870     0.53045
 Zero-point vibrational energy     775031.4 (Joules/Mol)
                                  185.23695 (Kcal/Mol)
 Warning -- explicit consideration of  17 degrees of freedom as
           vibrations may cause significant error
 Vibrational temperatures:     62.05    73.73   170.97   209.26   226.23
          (Kelvin)            309.99   343.40   356.48   377.69   418.90
                              442.17   484.95   570.03   591.21   623.16
                              677.37   771.27   896.94  1013.68  1086.92
                             1168.21  1184.97  1222.99  1226.96  1241.24
                             1262.28  1289.89  1326.69  1380.34  1403.08
                             1416.95  1442.90  1474.46  1491.25  1513.85
                             1549.76  1560.93  1568.26  1594.34  1658.53
                             1675.81  1684.08  1709.83  1720.82  1734.50
                             1781.80  1803.65  1825.88  1857.40  1870.92
                             1877.12  1889.07  1920.49  1940.01  1966.61
                             1985.85  2011.43  2034.38  2051.09  2070.24
                             2077.92  2097.36  2174.22  2187.30  2189.60
                             2195.67  2206.92  2208.77  2215.22  2223.71
                             4331.16  4337.22  4359.50  4368.44  4374.64
                             4381.88  4397.72  4416.45  4421.63  4428.05
                             4451.24  4473.24  4473.97  4476.43  4480.69
                             4485.01  4489.52  4505.83  4523.31  5381.82

 Zero-point correction=                           0.295194 (Hartree/Particle)
 Thermal correction to Energy=                    0.307757
 Thermal correction to Enthalpy=                  0.308701
 Thermal correction to Gibbs Free Energy=         0.256590
 Sum of electronic and zero-point Energies=           -506.157138
 Sum of electronic and thermal Energies=              -506.144575
 Sum of electronic and thermal Enthalpies=            -506.143631
 Sum of electronic and thermal Free Energies=         -506.195742

                     E (Thermal)             CV                S
                      KCal/Mol        Cal/Mol-Kelvin    Cal/Mol-Kelvin
 Total                  193.120             49.287            109.678
 Electronic               0.000              0.000              0.000
 Translational            0.889              2.981             41.267
 Rotational               0.889              2.981             30.852
 Vibrational            191.343             43.325             37.559
 Vibration     1          0.595              1.980              5.110
 Vibration     2          0.596              1.977              4.769
 Vibration     3          0.609              1.934              3.119
 Vibration     4          0.617              1.908              2.731
 Vibration     5          0.621              1.895              2.583
 Vibration     6          0.645              1.817              1.997
 Vibration     7          0.657              1.781              1.813
 Vibration     8          0.661              1.766              1.746
 Vibration     9          0.670              1.741              1.645
 Vibration    10          0.687              1.690              1.467
 Vibration    11          0.697              1.660              1.377
 Vibration    12          0.718              1.601              1.226
 Vibration    13          0.763              1.478              0.977
 Vibration    14          0.775              1.447              0.923
 Vibration    15          0.794              1.398              0.849
 Vibration    16          0.828              1.315              0.735
 Vibration    17          0.891              1.170              0.574

 Optimization completed.
    -- Stationary point found.
 Normal termination of Gaussian 16 at Wed Dec  9 17:29:19 2020.

 ----------------------------------------------------------------------
 # B3LYP/6-311++G(d,p) empiricaldispersion=gd3bj scf=xqc pop=npa geom=c
 heck
 ----------------------------------------------------------------------

 ---------------------------------------
 CID_147078642_JID_2422_Energie_neutraal
 ---------------------------------------
 Structure from the checkpoint file:  "JID_2422.chk"
 Charge =  0 Multiplicity = 1

 SCF Done:  E(RB3LYP) =  -506.599573816     A.U. after   13 cycles
 Normal termination of Gaussian 16 at Wed Dec  9 17:32:40 2020.

 ----------------------------------------------------------------------
 # B3LYP/6-311++G(d,p) empiricaldispersion=gd3bj scf=xqc pop=npa geom=c
 heck
 ----------------------------------------------------------------------

 -------------------------------------
 CID_147078642_JID_2422_Energie_kation
 -------------------------------------
 Structure from the checkpoint file:  "JID_2422.chk"
 Charge =  1 Multiplicity = 2

 SCF Done:  E(UB3LYP) =  -506.255100184     A.U. after   28 cycles
 Normal termination of Gaussian 16 at Wed Dec  9 17:41:48 2020.
 Gaussian 16:  ES64L-G16RevA.03 25-Dec-2016

 ----------------------------------------------------------------------
 # B3LYP/6-311++G(d,p) empiricaldispersion=gd3bj scf=xqc pop=npa geom=c
 heck
 ----------------------------------------------------------------------

 ------------------------------------
 CID_147078642_JID_2422_Energie_anion
 ------------------------------------
 Structure from the checkpoint file:  "JID_2422.chk"
 Charge = -1 Multiplicity = 2

                         Standard orientation:
 ---------------------------------------------------------------------
 Center     Atomic      Atomic             Coordinates (Angstroms)
 Number     Number       Type             X           Y           Z
 ---------------------------------------------------------------------
      1          6           0        3.437031    1.208125   -0.386161
      2          6           0        3.231888    0.116527    0.668666
      3          6           0        1.756143   -0.148518    1.003363
      4          6           0        0.870114   -0.570780   -0.182605
      5          6           0        1.423089   -1.817311   -0.887764
      6          6           0       -0.575545   -0.838968    0.272512
      7          6           0       -1.610542   -1.018719   -0.893800
      8          6           0       -2.700318   -0.033790   -0.435428
      9          6           0       -2.762077   -0.297924    1.093809
     10          6           0       -1.313676    0.275962    1.057226
     11          6           0       -1.863027    1.217650   -0.038760
     12          8           0       -0.927242    1.778117   -0.937107
     13          1           0        3.030659    0.911258   -1.359131
     14          1           0        4.501218    1.430379   -0.524752
     15          1           0        2.933384    2.137074   -0.091986
     16          1           0        3.715786   -0.810765    0.336353
     17          1           0        3.747357    0.408609    1.593351
     18          1           0        1.700515   -0.923138    1.783497
     19          1           0        1.339166    0.765567    1.445113
     20          1           0        0.841381    0.253635   -0.900891
     21          1           0        1.522605   -2.653409   -0.182368
     22          1           0        0.759947   -2.142829   -1.696786
     23          1           0        2.409095   -1.633700   -1.326750
     24          1           0       -0.559451   -1.742011    0.900145
     25          1           0       -1.182974   -0.726443   -1.858229
     26          1           0       -1.987172   -2.042881   -0.980059
     27          1           0       -3.602725    0.047751   -1.047684
     28          1           0       -3.473107    0.345543    1.620141
     29          1           0       -2.877603   -1.335686    1.420933
     30          1           0       -0.836308    0.669298    1.955509
     31          1           0       -2.499349    1.999801    0.398498
     32          1           0       -1.422980    2.263481   -1.614399
 ---------------------------------------------------------------------

 SCF Done:  E(UB3LYP) =  -506.584001150     A.U. after   29 cycles

 The electronic state is 2-A.
 Alpha  occ. eigenvalues --  -19.01264 -10.11036 -10.06946 -10.06649 -10.06578
 Alpha  occ. eigenvalues --  -10.06534 -10.06486 -10.05861 -10.05815 -10.05814
 Alpha  occ. eigenvalues --  -10.05603 -10.05437  -0.91699  -0.78160  -0.70883
 Alpha  occ. eigenvalues --   -0.65948  -0.60695  -0.58614  -0.57377  -0.54362
 Alpha  occ. eigenvalues --   -0.51091  -0.46027  -0.44492  -0.43120  -0.41076
 Alpha  occ. eigenvalues --   -0.39755  -0.37134  -0.35386  -0.33300  -0.32216
 Alpha  occ. eigenvalues --   -0.31647  -0.30563  -0.29447  -0.28605  -0.26100
 Alpha  occ. eigenvalues --   -0.26051  -0.25769  -0.25142  -0.23750  -0.23642
 Alpha  occ. eigenvalues --   -0.22811  -0.22416  -0.21176  -0.19866  -0.19497
 Alpha  occ. eigenvalues --   -0.18465  -0.16058   0.04629
 Alpha virt. eigenvalues --    0.06434   0.07260   0.07664   0.08636   0.08905
 Alpha virt. eigenvalues --    0.09208   0.09867   0.10540   0.11136   0.11561
 Alpha virt. eigenvalues --    0.11760   0.12531   0.12785   0.13620   0.13919

  Beta  occ. eigenvalues --  -19.01224 -10.11015 -10.06943 -10.06631 -10.06567
  Beta  occ. eigenvalues --  -10.06530 -10.06472 -10.05856 -10.05808 -10.05796
  Beta  occ. eigenvalues --  -10.05589 -10.05422  -0.91614  -0.78122  -0.70864
  Beta  occ. eigenvalues --   -0.65925  -0.60662  -0.58584  -0.57346  -0.54297
  Beta  occ. eigenvalues --   -0.51054  -0.45993  -0.44433  -0.43088  -0.40985
  Beta  occ. eigenvalues --   -0.39695  -0.37117  -0.35358  -0.33273  -0.32186
  Beta  occ. eigenvalues --   -0.31620  -0.30544  -0.29425  -0.28578  -0.26068
  Beta  occ. eigenvalues --   -0.26031  -0.25741  -0.25117  -0.23719  -0.23617
  Beta  occ. eigenvalues --   -0.22776  -0.22394  -0.21147  -0.19846  -0.19476
  Beta  occ. eigenvalues --   -0.18433  -0.16015
  Beta virt. eigenvalues --    0.06556   0.07455   0.07963   0.08084   0.09082
  Beta virt. eigenvalues --    0.09503   0.09633   0.10235   0.10937   0.11659
  Beta virt. eigenvalues --    0.11804   0.12078   0.12850   0.13072   0.13948

 Mulliken charges and spin densities:
               1          2
     1  C    0.056568  -0.648375
     2  C   -0.038177  -0.252063
     3  C   -0.881200   0.608653
     4  C   -0.808144   0.514478
     5  C    0.248465  -0.972953
     6  C    1.846606  -1.181587
     7  C    0.622667  -1.496636
     8  C   -1.436296   2.020467
     9  C    1.177300  -1.965993
    10  C   -1.572169   1.948520
    11  C    1.469983  -2.388185
    12  O   -0.214874  -0.016045
    13  H   -0.158950   0.312962
    14  H   -0.175908   0.311773
    15  H    0.069751   0.070487
    16  H    0.058800   0.066296
    17  H   -0.191276   0.342886
    18  H    0.021021   0.106590
    19  H    0.089049   0.024971
    20  H    0.802245  -0.527865
    21  H   -0.026414   0.167186
    22  H   -0.030168   0.166565
    23  H    0.085202   0.051078
    24  H    0.286796  -0.075483
    25  H   -0.098935   0.239980
    26  H   -0.010752   0.168495
    27  H   -1.059330   1.303475
    28  H   -0.239712   0.391930
    29  H   -0.021146   0.135515
    30  H   -0.049482   0.291510
    31  H   -0.569011   0.757616
    32  H   -0.252511   0.523753
 Sum of Mulliken charges =  -1.00000   1.00000

 Dipole moment (field-independent basis, Debye):
    X=              3.9758    Y=             -4.0815    Z=              2.4548  Tot=              6.2042
 Quadrupole moment (field-independent basis, Debye-Ang):
   XX=           -151.4757   YY=           -118.4597   ZZ=           -111.7921
   XY=              7.6904   XZ=             -5.7089   YZ=              1.3069

 Summary of Natural Population Analysis:

                                       Natural Population
                Natural  -----------------------------------------------
    Atom  No    Charge         Core      Valence    Rydberg      Total
 -----------------------------------------------------------------------
      C    1   -0.28680      0.99967     2.28254    0.00459     3.28680
      C    2   -0.18982      0.99964     2.18179    0.00839     3.18982
      C    3   -0.18461      0.99961     2.17728    0.00772     3.18461
      C    4   -0.12097      0.99956     2.11067    0.01073     3.12097
      C    5   -0.28512      0.99965     2.28030    0.00517     3.28512
      C    6   -0.10305      0.99958     2.09096    0.01251     3.10305
      C    7   -0.19160      0.99962     2.18240    0.00957     3.19160
      C    8   -0.11401      0.99958     2.09966    0.01478     3.11401
      C    9   -0.18627      0.99963     2.17744    0.00920     3.18627
      C   10   -0.10671      0.99956     2.09438    0.01277     3.10671
      C   11    0.06411      0.99949     1.91875    0.01765     2.93589
      O   12   -0.37373      0.99988     3.36672    0.00712     4.37373
      H   13    0.09783      0.00000     0.40107    0.00110     0.40217
      H   14    0.09510      0.00000     0.40391    0.00099     0.40490
      H   15    0.09852      0.00000     0.40022    0.00126     0.40148
      H   16    0.09170      0.00000     0.40716    0.00114     0.40830
      H   17    0.09298      0.00000     0.40597    0.00105     0.40702
      H   18    0.09212      0.00000     0.40680    0.00108     0.40788
      H   19    0.09848      0.00000     0.40013    0.00139     0.40152
      H   20    0.11048      0.00000     0.38661    0.00291     0.38952
      H   21    0.09278      0.00000     0.40620    0.00102     0.40722
      H   22    0.10061      0.00000     0.39859    0.00081     0.39939
      H   23    0.09798      0.00000     0.40115    0.00087     0.40202
      H   24    0.09219      0.00000     0.40605    0.00175     0.40781
      H   25    0.10347      0.00000     0.39501    0.00152     0.39653
      H   26    0.09722      0.00000     0.40180    0.00098     0.40278
      H   27    0.10065      0.00000     0.39607    0.00328     0.39935
      H   28    0.10120      0.00000     0.39743    0.00137     0.39880
      H   29    0.09427      0.00000     0.40472    0.00101     0.40573
      H   30    0.10027      0.00000     0.39864    0.00109     0.39973
      H   31    0.08515      0.00000     0.41142    0.00343     0.41485
      H   32    0.23559      0.00000     0.25655    0.00786     0.26441
 =======================================================================
   * Total *   -0.00000     11.99547    34.84838    0.15615    47.00000

 Normal termination of Gaussian 16 at Wed Dec  9 17:52:09 2020.
