 Gaussian 16, Revision A.03,

 -----------------------------------------------------------
 # opt freq B3LYP/6-31G(d) empiricaldispersion=gd3bj scf=xqc
 -----------------------------------------------------------

 -----------------------------
 CID_23005620_JID_881_neutraal
 -----------------------------
 Symbolic Z-matrix:
 Charge =  0 Multiplicity = 1

 SCF Done:  E(RB3LYP) =  -438.836547774     A.U. after   14 cycles
 SCF Done:  E(RB3LYP) =  -438.839603037     A.U. after   12 cycles
 SCF Done:  E(RB3LYP) =  -438.840207268     A.U. after   11 cycles
 SCF Done:  E(RB3LYP) =  -438.840616332     A.U. after   11 cycles
 SCF Done:  E(RB3LYP) =  -438.840796288     A.U. after   12 cycles
 SCF Done:  E(RB3LYP) =  -438.840908294     A.U. after   10 cycles
 SCF Done:  E(RB3LYP) =  -438.840955308     A.U. after   10 cycles
 SCF Done:  E(RB3LYP) =  -438.840962562     A.U. after    9 cycles
 SCF Done:  E(RB3LYP) =  -438.840967926     A.U. after    9 cycles
 SCF Done:  E(RB3LYP) =  -438.840972591     A.U. after   10 cycles
 SCF Done:  E(RB3LYP) =  -438.840973426     A.U. after    8 cycles
 SCF Done:  E(RB3LYP) =  -438.840973755     A.U. after    7 cycles
 Optimization completed.
    -- Stationary point found.

 1\1\GINC-NODE309\FOpt\RB3LYP\6-31G(d)\C7H13N3\VSC10255\14-Dec-2020\0\\
 # opt freq B3LYP/6-31G(d) empiricaldispersion=gd3bj scf=xqc\\CID_23005
 620_JID_881_neutraal\\0,1\C,1.1134640227,0.1174565529,-0.1540702386\C,
 0.2696556657,-0.4957465513,-1.2840439909\C,0.8221499773,-1.8030215705,
 -1.768493693\N,0.2799494844,-2.960663733,-1.3815854971\N,1.0333182802,
 -3.9224150761,-1.9674135446\C,2.0365676587,-3.3975739428,-2.718564696\
 C,1.9454475616,-2.0210393947,-2.6172231595\C,2.817727506,-1.0011114429
 ,-3.2837273166\N,2.016367235,-0.1001322998,-4.1291093458\C,0.704029691

 Normal termination of Gaussian 16 at Mon Dec 14 16:25:45 2020.

 --------------------------------------------------------------------
 #N Geom=AllCheck Guess=TCheck SCRF=Check GenChk RB3LYP/6-31G(d) Freq
 --------------------------------------------------------------------

 Structure from the checkpoint file:  "JID_881.chk"
 -----------------------------
 CID_23005620_JID_881_neutraal
 -----------------------------
 Charge =  0 Multiplicity = 1

 SCF Done:  E(RB3LYP) =  -438.840973755     A.U. after    1 cycles

  Exact polarizability: 116.764   0.827  92.477  -0.208  -6.572  65.572
 Approx polarizability: 160.140  -1.175 135.025  -0.087 -15.902  97.348

 ******    1 imaginary frequencies (negative Signs) ******

                      1                      2                      3
                      A                      A                      A
 Frequencies --    -34.3771                36.9031                80.6448
 Red. masses --      1.1402                 2.5997                 2.7175
 Frc consts  --      0.0008                 0.0021                 0.0104
 IR Inten    --      0.2482                 0.6298                 0.4091

                      4                      5                      6
                      A                      A                      A
 Frequencies --    133.1308               154.5166               197.0086
 Red. masses --      2.5425                 3.5783                 1.3767
 Frc consts  --      0.0265                 0.0503                 0.0315
 IR Inten    --      9.2922                 0.1710                 3.6287

                      7                      8                      9
                      A                      A                      A
 Frequencies --    209.1655               238.2945               291.8785
 Red. masses --      2.8743                 1.5636                 1.7963
 Frc consts  --      0.0741                 0.0523                 0.0902
 IR Inten    --      1.0637                 9.9829                 2.0447

                     10                     11                     12
                      A                      A                      A
 Frequencies --    310.5586               377.7381               427.2893
 Red. masses --      1.4618                 3.4657                 3.8769
 Frc consts  --      0.0831                 0.2914                 0.4170
 IR Inten    --     36.3338                 7.8005                 2.1020

                     13                     14                     15
                      A                      A                      A
 Frequencies --    485.8336               613.5766               626.6275
 Red. masses --      3.0087                 3.9115                 4.9568
 Frc consts  --      0.4184                 0.8676                 1.1468
 IR Inten    --      7.8266                 0.7619                 1.8366

                     16                     17                     18
                      A                      A                      A
 Frequencies --    671.9674               749.1669               769.2485
 Red. masses --      3.3469                 2.9900                 2.1887
 Frc consts  --      0.8904                 0.9887                 0.7631
 IR Inten    --     11.7144                 4.6155                10.2557

                     19                     20                     21
                      A                      A                      A
 Frequencies --    788.0209               822.5819               876.1868
 Red. masses --      1.5324                 1.5197                 1.3072
 Frc consts  --      0.5607                 0.6058                 0.5913
 IR Inten    --     20.9298                 5.7715               102.4548

                     22                     23                     24
                      A                      A                      A
 Frequencies --    981.0569              1008.4557              1033.6021
 Red. masses --      2.2556                 1.8129                 5.5183
 Frc consts  --      1.2791                 1.0863                 3.4734
 IR Inten    --      2.2391                26.4582                15.6158

                     25                     26                     27
                      A                      A                      A
 Frequencies --   1053.9860              1072.2721              1092.5684
 Red. masses --      2.6186                 1.6031                 1.8343
 Frc consts  --      1.7139                 1.0860                 1.2901
 IR Inten    --      3.5825                 9.4273                 5.6981

                     28                     29                     30
                      A                      A                      A
 Frequencies --   1114.8916              1161.4675              1180.8073
 Red. masses --      1.5481                 1.2983                 1.3633
 Frc consts  --      1.1337                 1.0319                 1.1200
 IR Inten    --     11.6020                 0.0181                14.3787

                     31                     32                     33
                      A                      A                      A
 Frequencies --   1211.1074              1223.5063              1297.6147
 Red. masses --      1.4631                 3.3842                 1.3717
 Frc consts  --      1.2644                 2.9848                 1.3608
 IR Inten    --      6.5263                 2.3980                 3.4263

                     34                     35                     36
                      A                      A                      A
 Frequencies --   1317.9772              1343.5893              1379.9344
 Red. masses --      1.3439                 2.7229                 1.4799
 Frc consts  --      1.3754                 2.8961                 1.6603
 IR Inten    --      7.6703                15.2580                 5.4856

                     37                     38                     39
                      A                      A                      A
 Frequencies --   1422.7564              1432.3260              1443.9461
 Red. masses --      2.1832                 1.2471                 1.9503
 Frc consts  --      2.6038                 1.5074                 2.3958
 IR Inten    --     14.9493                 1.9350                43.7748

                     40                     41                     42
                      A                      A                      A
 Frequencies --   1477.8466              1494.8053              1503.1415
 Red. masses --      1.4810                 2.2425                 1.0430
 Frc consts  --      1.9057                 2.9522                 1.3885
 IR Inten    --     12.9856                13.8516                 5.7203

                     43                     44                     45
                      A                      A                      A
 Frequencies --   1507.7230              1517.0213              1526.8577
 Red. masses --      1.2483                 2.0418                 1.0461
 Frc consts  --      1.6719                 2.7686                 1.4369
 IR Inten    --      2.5516                 4.9822                 2.9041

                     46                     47                     48
                      A                      A                      A
 Frequencies --   1538.8047              1543.6857              1552.4660
 Red. masses --      1.2745                 1.1645                 1.2209
 Frc consts  --      1.7782                 1.6350                 1.7337
 IR Inten    --      6.3280                 4.2465                 6.0128

                     49                     50                     51
                      A                      A                      A
 Frequencies --   1620.3292              1686.9193              2955.5453
 Red. masses --      5.7500                 1.0993                 1.0741
 Frc consts  --      8.8946                 1.8432                 5.5282
 IR Inten    --     42.2359                26.9432                91.9418

                     52                     53                     54
                      A                      A                      A
 Frequencies --   3046.2520              3049.3096              3065.9404
 Red. masses --      1.0627                 1.0576                 1.0395
 Frc consts  --      5.8100                 5.7938                 5.7569
 IR Inten    --      0.5910                74.4932                48.2153

                     55                     56                     57
                      A                      A                      A
 Frequencies --   3066.6862              3104.7375              3115.8914
 Red. masses --      1.0530                 1.1027                 1.1022
 Frc consts  --      5.8347                 6.2627                 6.3047
 IR Inten    --     26.6590                 3.5600                50.0113

                     58                     59                     60
                      A                      A                      A
 Frequencies --   3128.3229              3130.5748              3159.7826
 Red. masses --      1.1043                 1.1061                 1.1041
 Frc consts  --      6.3676                 6.3868                 6.4952
 IR Inten    --     34.9166                18.6499                12.1765

                     61                     62                     63
                      A                      A                      A
 Frequencies --   3259.9728              3459.2607              3550.2361
 Red. masses --      1.0973                 1.0493                 1.0930
 Frc consts  --      6.8708                 7.3979                 8.1172
 IR Inten    --      3.3757                 6.0234                 1.3436

 - Thermochemistry -
 -------------------
 Temperature   298.150 Kelvin.  Pressure   1.00000 Atm.
 Atom     1 has atomic number  6 and mass  12.00000

 Molecular mass:   139.11095 amu.
 Principal axes and moments of inertia in atomic units:
                           1         2         3
     Eigenvalues --   988.421361761.850612476.30974
           X            0.99975   0.02225   0.00347
           Y           -0.02227   0.99974   0.00574
           Z           -0.00334  -0.00581   0.99998
 This molecule is an asymmetric top.
 Rotational symmetry number  1.
 Warning -- assumption of classical behavior for rotation
           may cause significant error
 Rotational temperatures (Kelvin)      0.08763     0.04916     0.03498
 Rotational constants (GHZ):           1.82588     1.02434     0.72880
    1 imaginary frequencies ignored.
 Zero-point vibrational energy     530509.8 (Joules/Mol)
                                  126.79489 (Kcal/Mol)
 Warning -- explicit consideration of  13 degrees of freedom as
           vibrations may cause significant error
 Vibrational temperatures:     53.10   116.03   191.55   222.31   283.45
          (Kelvin)            300.94   342.85   419.95   446.82   543.48
                              614.77   699.01   882.80   901.58   966.81
                             1077.88  1106.78  1133.79  1183.51  1260.64
                             1411.52  1450.94  1487.12  1516.45  1542.76
                             1571.96  1604.08  1671.09  1698.92  1742.51
                             1760.35  1866.98  1896.28  1933.13  1985.42
                             2047.03  2060.80  2077.52  2126.29  2150.69
                             2162.69  2169.28  2182.66  2196.81  2214.00
                             2221.02  2233.65  2331.29  2427.10  4252.37
                             4382.88  4387.28  4411.20  4412.28  4467.02
                             4483.07  4500.96  4504.20  4546.22  4690.37
                             4977.10  5108.00

 Zero-point correction=                           0.202061 (Hartree/Particle)
 Thermal correction to Energy=                    0.212346
 Thermal correction to Enthalpy=                  0.213290
 Thermal correction to Gibbs Free Energy=         0.165776
 Sum of electronic and zero-point Energies=           -438.638913
 Sum of electronic and thermal Energies=              -438.628628
 Sum of electronic and thermal Enthalpies=            -438.627683
 Sum of electronic and thermal Free Energies=         -438.675198

                     E (Thermal)             CV                S
                      KCal/Mol        Cal/Mol-Kelvin    Cal/Mol-Kelvin
 Total                  133.249             37.514            100.003
 Electronic               0.000              0.000              0.000
 Translational            0.889              2.981             40.702
 Rotational               0.889              2.981             29.846
 Vibrational            131.472             31.552             29.456
 Vibration     1          0.594              1.982              5.419
 Vibration     2          0.600              1.962              3.875
 Vibration     3          0.613              1.920              2.900
 Vibration     4          0.620              1.898              2.616
 Vibration     5          0.636              1.844              2.161
 Vibration     6          0.642              1.827              2.051
 Vibration     7          0.656              1.782              1.816
 Vibration     8          0.687              1.689              1.463
 Vibration     9          0.699              1.654              1.359
 Vibration    10          0.748              1.518              1.048
 Vibration    11          0.789              1.411              0.868
 Vibration    12          0.842              1.281              0.695
 Vibration    13          0.973              1.003              0.427

                           ! Non-Optimized Parameters !

 1\1\GINC-NODE309\Freq\RB3LYP\6-31G(d)\C7H13N3\VSC10255\14-Dec-2020\0\\
 #N Geom=AllCheck Guess=TCheck SCRF=Check GenChk RB3LYP/6-31G(d) Freq\\
 CID_23005620_JID_881_neutraal\\0,1\C,1.1134640227,0.1174565529,-0.1540
 702386\C,0.2696556657,-0.4957465513,-1.2840439909\C,0.8221499773,-1.80
 30215705,-1.768493693\N,0.2799494844,-2.960663733,-1.3815854971\N,1.03
 33182802,-3.9224150761,-1.9674135446\C,2.0365676587,-3.3975739428,-2.7
 18564696\C,1.9454475616,-2.0210393947,-2.6172231595\C,2.817727506,-1.0
 011114429,-3.2837273166\N,2.016367235,-0.1001322998,-4.1291093458\C,0.

 Normal termination of Gaussian 16 at Mon Dec 14 16:29:32 2020.

 ----------------------------------------------------------------------
 # B3LYP/6-311++G(d,p) empiricaldispersion=gd3bj scf=xqc pop=npa geom=c
 heck
 ----------------------------------------------------------------------

 -------------------------------------
 CID_23005620_JID_881_Energie_neutraal
 -------------------------------------
 Structure from the checkpoint file:  "JID_881.chk"
 Charge =  0 Multiplicity = 1

 SCF Done:  E(RB3LYP) =  -438.968704255     A.U. after   14 cycles
 Normal termination of Gaussian 16 at Mon Dec 14 16:30:51 2020.

 ----------------------------------------------------------------------
 # B3LYP/6-311++G(d,p) empiricaldispersion=gd3bj scf=xqc pop=npa geom=c
 heck
 ----------------------------------------------------------------------

 -----------------------------------
 CID_23005620_JID_881_Energie_kation
 -----------------------------------
 Structure from the checkpoint file:  "JID_881.chk"
 Charge =  1 Multiplicity = 2

 SCF Done:  E(UB3LYP) =  -438.667104479     A.U. after   24 cycles
 Normal termination of Gaussian 16 at Mon Dec 14 16:33:49 2020.
 Gaussian 16:  ES64L-G16RevA.03 25-Dec-2016

 ----------------------------------
 CID_23005620_JID_881_Energie_anion
 ----------------------------------
 Structure from the checkpoint file:  "JID_881.chk"
 Charge = -1 Multiplicity = 2

                         Standard orientation:
 ---------------------------------------------------------------------
 Center     Atomic      Atomic             Coordinates (Angstroms)
 Number     Number       Type             X           Y           Z
 ---------------------------------------------------------------------
      1          6           0        1.875156    2.137430    0.676149
      2          6           0        1.247349    1.514750   -0.582023
      3          6           0        0.110669    0.591260   -0.259481
      4          7           0       -1.156197    0.988602   -0.404339
      5          7           0       -1.909557   -0.061748    0.001787
      6          6           0       -1.146478   -1.114567    0.396095
      7          6           0        0.176378   -0.737495    0.250190
      8          6           0        1.393508   -1.563736    0.535278
      9          7           0        2.227247   -1.699874   -0.670938
     10          6           0       -3.351835    0.037463   -0.036692
     11          1           0        1.130493    2.710794    1.238899
     12          1           0        2.698245    2.810365    0.409962
     13          1           0        2.276642    1.364884    1.341639
     14          1           0        0.871205    2.308235   -1.236798
     15          1           0        2.010877    0.952859   -1.129832
     16          1           0       -1.589948   -2.037442    0.744744
     17          1           0        2.014962   -1.075733    1.297715
     18          1           0        1.072345   -2.527298    0.970134
     19          1           0        3.031141   -2.292871   -0.468511
     20          1           0        1.688435   -2.172617   -1.395052
     21          1           0       -3.691924    0.858983    0.600918
     22          1           0       -3.691869    0.220862   -1.060374
     23          1           0       -3.779536   -0.900516    0.323895
 ---------------------------------------------------------------------

 SCF Done:  E(UB3LYP) =  -438.954230200     A.U. after   30 cycles

 The electronic state is 2-A.
 Alpha  occ. eigenvalues --  -14.27656 -14.21288 -14.18559 -10.10285 -10.09163
 Alpha  occ. eigenvalues --  -10.09006 -10.08070 -10.06348 -10.06189 -10.05591
 Alpha  occ. eigenvalues --   -0.93676  -0.77660  -0.73871  -0.67781  -0.66375
 Alpha  occ. eigenvalues --   -0.59907  -0.55836  -0.51715  -0.46971  -0.44405
 Alpha  occ. eigenvalues --   -0.40537  -0.38017  -0.36721  -0.35565  -0.33669
 Alpha  occ. eigenvalues --   -0.33241  -0.31362  -0.30107  -0.29360  -0.28889
 Alpha  occ. eigenvalues --   -0.26859  -0.26431  -0.24446  -0.23931  -0.18329
 Alpha  occ. eigenvalues --   -0.14022  -0.13878  -0.12611   0.04626
 Alpha virt. eigenvalues --    0.06553   0.07688   0.08627   0.09104   0.10155
 Alpha virt. eigenvalues --    0.10290   0.11008   0.11591   0.12109   0.12681
 Alpha virt. eigenvalues --    0.13041   0.14223   0.14678   0.15212   0.15752

  Beta  occ. eigenvalues --  -14.27655 -14.21278 -14.18518 -10.10236 -10.09132
  Beta  occ. eigenvalues --  -10.08977 -10.08064 -10.06345 -10.06178 -10.05593
  Beta  occ. eigenvalues --   -0.93665  -0.77593  -0.73849  -0.67747  -0.66356
  Beta  occ. eigenvalues --   -0.59844  -0.55773  -0.51667  -0.46917  -0.44376
  Beta  occ. eigenvalues --   -0.40482  -0.37965  -0.36685  -0.35507  -0.33635
  Beta  occ. eigenvalues --   -0.33197  -0.31313  -0.30059  -0.29320  -0.28860
  Beta  occ. eigenvalues --   -0.26825  -0.26403  -0.24432  -0.23915  -0.18304
  Beta  occ. eigenvalues --   -0.13987  -0.13838  -0.12593
  Beta virt. eigenvalues --    0.07034   0.07790   0.08174   0.09135   0.09970
  Beta virt. eigenvalues --    0.10508   0.10874   0.11136   0.11946   0.12516
  Beta virt. eigenvalues --    0.12878   0.13699   0.14318   0.14865   0.15298

 Mulliken charges and spin densities:
               1          2
     1  C   -0.156773  -0.390256
     2  C   -0.308376  -0.093988
     3  C    0.164292   0.026795
     4  N   -0.516934   0.369556
     5  N    0.151211  -0.031757
     6  C    0.417946  -0.442315
     7  C   -0.545816   1.003900
     8  C    1.732629  -2.879039
     9  N   -0.519910   0.159573
    10  C    1.309541  -1.613977
    11  H    0.088744   0.046419
    12  H    0.032962   0.086567
    13  H    0.029250   0.093920
    14  H    0.088009   0.063515
    15  H    0.179255   0.016863
    16  H   -1.213874   1.411380
    17  H   -0.150146   0.302894
    18  H   -0.445101   0.604669
    19  H   -0.167457   0.394519
    20  H    0.031974   0.177581
    21  H   -0.213366   0.380840
    22  H   -0.258604   0.427669
    23  H   -0.729456   0.884674
 Sum of Mulliken charges =  -1.00000   1.00000

 Dipole moment (field-independent basis, Debye):
    X=              3.2260    Y=              5.6215    Z=             -1.1937  Tot=              6.5904
 Quadrupole moment (field-independent basis, Debye-Ang):
   XX=           -126.8159   YY=           -108.9158   ZZ=            -88.4187
   XY=             -0.6911   XZ=              3.4828   YZ=              4.9501

 Summary of Natural Population Analysis:

                                       Natural Population
                Natural  -----------------------------------------------
    Atom  No    Charge         Core      Valence    Rydberg      Total
 -----------------------------------------------------------------------
      C    1   -0.27852      0.99966     2.27514    0.00372     3.27852
      C    2   -0.20892      0.99960     2.20150    0.00782     3.20892
      C    3    0.08478      0.99953     1.90028    0.01541     2.91522
      N    4   -0.16382      0.99969     2.65264    0.01148     3.66382
      N    5   -0.10752      0.99967     2.59517    0.01268     3.60752
      C    6    0.00435      0.99949     1.98378    0.01238     2.99565
      C    7   -0.08001      0.99947     2.06853    0.01201     3.08001
      C    8   -0.09468      0.99960     2.08260    0.01248     3.09468
      N    9   -0.42149      0.99978     2.91108    0.01063     3.92149
      C   10   -0.17001      0.99964     2.16177    0.00861     3.17001
      H   11    0.09616      0.00000     0.40266    0.00118     0.40384
      H   12    0.09236      0.00000     0.40666    0.00098     0.40764
      H   13    0.09713      0.00000     0.40163    0.00125     0.40287
      H   14    0.09989      0.00000     0.39876    0.00135     0.40011
      H   15    0.11219      0.00000     0.38597    0.00183     0.38781
      H   16    0.10792      0.00000     0.38894    0.00315     0.39208
      H   17    0.09171      0.00000     0.40666    0.00163     0.40829
      H   18    0.08653      0.00000     0.41056    0.00292     0.41347
      H   19    0.17531      0.00000     0.32153    0.00316     0.32469
      H   20    0.17362      0.00000     0.32426    0.00212     0.32638
      H   21    0.09913      0.00000     0.39939    0.00148     0.40087
      H   22    0.09902      0.00000     0.39952    0.00146     0.40098
      H   23    0.10489      0.00000     0.39178    0.00333     0.39511
 =======================================================================
   * Total *    0.00000      9.99612    27.87081    0.13306    38.00000

 Normal termination of Gaussian 16 at Mon Dec 14 16:37:29 2020.
