 Gaussian 16, Revision A.03,

 -----------------------------------------------------------
 # opt freq B3LYP/6-31G(d) empiricaldispersion=gd3bj scf=xqc
 -----------------------------------------------------------

 ------------------------------
 CID_86888780_JID_7339_neutraal
 ------------------------------
 Symbolic Z-matrix:
 Charge =  0 Multiplicity = 1

 SCF Done:  E(RB3LYP) =  -752.605763791     A.U. after   15 cycles
 SCF Done:  E(RB3LYP) =  -752.608698780     A.U. after   13 cycles
 SCF Done:  E(RB3LYP) =  -752.607856845     A.U. after   13 cycles
 SCF Done:  E(RB3LYP) =  -752.609617967     A.U. after   12 cycles
 SCF Done:  E(RB3LYP) =  -752.610591041     A.U. after   12 cycles
 SCF Done:  E(RB3LYP) =  -752.611010412     A.U. after   14 cycles
 SCF Done:  E(RB3LYP) =  -752.611284342     A.U. after   12 cycles
 SCF Done:  E(RB3LYP) =  -752.611502293     A.U. after   11 cycles
 SCF Done:  E(RB3LYP) =  -752.611601533     A.U. after   11 cycles
 SCF Done:  E(RB3LYP) =  -752.611658267     A.U. after   11 cycles
 SCF Done:  E(RB3LYP) =  -752.611776138     A.U. after    8 cycles
 SCF Done:  E(RB3LYP) =  -752.611776446     A.U. after   10 cycles
 SCF Done:  E(RB3LYP) =  -752.611776924     A.U. after    9 cycles
 SCF Done:  E(RB3LYP) =  -752.611777032     A.U. after    9 cycles
 SCF Done:  E(RB3LYP) =  -752.611777084     A.U. after    7 cycles
 Optimization completed.
    -- Stationary point found.
 Normal termination of Gaussian 16 at Fri Dec 11 12:22:44 2020.

 --------------------------------------------------------------------
 #N Geom=AllCheck Guess=TCheck SCRF=Check GenChk RB3LYP/6-31G(d) Freq
 --------------------------------------------------------------------

 Structure from the checkpoint file:  "JID_7339.chk"
 ------------------------------
 CID_86888780_JID_7339_neutraal
 ------------------------------
 Charge =  0 Multiplicity = 1

 SCF Done:  E(RB3LYP) =  -752.611777084     A.U. after    1 cycles

  Exact polarizability: 158.727   5.473 159.515   9.802  -0.636 138.858
 Approx polarizability: 203.935   6.039 246.700  18.715  -7.593 207.481

                      1                      2                      3
                      A                      A                      A
 Frequencies --     13.5886                30.7801                40.2701
 Red. masses --      4.8446                 3.3894                 4.7354
 Frc consts  --      0.0005                 0.0019                 0.0045
 IR Inten    --      0.0972                 0.7379                 0.4370

                      4                      5                      6
                      A                      A                      A
 Frequencies --     55.0744                61.7255                73.2928
 Red. masses --      6.3597                 3.4618                 3.1743
 Frc consts  --      0.0114                 0.0078                 0.0100
 IR Inten    --      0.6472                 0.4081                 0.5483

                      7                      8                      9
                      A                      A                      A
 Frequencies --    116.5077               144.3756               173.7988
 Red. masses --      3.1272                 3.2198                 3.9866
 Frc consts  --      0.0250                 0.0395                 0.0709
 IR Inten    --      0.1815                 0.6144                 0.4385

                     10                     11                     12
                      A                      A                      A
 Frequencies --    206.1778               208.3726               232.3865
 Red. masses --      3.0439                 3.2266                 1.0723
 Frc consts  --      0.0762                 0.0825                 0.0341
 IR Inten    --      4.0489                 1.2682                 0.0869

                     13                     14                     15
                      A                      A                      A
 Frequencies --    255.6088               275.3337               287.3471
 Red. masses --      1.6109                 1.2153                 1.2801
 Frc consts  --      0.0620                 0.0543                 0.0623
 IR Inten    --      0.3857                 0.2673                 0.1397

                     16                     17                     18
                      A                      A                      A
 Frequencies --    305.2014               314.6117               322.7630
 Red. masses --      1.7361                 1.5877                 1.9495
 Frc consts  --      0.0953                 0.0926                 0.1197
 IR Inten    --      0.8348                 1.7206                 0.5762

                     19                     20                     21
                      A                      A                      A
 Frequencies --    351.5679               376.7177               383.2158
 Red. masses --      2.2211                 6.0452                 2.2356
 Frc consts  --      0.1617                 0.5055                 0.1934
 IR Inten    --      0.1030                 1.7915                 1.2363

                     22                     23                     24
                      A                      A                      A
 Frequencies --    408.1909               423.2799               433.6097
 Red. masses --      2.1800                 3.1803                 1.8632
 Frc consts  --      0.2140                 0.3357                 0.2064
 IR Inten    --      0.7213                 6.1672                 1.1617

                     25                     26                     27
                      A                      A                      A
 Frequencies --    495.1581               518.4453               559.1908
 Red. masses --      2.2349                 1.4629                 2.0262
 Frc consts  --      0.3228                 0.2317                 0.3733
 IR Inten    --      0.7684                39.0513                33.1052

                     28                     29                     30
                      A                      A                      A
 Frequencies --    608.5808               612.5018               663.5846
 Red. masses --      4.4281                 3.4968                 4.3744
 Frc consts  --      0.9663                 0.7729                 1.1349
 IR Inten    --     12.6725                 8.3076                 2.9431

                     31                     32                     33
                      A                      A                      A
 Frequencies --    693.3303               713.8622               728.7178
 Red. masses --      2.7807                 2.4006                 3.7374
 Frc consts  --      0.7876                 0.7208                 1.1693
 IR Inten    --      8.1731                 3.1912                13.9378

                     34                     35                     36
                      A                      A                      A
 Frequencies --    737.4572               792.6509               819.9430
 Red. masses --      1.5245                 2.6865                 1.2323
 Frc consts  --      0.4885                 0.9945                 0.4881
 IR Inten    --     31.6763                 1.9617                20.6972

                     37                     38                     39
                      A                      A                      A
 Frequencies --    864.7879               870.0931               870.1659
 Red. masses --      2.5563                 1.7233                 1.3096
 Frc consts  --      1.1264                 0.7687                 0.5843
 IR Inten    --      1.6022                 3.5579                 1.9502

                     40                     41                     42
                      A                      A                      A
 Frequencies --    908.1039               930.6093               938.1403
 Red. masses --      6.1965                 2.1820                 2.4972
 Frc consts  --      3.0107                 1.1134                 1.2949
 IR Inten    --      4.8726                 6.2683                 2.9185

                     43                     44                     45
                      A                      A                      A
 Frequencies --    943.6172               950.2249               970.5322
 Red. masses --      1.8866                 1.7513                 1.2133
 Frc consts  --      0.9897                 0.9317                 0.6733
 IR Inten    --      2.8630                 0.6357                 0.0218

                     46                     47                     48
                      A                      A                      A
 Frequencies --    975.5392              1000.2874              1027.5827
 Red. masses --      1.7021                 1.8755                 1.5954
 Frc consts  --      0.9544                 1.1057                 0.9925
 IR Inten    --      9.4114                 0.7707                 4.5313

                     49                     50                     51
                      A                      A                      A
 Frequencies --   1036.4254              1050.7951              1057.5216
 Red. masses --      1.3573                 1.8305                 1.6236
 Frc consts  --      0.8590                 1.1908                 1.0698
 IR Inten    --     22.9304                 4.1299                 1.0942

                     52                     53                     54
                      A                      A                      A
 Frequencies --   1087.9799              1104.3210              1114.3001
 Red. masses --      1.5839                 2.5285                 2.1021
 Frc consts  --      1.1047                 1.8168                 1.5378
 IR Inten    --      1.9162                 0.9640                 5.8819

                     55                     56                     57
                      A                      A                      A
 Frequencies --   1117.0780              1164.8857              1184.6520
 Red. masses --      3.6486                 1.9585                 1.2855
 Frc consts  --      2.6825                 1.5658                 1.0629
 IR Inten    --      4.8651                 5.7360                10.2338

                     58                     59                     60
                      A                      A                      A
 Frequencies --   1204.5876              1211.4663              1242.8381
 Red. masses --      1.2714                 3.1404                 2.3122
 Frc consts  --      1.0869                 2.7155                 2.1043
 IR Inten    --     11.8719                33.6480                 0.8639

                     61                     62                     63
                      A                      A                      A
 Frequencies --   1252.1239              1266.5067              1272.5660
 Red. masses --      2.0752                 1.7611                 1.8301
 Frc consts  --      1.9169                 1.6644                 1.7461
 IR Inten    --     19.6643                13.3635                18.3353

                     64                     65                     66
                      A                      A                      A
 Frequencies --   1293.3446              1330.5469              1343.3002
 Red. masses --      2.3769                 1.5735                 1.4202
 Frc consts  --      2.3426                 1.6412                 1.5099
 IR Inten    --      5.7177                64.7441                 0.4365

                     67                     68                     69
                      A                      A                      A
 Frequencies --   1348.9474              1384.6965              1387.7133
 Red. masses --      1.2984                 1.5545                 1.4331
 Frc consts  --      1.3920                 1.7561                 1.6260
 IR Inten    --      5.2418                26.7077                 9.7284

                     70                     71                     72
                      A                      A                      A
 Frequencies --   1405.5557              1418.8883              1427.9258
 Red. masses --      1.5047                 1.7221                 1.3871
 Frc consts  --      1.7515                 2.0427                 1.6664
 IR Inten    --     13.6081                78.6848                21.9625

                     73                     74                     75
                      A                      A                      A
 Frequencies --   1429.1341              1430.3925              1442.3673
 Red. masses --      1.2899                 1.2525                 1.8856
 Frc consts  --      1.5522                 1.5099                 2.3112
 IR Inten    --      7.8284                 2.8691                10.6502

                     76                     77                     78
                      A                      A                      A
 Frequencies --   1459.9956              1476.8520              1512.7715
 Red. masses --      1.2320                 1.7095                 1.0572
 Frc consts  --      1.5472                 2.1968                 1.4255
 IR Inten    --      4.4631                62.0818                 0.5486

                     79                     80                     81
                      A                      A                      A
 Frequencies --   1514.5632              1517.4579              1520.2280
 Red. masses --      1.0596                 1.0580                 1.0673
 Frc consts  --      1.4321                 1.4354                 1.4533
 IR Inten    --      0.1540                 0.4777                 2.8938

                     82                     83                     84
                      A                      A                      A
 Frequencies --   1522.3455              1523.3121              1528.1178
 Red. masses --      1.0795                 1.0519                 1.0996
 Frc consts  --      1.4740                 1.4381                 1.5128
 IR Inten    --      5.9655                 5.0097                11.5922

                     85                     86                     87
                      A                      A                      A
 Frequencies --   1530.4096              1538.2433              1546.1634
 Red. masses --      1.0757                 1.0594                 1.0648
 Frc consts  --      1.4844                 1.4769                 1.4998
 IR Inten    --      0.4477                 2.8151                 8.7096

                     88                     89                     90
                      A                      A                      A
 Frequencies --   1548.5268              1555.2697              1652.6257
 Red. masses --      1.0614                 4.6116                 6.2857
 Frc consts  --      1.4996                 6.5723                10.1147
 IR Inten    --     11.7158                10.3561                 2.1716

                     91                     92                     93
                      A                      A                      A
 Frequencies --   1785.6228              3029.8601              3035.5095
 Red. masses --      8.0633                 1.0565                 1.0377
 Frc consts  --     15.1476                 5.7144                 5.6336
 IR Inten    --    344.6632                14.4673                42.6223

                     94                     95                     96
                      A                      A                      A
 Frequencies --   3041.2485              3049.3733              3053.6924
 Red. masses --      1.0358                 1.0422                 1.0673
 Frc consts  --      5.6448                 5.7097                 5.8639
 IR Inten    --     32.1885                 7.4471                20.5000

                     97                     98                     99
                      A                      A                      A
 Frequencies --   3056.8170              3058.8307              3069.6577
 Red. masses --      1.0747                 1.0516                 1.0825
 Frc consts  --      5.9164                 5.7974                 6.0098
 IR Inten    --      2.1791                26.8959                50.7891

                    100                    101                    102
                      A                      A                      A
 Frequencies --   3082.5178              3100.2066              3103.0948
 Red. masses --      1.0681                 1.1018                 1.1015
 Frc consts  --      5.9795                 6.2395                 6.2491
 IR Inten    --     12.1888                18.0706                 8.9615

                    103                    104                    105
                      A                      A                      A
 Frequencies --   3103.7729              3105.3323              3111.3622
 Red. masses --      1.1026                 1.1015                 1.1011
 Frc consts  --      6.2583                 6.2583                 6.2804
 IR Inten    --      1.2789                45.8867                91.0586

                    106                    107                    108
                      A                      A                      A
 Frequencies --   3113.2699              3120.3984              3128.6218
 Red. masses --      1.1012                 1.1011                 1.1036
 Frc consts  --      6.2886                 6.3170                 6.3645
 IR Inten    --     41.5798                43.8244                27.8483

                    109                    110                    111
                      A                      A                      A
 Frequencies --   3151.0376              3157.5619              3268.4407
 Red. masses --      1.1018                 1.0938                 1.0908
 Frc consts  --      6.4453                 6.4255                 6.8655
 IR Inten    --     12.1827                20.4652                 4.2966

                    112                    113                    114
                      A                      A                      A
 Frequencies --   3284.1190              3304.5864              3593.6624
 Red. masses --      1.0975                 1.1050                 1.0763
 Frc consts  --      6.9742                 7.1096                 8.1892
 IR Inten    --      0.5716                 1.4481                21.4038

 - Thermochemistry -
 -------------------
 Temperature   298.150 Kelvin.  Pressure   1.00000 Atm.
 Atom     1 has atomic number  6 and mass  12.00000

 Molecular mass:   237.17288 amu.
 Principal axes and moments of inertia in atomic units:
                           1         2         3
     Eigenvalues --  3077.274635928.314447010.49004
           X            0.99972  -0.02316  -0.00467
           Y            0.02317   0.99973   0.00055
           Z            0.00466  -0.00066   0.99999
 This molecule is an asymmetric top.
 Rotational symmetry number  1.
 Warning -- assumption of classical behavior for rotation
           may cause significant error
 Rotational temperatures (Kelvin)      0.02815     0.01461     0.01235
 Rotational constants (GHZ):           0.58647     0.30443     0.25743
 Zero-point vibrational energy     930415.0 (Joules/Mol)
                                  222.37453 (Kcal/Mol)
 Warning -- explicit consideration of  29 degrees of freedom as
           vibrations may cause significant error
 Vibrational temperatures:     19.55    44.29    57.94    79.24    88.81
          (Kelvin)            105.45   167.63   207.72   250.06   296.64
                              299.80   334.35   367.76   396.14   413.43
                              439.12   452.66   464.38   505.83   542.01
                              551.36   587.30   609.01   623.87   712.42
                              745.93   804.55   875.61   881.25   954.75
                              997.55  1027.09  1048.46  1061.04  1140.45
                             1179.72  1244.24  1251.87  1251.97  1306.56
                             1338.94  1349.77  1357.65  1367.16  1396.38
                             1403.58  1439.19  1478.46  1491.18  1511.86
                             1521.54  1565.36  1588.87  1603.23  1607.23
                             1676.01  1704.45  1733.13  1743.03  1788.17
                             1801.53  1822.22  1830.94  1860.83  1914.36
                             1932.71  1940.83  1992.27  1996.61  2022.28
                             2041.46  2054.47  2056.21  2058.02  2075.24
                             2100.61  2124.86  2176.54  2179.12  2183.28
                             2187.27  2190.32  2191.71  2198.62  2201.92
                             2213.19  2224.58  2227.98  2237.69  2377.76
                             2569.11  4359.29  4367.42  4375.68  4387.37
                             4393.58  4398.08  4400.98  4416.55  4435.06
                             4460.51  4464.66  4465.64  4467.88  4476.56
                             4479.30  4489.56  4501.39  4533.64  4543.03
                             4702.56  4725.11  4754.56  5170.48

 Zero-point correction=                           0.354376 (Hartree/Particle)
 Thermal correction to Energy=                    0.372988
 Thermal correction to Enthalpy=                  0.373932
 Thermal correction to Gibbs Free Energy=         0.305896
 Sum of electronic and zero-point Energies=           -752.257401
 Sum of electronic and thermal Energies=              -752.238789
 Sum of electronic and thermal Enthalpies=            -752.237845
 Sum of electronic and thermal Free Energies=         -752.305881

                     E (Thermal)             CV                S
                      KCal/Mol        Cal/Mol-Kelvin    Cal/Mol-Kelvin
 Total                  234.054             70.392            143.193
 Electronic               0.000              0.000              0.000
 Translational            0.889              2.981             42.292
 Rotational               0.889              2.981             33.214
 Vibrational            232.276             64.431             67.687
 Vibration     1          0.593              1.986              7.402
 Vibration     2          0.594              1.984              5.778
 Vibration     3          0.594              1.981              5.246
 Vibration     4          0.596              1.976              4.626
 Vibration     5          0.597              1.973              4.401
 Vibration     6          0.599              1.967              4.063
 Vibration     7          0.608              1.936              3.157
 Vibration     8          0.616              1.909              2.745
 Vibration     9          0.627              1.875              2.394
 Vibration    10          0.641              1.831              2.077
 Vibration    11          0.642              1.828              2.058
 Vibration    12          0.653              1.791              1.860
 Vibration    13          0.666              1.753              1.692
 Vibration    14          0.677              1.719              1.562
 Vibration    15          0.685              1.697              1.490
 Vibration    16          0.696              1.664              1.388
 Vibration    17          0.702              1.646              1.338
 Vibration    18          0.708              1.630              1.296
 Vibration    19          0.728              1.572              1.159
 Vibration    20          0.747              1.520              1.052
 Vibration    21          0.752              1.506              1.026
 Vibration    22          0.773              1.452              0.933
 Vibration    23          0.785              1.420              0.881
 Vibration    24          0.794              1.397              0.847
 Vibration    25          0.851              1.261              0.670
 Vibration    26          0.873              1.209              0.614
 Vibration    27          0.915              1.120              0.525
 Vibration    28          0.967              1.014              0.435
 Vibration    29          0.972              1.005              0.429

 Optimization completed.
    -- Stationary point found.
 Normal termination of Gaussian 16 at Fri Dec 11 12:41:44 2020.

 ----------------------------------------------------------------------
 # B3LYP/6-311++G(d,p) empiricaldispersion=gd3bj scf=xqc pop=npa geom=c
 heck
 ----------------------------------------------------------------------

 --------------------------------------
 CID_86888780_JID_7339_Energie_neutraal
 --------------------------------------
 Structure from the checkpoint file:  "JID_7339.chk"
 Charge =  0 Multiplicity = 1

 SCF Done:  E(RB3LYP) =  -752.827658197     A.U. after   15 cycles
 Normal termination of Gaussian 16 at Fri Dec 11 12:51:38 2020.

 ----------------------------------------------------------------------
 # B3LYP/6-311++G(d,p) empiricaldispersion=gd3bj scf=xqc pop=npa geom=c
 heck
 ----------------------------------------------------------------------

 ------------------------------------
 CID_86888780_JID_7339_Energie_kation
 ------------------------------------
 Structure from the checkpoint file:  "JID_7339.chk"
 Charge =  1 Multiplicity = 2

 SCF Done:  E(UB3LYP) =  -752.521048992     A.U. after   27 cycles
 Normal termination of Gaussian 16 at Fri Dec 11 13:17:01 2020.
 Gaussian 16:  ES64L-G16RevA.03 25-Dec-2016

 ----------------------------------------------------------------------
 # B3LYP/6-311++G(d,p) empiricaldispersion=gd3bj scf=xqc pop=npa geom=c
 heck
 ----------------------------------------------------------------------

 -----------------------------------
 CID_86888780_JID_7339_Energie_anion
 -----------------------------------
 Structure from the checkpoint file:  "JID_7339.chk"
 Charge = -1 Multiplicity = 2

                         Standard orientation:
 ---------------------------------------------------------------------
 Center     Atomic      Atomic             Coordinates (Angstroms)
 Number     Number       Type             X           Y           Z
 ---------------------------------------------------------------------
      1          6           0       -1.786426    0.119790    2.566096
      2          6           0       -1.266497    0.238329    1.126577
      3          6           0       -2.209756   -0.391776    0.143524
      4          6           0       -3.063929    0.094479   -0.799909
      5          6           0       -3.700416   -1.046619   -1.398763
      6          6           0       -3.185320   -2.140333   -0.776692
      7          8           0       -2.271653   -1.760629    0.169272
      8          7           0       -1.033619    1.641997    0.816195
      9          6           0       -0.280622    2.187245   -0.195284
     10          8           0       -0.133136    3.401320   -0.270996
     11          6           0        0.373114    1.248519   -1.201959
     12          6           0        1.907410    1.292068   -1.068977
     13          6           0        2.450200    0.600787    0.197853
     14          6           0        2.880940   -0.883427    0.060815
     15          6           0        4.161408   -0.976058   -0.788604
     16          6           0        3.180067   -1.422435    1.470406
     17          6           0        1.791671   -1.757221   -0.585499
     18          1           0       -2.727040    0.670453    2.679291
     19          1           0       -1.050604    0.518335    3.272383
     20          1           0       -1.975827   -0.929017    2.808025
     21          1           0       -0.314048   -0.302959    1.077694
     22          1           0       -3.214333    1.135893   -1.043530
     23          1           0       -4.437901   -1.043061   -2.188914
     24          1           0       -3.339481   -3.203450   -0.876778
     25          1           0       -1.430258    2.333522    1.440709
     26          1           0       -0.005751    0.228901   -1.127306
     27          1           0        0.085958    1.627804   -2.188658
     28          1           0        2.353893    0.847656   -1.965823
     29          1           0        2.199526    2.347138   -1.069288
     30          1           0        3.324169    1.155913    0.562234
     31          1           0        1.702631    0.683018    0.999098
     32          1           0        4.975100   -0.396751   -0.336114
     33          1           0        4.496254   -2.016586   -0.874676
     34          1           0        4.004049   -0.595908   -1.804162
     35          1           0        2.280297   -1.404191    2.097946
     36          1           0        3.539254   -2.457677    1.429541
     37          1           0        3.948492   -0.819442    1.969060
     38          1           0        0.858732   -1.747526   -0.010212
     39          1           0        1.561970   -1.432073   -1.605666
     40          1           0        2.127496   -2.799589   -0.641936
 ---------------------------------------------------------------------

 SCF Done:  E(UB3LYP) =  -752.816330972     A.U. after   33 cycles
 SCF Done:  E(UB3LYP) =  -752.816330972     a.u. after    1 cycles

 The electronic state is 2-A.
 Alpha  occ. eigenvalues --  -19.10079 -18.99729 -14.25049 -10.18369 -10.14468
 Alpha  occ. eigenvalues --  -10.13846 -10.13236 -10.09336 -10.08554 -10.08523
 Alpha  occ. eigenvalues --  -10.08408 -10.08350 -10.08127 -10.07472 -10.06806
 Alpha  occ. eigenvalues --  -10.06507 -10.06421  -1.02420  -0.94933  -0.84296
 Alpha  occ. eigenvalues --   -0.74071  -0.71455  -0.70448  -0.69085  -0.64376
 Alpha  occ. eigenvalues --   -0.61059  -0.59620  -0.59410  -0.56096  -0.53468
 Alpha  occ. eigenvalues --   -0.51768  -0.48358  -0.47022  -0.45173  -0.43933
 Alpha  occ. eigenvalues --   -0.41374  -0.39638  -0.38435  -0.37667  -0.36602
 Alpha  occ. eigenvalues --   -0.36209  -0.35238  -0.34574  -0.33391  -0.32854
 Alpha  occ. eigenvalues --   -0.32000  -0.31819  -0.31227  -0.30364  -0.30033
 Alpha  occ. eigenvalues --   -0.29453  -0.29026  -0.28803  -0.28125  -0.27438
 Alpha  occ. eigenvalues --   -0.27330  -0.26215  -0.25089  -0.22886  -0.22640
 Alpha  occ. eigenvalues --   -0.22057  -0.19720  -0.17443  -0.16848  -0.14129
 Alpha  occ. eigenvalues --    0.03962
 Alpha virt. eigenvalues --    0.05885   0.06183   0.07064   0.07725   0.08021
 Alpha virt. eigenvalues --    0.08170   0.08664   0.09062   0.09397   0.09765
 Alpha virt. eigenvalues --    0.10336   0.10457   0.10564   0.11070   0.11840

  Beta  occ. eigenvalues --  -19.10059 -18.99723 -14.25042 -10.18363 -10.14461
  Beta  occ. eigenvalues --  -10.13841 -10.13202 -10.09334 -10.08548 -10.08518
  Beta  occ. eigenvalues --  -10.08363 -10.08333 -10.08120 -10.07459 -10.06783
  Beta  occ. eigenvalues --  -10.06486 -10.06392  -1.02386  -0.94920  -0.84278
  Beta  occ. eigenvalues --   -0.74056  -0.71423  -0.70415  -0.69065  -0.64325
  Beta  occ. eigenvalues --   -0.61032  -0.59573  -0.59365  -0.56028  -0.53434
  Beta  occ. eigenvalues --   -0.51741  -0.48326  -0.46977  -0.45132  -0.43886
  Beta  occ. eigenvalues --   -0.41351  -0.39608  -0.38388  -0.37626  -0.36567
  Beta  occ. eigenvalues --   -0.36166  -0.35211  -0.34545  -0.33356  -0.32830
  Beta  occ. eigenvalues --   -0.31972  -0.31787  -0.31196  -0.30335  -0.29991
  Beta  occ. eigenvalues --   -0.29418  -0.29003  -0.28777  -0.28099  -0.27413
  Beta  occ. eigenvalues --   -0.27299  -0.26187  -0.25068  -0.22864  -0.22614
  Beta  occ. eigenvalues --   -0.22036  -0.19652  -0.17422  -0.16838  -0.14043
  Beta virt. eigenvalues --    0.05913   0.06586   0.06905   0.07543   0.08086
  Beta virt. eigenvalues --    0.08264   0.08549   0.08907   0.09485   0.09674
  Beta virt. eigenvalues --    0.10028   0.10533   0.10601   0.10790   0.11270

 Mulliken charges and spin densities:
               1          2
     1  C    1.135072  -1.926504
     2  C   -0.833451   0.360507
     3  C   -0.012674  -0.033296
     4  C   -0.851392   1.063562
     5  C    0.685398  -1.172380
     6  C   -0.020142   0.099234
     7  O    0.033417   0.030768
     8  N   -0.070943  -0.005785
     9  C   -0.494765   0.281699
    10  O   -0.313057   0.001328
    11  C   -0.259795   0.359582
    12  C    0.182827  -0.844806
    13  C   -0.143399  -0.002778
    14  C   -0.244413   0.808585
    15  C    0.024224  -0.590802
    16  C    0.360667  -0.909975
    17  C   -0.120382  -0.563389
    18  H   -0.178879   0.324372
    19  H   -0.286859   0.464407
    20  H   -0.239054   0.441319
    21  H    1.565139  -1.348503
    22  H    0.010938   0.177099
    23  H   -0.470318   0.643935
    24  H   -0.705883   0.889616
    25  H    0.228600   0.099370
    26  H    0.660910  -0.544600
    27  H   -0.011139   0.232374
    28  H    0.124241   0.007423
    29  H    0.237736  -0.025220
    30  H    0.060756   0.118803
    31  H    0.086427   0.118111
    32  H   -0.026031   0.162586
    33  H   -0.111264   0.253035
    34  H   -0.035815   0.160733
    35  H   -0.366158   0.502696
    36  H   -0.106007   0.250814
    37  H   -0.091575   0.229152
    38  H   -0.269454   0.418349
    39  H   -0.068350   0.234360
    40  H   -0.065153   0.234220
 Sum of Mulliken charges =  -1.00000   1.00000

 Dipole moment (field-independent basis, Debye):
    X=              1.0745    Y=              2.4083    Z=             -1.6648  Tot=              3.1187
 Quadrupole moment (field-independent basis, Debye-Ang):
   XX=           -179.3009   YY=           -167.7044   ZZ=           -153.3398
   XY=             -4.2505   XZ=             -4.2767   YZ=              1.0551

 Summary of Natural Population Analysis:

                                       Natural Population
                Natural  -----------------------------------------------
    Atom  No    Charge         Core      Valence    Rydberg      Total
 -----------------------------------------------------------------------
      C    1   -0.28068      0.99964     2.27513    0.00590     3.28068
      C    2   -0.03879      0.99954     2.02688    0.01237     3.03879
      C    3    0.14894      0.99944     1.83495    0.01667     2.85106
      C    4   -0.14765      0.99948     2.13984    0.00833     3.14765
      C    5   -0.15058      0.99957     2.14184    0.00917     3.15058
      C    6    0.06394      0.99950     1.92243    0.01413     2.93606
      O    7   -0.23641      0.99986     3.22789    0.00866     4.23641
      N    8   -0.31904      0.99966     2.80937    0.01001     3.81904
      C    9    0.35161      0.99967     1.62648    0.02225     2.64839
      O   10   -0.32695      0.99988     3.32139    0.00568     4.32695
      C   11   -0.23422      0.99957     2.22671    0.00794     3.23422
      C   12   -0.18962      0.99962     2.18222    0.00778     3.18962
      C   13   -0.19013      0.99958     2.18063    0.00992     3.19013
      C   14   -0.04927      0.99959     2.03806    0.01162     3.04927
      C   15   -0.28337      0.99962     2.27775    0.00600     3.28337
      C   16   -0.28271      0.99962     2.27548    0.00760     3.28271
      C   17   -0.28704      0.99962     2.27971    0.00771     3.28704
      H   18    0.10013      0.00000     0.39858    0.00130     0.39987
      H   19    0.10450      0.00000     0.39398    0.00152     0.39550
      H   20    0.11120      0.00000     0.38753    0.00127     0.38880
      H   21    0.10671      0.00000     0.38964    0.00365     0.39329
      H   22    0.11267      0.00000     0.38634    0.00099     0.38733
      H   23    0.10950      0.00000     0.38943    0.00108     0.39050
      H   24    0.09782      0.00000     0.40051    0.00167     0.40218
      H   25    0.19521      0.00000     0.30258    0.00221     0.30479
      H   26    0.10604      0.00000     0.39200    0.00195     0.39396
      H   27    0.11245      0.00000     0.38651    0.00104     0.38755
      H   28    0.09817      0.00000     0.40073    0.00110     0.40183
      H   29    0.10571      0.00000     0.39314    0.00115     0.39429
      H   30    0.09979      0.00000     0.39926    0.00095     0.40021
      H   31    0.09671      0.00000     0.40125    0.00204     0.40329
      H   32    0.09831      0.00000     0.40077    0.00092     0.40169
      H   33    0.09998      0.00000     0.39908    0.00093     0.40002
      H   34    0.09805      0.00000     0.40091    0.00104     0.40195
      H   35    0.10099      0.00000     0.39758    0.00142     0.39901
      H   36    0.09953      0.00000     0.39953    0.00095     0.40047
      H   37    0.09860      0.00000     0.40043    0.00097     0.40140
      H   38    0.09945      0.00000     0.39877    0.00178     0.40055
      H   39    0.09879      0.00000     0.40014    0.00107     0.40121
      H   40    0.10166      0.00000     0.39736    0.00098     0.39834
 =======================================================================
   * Total *    0.00000     16.99346    47.80281    0.20373    65.00000

 Normal termination of Gaussian 16 at Fri Dec 11 13:48:43 2020.
