 Gaussian 16, Revision A.03,

 -----------------------------------------------------------
 # opt freq B3LYP/6-31G(d) empiricaldispersion=gd3bj scf=xqc
 -----------------------------------------------------------

 --------------------------
 CID_78374_JID_209_neutraal
 --------------------------
 Symbolic Z-matrix:
 Charge =  0 Multiplicity = 1

 SCF Done:  E(RB3LYP) =  -474.946127858     A.U. after   15 cycles
 SCF Done:  E(RB3LYP) =  -474.947487674     A.U. after   12 cycles
 SCF Done:  E(RB3LYP) =  -474.947544639     A.U. after   10 cycles
 SCF Done:  E(RB3LYP) =  -474.947549546     A.U. after    9 cycles
 Optimization completed.
    -- Stationary point found.
 Normal termination of Gaussian 16 at Tue Dec  8 10:17:09 2020.

 --------------------------------------------------------------------
 #N Geom=AllCheck Guess=TCheck SCRF=Check GenChk RB3LYP/6-31G(d) Freq
 --------------------------------------------------------------------

 Structure from the checkpoint file:  "JID_209.chk"
 --------------------------
 CID_78374_JID_209_neutraal
 --------------------------
 Charge =  0 Multiplicity = 1

 SCF Done:  E(RB3LYP) =  -474.947549546     A.U. after    1 cycles

  Exact polarizability: 117.835  10.017  94.974   0.003   0.003  30.226
 Approx polarizability: 200.365  19.307 163.774   0.004   0.007  45.600

                      1                      2                      3
                      A                      A                      A
 Frequencies --    125.3229               140.8699               162.5061
 Red. masses --      6.2305                10.2844                 6.2280
 Frc consts  --      0.0577                 0.1202                 0.0969
 IR Inten    --      0.4421                 2.1527                 0.1087

                      4                      5                      6
                      A                      A                      A
 Frequencies --    311.7092               328.7561               332.2306
 Red. masses --      1.1055                 5.8041                 1.1056
 Frc consts  --      0.0633                 0.3696                 0.0719
 IR Inten    --     85.0691                 0.2569               160.6119

                      7                      8                      9
                      A                      A                      A
 Frequencies --    363.0489               406.1165               413.6136
 Red. masses --      7.2704                 4.4346                 5.3834
 Frc consts  --      0.5646                 0.4309                 0.5426
 IR Inten    --      0.7310                 1.5445                16.2027

                     10                     11                     12
                      A                      A                      A
 Frequencies --    455.1177               501.6668               516.6305
 Red. masses --     10.3850                 3.4388                 8.3517
 Frc consts  --      1.2674                 0.5099                 1.3134
 IR Inten    --      2.0274                 8.2424                 2.9055

                     13                     14                     15
                      A                      A                      A
 Frequencies --    609.5429               620.2665               722.9341
 Red. masses --      4.9838                 4.2414                 4.6615
 Frc consts  --      1.0910                 0.9614                 1.4354
 IR Inten    --      8.1060                 1.6686                 0.0158

                     16                     17                     18
                      A                      A                      A
 Frequencies --    728.7660               805.7653               806.6283
 Red. masses --      7.4462                 1.5852                 5.8964
 Frc consts  --      2.3300                 0.6064                 2.2604
 IR Inten    --      5.4056                38.5198                42.6451

                     19                     20                     21
                      A                      A                      A
 Frequencies --    890.2913               906.2248               972.0764
 Red. masses --      1.3866                 1.3224                 4.2001
 Frc consts  --      0.6475                 0.6398                 2.3384
 IR Inten    --      9.5151                 5.1130                11.7753

                     22                     23                     24
                      A                      A                      A
 Frequencies --   1127.2745              1188.6151              1206.8856
 Red. masses --      2.3170                 1.4289                 1.2674
 Frc consts  --      1.7348                 1.1894                 1.0877
 IR Inten    --      5.0669                60.0633               155.2042

                     25                     26                     27
                      A                      A                      A
 Frequencies --   1223.1860              1298.4311              1339.7062
 Red. masses --      1.5132                 2.1364                 6.1624
 Frc consts  --      1.3339                 2.1222                 6.5166
 IR Inten    --     66.2012                 8.5809                59.3373

                     28                     29                     30
                      A                      A                      A
 Frequencies --   1342.4369              1383.2984              1509.3429
 Red. masses --      1.8191                 3.4813                 3.1603
 Frc consts  --      1.9315                 3.9249                 4.2418
 IR Inten    --    224.2542                32.7126                13.3354

                     31                     32                     33
                      A                      A                      A
 Frequencies --   1559.4409              1654.3352              1686.2611
 Red. masses --      3.0974                 6.2417                 6.2954
 Frc consts  --      4.4380                10.0646                10.5469
 IR Inten    --    188.7422                28.3220                 0.0340

                     34                     35                     36
                      A                      A                      A
 Frequencies --   2354.6781              3175.4257              3191.0110
 Red. masses --     12.6776                 1.0873                 1.0947
 Frc consts  --     41.4142                 6.4594                 6.5673
 IR Inten    --     27.3016                15.5521                10.9966

                     37                     38                     39
                      A                      A                      A
 Frequencies --   3236.7212              3757.1175              3758.4567
 Red. masses --      1.0920                 1.0660                 1.0662
 Frc consts  --      6.7405                 8.8660                 8.8738
 IR Inten    --      0.4947                64.6359                45.4877

 - Thermochemistry -
 -------------------
 Temperature   298.150 Kelvin.  Pressure   1.00000 Atm.
 Atom     1 has atomic number  6 and mass  12.00000

 Molecular mass:   135.03203 amu.
 Principal axes and moments of inertia in atomic units:
                           1         2         3
     Eigenvalues --   783.392411673.147752456.54013
           X            0.99997  -0.00820   0.00001
           Y            0.00820   0.99997   0.00001
           Z           -0.00001  -0.00001   1.00000
 This molecule is an asymmetric top.
 Rotational symmetry number  1.
 Warning -- assumption of classical behavior for rotation
           may cause significant error
 Rotational temperatures (Kelvin)      0.11056     0.05177     0.03526
 Rotational constants (GHZ):           2.30375     1.07865     0.73467
 Zero-point vibrational energy     281796.6 (Joules/Mol)
                                   67.35100 (Kcal/Mol)
 Warning -- explicit consideration of  14 degrees of freedom as
           vibrations may cause significant error
 Vibrational temperatures:    180.31   202.68   233.81   448.48   473.01
          (Kelvin)            478.01   522.35   584.31   595.10   654.81
                              721.79   743.32   877.00   892.43  1040.14
                             1048.53  1159.32  1160.56  1280.93  1303.86
                             1398.60  1621.90  1710.15  1736.44  1759.89
                             1868.15  1927.54  1931.47  1990.26  2171.61
                             2243.69  2380.22  2426.15  3387.86  4568.73
                             4591.15  4656.92  5405.65  5407.58

 Zero-point correction=                           0.107331 (Hartree/Particle)
 Thermal correction to Energy=                    0.115881
 Thermal correction to Enthalpy=                  0.116825
 Thermal correction to Gibbs Free Energy=         0.074121
 Sum of electronic and zero-point Energies=           -474.840219
 Sum of electronic and thermal Energies=              -474.831668
 Sum of electronic and thermal Enthalpies=            -474.830724
 Sum of electronic and thermal Free Energies=         -474.873428

                     E (Thermal)             CV                S
                      KCal/Mol        Cal/Mol-Kelvin    Cal/Mol-Kelvin
 Total                   72.716             32.680             89.878
 Electronic               0.000              0.000              0.000
 Translational            0.889              2.981             40.613
 Rotational               0.889              2.981             29.555
 Vibrational             70.939             26.719             19.709
 Vibration     1          0.610              1.928              3.017
 Vibration     2          0.615              1.912              2.792
 Vibration     3          0.623              1.888              2.520
 Vibration     4          0.700              1.651              1.353
 Vibration     5          0.712              1.618              1.266
 Vibration     6          0.714              1.611              1.249
 Vibration     7          0.737              1.548              1.109
 Vibration     8          0.771              1.457              0.940
 Vibration     9          0.777              1.441              0.914
 Vibration    10          0.813              1.350              0.780
 Vibration    11          0.857              1.246              0.654
 Vibration    12          0.872              1.213              0.618
 Vibration    13          0.969              1.012              0.434
 Vibration    14          0.980              0.989              0.416

                           ! Non-Optimized Parameters !
 Normal termination of Gaussian 16 at Tue Dec  8 10:19:20 2020.

 ----------------------------------------------------------------------
 # B3LYP/6-311++G(d,p) empiricaldispersion=gd3bj scf=xqc pop=npa geom=c
 heck
 ----------------------------------------------------------------------

 ----------------------------------
 CID_78374_JID_209_Energie_neutraal
 ----------------------------------
 Structure from the checkpoint file:  "JID_209.chk"
 Charge =  0 Multiplicity = 1

 SCF Done:  E(RB3LYP) =  -475.094673419     A.U. after   15 cycles
 Normal termination of Gaussian 16 at Tue Dec  8 10:20:02 2020.

 ----------------------------------------------------------------------
 # B3LYP/6-311++G(d,p) empiricaldispersion=gd3bj scf=xqc pop=npa geom=c
 heck
 ----------------------------------------------------------------------

 --------------------------------
 CID_78374_JID_209_Energie_kation
 --------------------------------
 Structure from the checkpoint file:  "JID_209.chk"
 Charge =  1 Multiplicity = 2

 SCF Done:  E(UB3LYP) =  -474.782211876     A.U. after   21 cycles
 Normal termination of Gaussian 16 at Tue Dec  8 10:21:43 2020.
 Gaussian 16:  ES64L-G16RevA.03 25-Dec-2016

 ----------------------------------------------------------------------
 # B3LYP/6-311++G(d,p) empiricaldispersion=gd3bj scf=xqc pop=npa geom=c
 heck
 ----------------------------------------------------------------------

 -------------------------------
 CID_78374_JID_209_Energie_anion
 -------------------------------
 Structure from the checkpoint file:  "JID_209.chk"
 Charge = -1 Multiplicity = 2

                         Standard orientation:
 ---------------------------------------------------------------------
 Center     Atomic      Atomic             Coordinates (Angstroms)
 Number     Number       Type             X           Y           Z
 ---------------------------------------------------------------------
      1          6           0        1.723380    0.992322    0.000013
      2          6           0        0.518014    1.691836    0.000020
      3          6           0       -0.698845    1.010643   -0.000013
      4          6           0       -0.692113   -0.398848   -0.000034
      5          6           0        0.521951   -1.098086   -0.000017
      6          6           0        1.731327   -0.405758    0.000003
      7          8           0        2.881037   -1.146618   -0.000182
      8          6           0       -1.926580   -1.120709    0.000018
      9          7           0       -2.917211   -1.729698    0.000092
     10          8           0       -1.909194    1.633553   -0.000167
     11          1           0        2.661748    1.542387   -0.000036
     12          1           0        0.526325    2.779186   -0.000013
     13          1           0        0.524750   -2.181747    0.000019
     14          1           0        3.644664   -0.549548    0.001374
     15          1           0       -1.774555    2.593732    0.000871
 ---------------------------------------------------------------------

 SCF Done:  E(UB3LYP) =  -475.095694757     A.U. after   33 cycles
 SCF Done:  E(UB3LYP) =  -475.098058432     a.u. after   15 cycles

 The electronic state is 2-A.
 Alpha  occ. eigenvalues --  -19.03906 -19.03303 -14.16440 -10.11362 -10.10504
 Alpha  occ. eigenvalues --  -10.06730 -10.06365 -10.04691 -10.04203 -10.04163
 Alpha  occ. eigenvalues --   -0.95069  -0.94227  -0.76669  -0.72759  -0.64214
 Alpha  occ. eigenvalues --   -0.61597  -0.52406  -0.50712  -0.45239  -0.42662
 Alpha  occ. eigenvalues --   -0.38098  -0.35060  -0.31554  -0.30581  -0.30243
 Alpha  occ. eigenvalues --   -0.29439  -0.27783  -0.24913  -0.23688  -0.23027
 Alpha  occ. eigenvalues --   -0.22176  -0.19559  -0.18838  -0.13453  -0.09096
 Alpha  occ. eigenvalues --    0.04485
 Alpha virt. eigenvalues --    0.06874   0.07056   0.09767   0.11380   0.12389
 Alpha virt. eigenvalues --    0.12542   0.15242   0.15959   0.16208   0.16246
 Alpha virt. eigenvalues --    0.17373   0.17566   0.18328   0.18750   0.19427

  Beta  occ. eigenvalues --  -19.03888 -19.03294 -14.16248 -10.11372 -10.10584
  Beta  occ. eigenvalues --  -10.06730 -10.06188 -10.04595 -10.03977 -10.03887
  Beta  occ. eigenvalues --   -0.95028  -0.94210  -0.76374  -0.72444  -0.63719
  Beta  occ. eigenvalues --   -0.61336  -0.51876  -0.50599  -0.45056  -0.42462
  Beta  occ. eigenvalues --   -0.37990  -0.34846  -0.31392  -0.30206  -0.30053
  Beta  occ. eigenvalues --   -0.29346  -0.27715  -0.24806  -0.23452  -0.22290
  Beta  occ. eigenvalues --   -0.21955  -0.19443  -0.18184  -0.12007  -0.08418
  Beta virt. eigenvalues --    0.07538   0.08080   0.09310   0.10377   0.11415
  Beta virt. eigenvalues --    0.12578   0.13053   0.15328   0.16050   0.16163
  Beta virt. eigenvalues --    0.16309   0.17650   0.17867   0.18401   0.18704

 Mulliken charges and spin densities:
               1          2
     1  C    0.683812  -0.162142
     2  C   -0.143890  -0.009003
     3  C   -0.765114   0.078424
     4  C    1.771910  -0.105798
     5  C   -0.228309   0.179252
     6  C   -0.197129  -0.428242
     7  O   -0.285068   0.023077
     8  C   -0.340078  -0.494434
     9  N   -0.329599   0.100940
    10  O   -0.262684   0.021156
    11  H   -0.567315   0.674536
    12  H   -0.528367   0.637256
    13  H    0.151287  -0.001004
    14  H   -0.041772   0.305443
    15  H    0.082318   0.180538
 Sum of Mulliken charges =  -1.00000   1.00000

 Dipole moment (field-independent basis, Debye):
    X=              0.9861    Y=              0.6746    Z=              0.1327  Tot=              1.2022
 Quadrupole moment (field-independent basis, Debye-Ang):
   XX=           -106.6967   YY=            -84.7716   ZZ=            -70.0005
   XY=            -12.4931   XZ=              2.2256   YZ=             -0.2413

 Summary of Natural Population Analysis:

                                       Natural Population
                Natural  -----------------------------------------------
    Atom  No    Charge         Core      Valence    Rydberg      Total
 -----------------------------------------------------------------------
      C    1   -0.07656      0.99953     2.06657    0.01046     3.07656
      C    2   -0.12495      0.99953     2.11507    0.01034     3.12495
      C    3    0.16501      0.99937     1.82261    0.01302     2.83499
      C    4   -0.08565      0.99939     2.07798    0.00827     3.08565
      C    5   -0.05670      0.99951     2.04726    0.00993     3.05670
      C    6    0.12844      0.99937     1.85918    0.01301     2.87156
      O    7   -0.34943      0.99988     3.34280    0.00676     4.34943
      C    8    0.15556      0.99964     1.82550    0.01930     2.84444
      N    9   -0.17548      0.99978     2.66509    0.01061     3.67548
      O   10   -0.33981      0.99987     3.33357    0.00636     4.33981
      H   11    0.09508      0.00000     0.40265    0.00227     0.40492
      H   12    0.09633      0.00000     0.40187    0.00180     0.40367
      H   13    0.10198      0.00000     0.39712    0.00089     0.39802
      H   14    0.23348      0.00000     0.26301    0.00351     0.26652
      H   15    0.23270      0.00000     0.26439    0.00290     0.26730
 =======================================================================
   * Total *    0.00000      9.99588    24.88468    0.11945    35.00000

 Normal termination of Gaussian 16 at Tue Dec  8 10:52:07 2020.
