 Gaussian 16, Revision A.03,

 -----------------------------------------------------------
 # opt freq B3LYP/6-31G(d) empiricaldispersion=gd3bj scf=xqc
 -----------------------------------------------------------

 -------------------------------
 CID_75416631_JID_10547_neutraal
 -------------------------------
 Symbolic Z-matrix:
 Charge =  0 Multiplicity = 1

 SCF Done:  E(RB3LYP) =  -1277.79752931     A.U. after   15 cycles
 SCF Done:  E(RB3LYP) =  -1277.80585417     A.U. after   14 cycles
 SCF Done:  E(RB3LYP) =  -1277.80080299     A.U. after   15 cycles
 SCF Done:  E(RB3LYP) =  -1277.80687832     A.U. after   13 cycles
 SCF Done:  E(RB3LYP) =  -1277.80849318     A.U. after   14 cycles
 SCF Done:  E(RB3LYP) =  -1277.81037238     A.U. after   13 cycles
 SCF Done:  E(RB3LYP) =  -1277.81111562     A.U. after   13 cycles
 SCF Done:  E(RB3LYP) =  -1277.81118650     A.U. after   14 cycles
 SCF Done:  E(RB3LYP) =  -1277.81151136     A.U. after   13 cycles
 SCF Done:  E(RB3LYP) =  -1277.81177493     A.U. after   13 cycles
 SCF Done:  E(RB3LYP) =  -1277.81252997     A.U. after   10 cycles
 SCF Done:  E(RB3LYP) =  -1277.81253656     A.U. after   10 cycles
 SCF Done:  E(RB3LYP) =  -1277.81253733     A.U. after    8 cycles
 SCF Done:  E(RB3LYP) =  -1277.81253757     A.U. after    8 cycles
 Optimization completed.
    -- Stationary point found.
 Normal termination of Gaussian 16 at Sun Dec 13 13:18:28 2020.

 --------------------------------------------------------------------
 #N Geom=AllCheck Guess=TCheck SCRF=Check GenChk RB3LYP/6-31G(d) Freq
 --------------------------------------------------------------------

 Structure from the checkpoint file:  "JID_10547.chk"
 -------------------------------
 CID_75416631_JID_10547_neutraal
 -------------------------------
 Charge =  0 Multiplicity = 1

 SCF Done:  E(RB3LYP) =  -1277.81253757     A.U. after    1 cycles

  Exact polarizability: 190.928  -3.711 146.990   8.643  -6.304 173.426
 Approx polarizability: 269.165  -5.018 210.794  25.788 -20.101 318.992

                      1                      2                      3
                      A                      A                      A
 Frequencies --     27.2071                28.5118                51.0452
 Red. masses --      7.2897                 6.3131                 9.0195
 Frc consts  --      0.0032                 0.0030                 0.0138
 IR Inten    --      0.1161                 0.5866                 0.6975

                      4                      5                      6
                      A                      A                      A
 Frequencies --     52.4559                59.7904                87.0544
 Red. masses --      4.3492                 5.3844                 2.6850
 Frc consts  --      0.0071                 0.0113                 0.0120
 IR Inten    --      0.3155                 0.7791                 2.6001

                      7                      8                      9
                      A                      A                      A
 Frequencies --     91.1294               103.6517               108.7510
 Red. masses --      5.8105                 5.2695                 2.2298
 Frc consts  --      0.0284                 0.0334                 0.0155
 IR Inten    --      0.6272                 4.9945                 0.2688

                     10                     11                     12
                      A                      A                      A
 Frequencies --    120.4631               152.8358               205.3008
 Red. masses --      3.9336                 4.9856                 4.5860
 Frc consts  --      0.0336                 0.0686                 0.1139
 IR Inten    --      5.8022                 2.0544                 1.9158

                     13                     14                     15
                      A                      A                      A
 Frequencies --    246.5780               256.2021               258.6010
 Red. masses --      2.7047                 1.2141                 3.4244
 Frc consts  --      0.0969                 0.0470                 0.1349
 IR Inten    --      0.4223                 0.7471                 0.8407

                     16                     17                     18
                      A                      A                      A
 Frequencies --    267.0953               280.6069               320.3948
 Red. masses --      2.2618                 1.8007                 3.3639
 Frc consts  --      0.0951                 0.0835                 0.2035
 IR Inten    --      2.3249                 0.8522                 1.2875

                     19                     20                     21
                      A                      A                      A
 Frequencies --    341.4801               361.1990               377.8233
 Red. masses --      4.1901                 4.7457                 2.1297
 Frc consts  --      0.2879                 0.3648                 0.1791
 IR Inten    --      2.8998                10.5936                 0.6023

                     22                     23                     24
                      A                      A                      A
 Frequencies --    440.5501               460.7632               475.2673
 Red. masses --      3.2894                 5.0230                 5.0870
 Frc consts  --      0.3762                 0.6283                 0.6770
 IR Inten    --      2.5914                 2.8878                 9.7039

                     25                     26                     27
                      A                      A                      A
 Frequencies --    516.1500               553.2902               566.7756
 Red. masses --      4.3769                 3.2146                 3.3192
 Frc consts  --      0.6870                 0.5798                 0.6282
 IR Inten    --      3.6167                 9.8114                 4.3554

                     28                     29                     30
                      A                      A                      A
 Frequencies --    576.2926               578.8010               600.0304
 Red. masses --      3.9127                 3.1569                 1.9623
 Frc consts  --      0.7656                 0.6231                 0.4163
 IR Inten    --      2.2694                 4.7843                73.4762

                     31                     32                     33
                      A                      A                      A
 Frequencies --    617.5241               646.1427               657.1895
 Red. masses --      2.0942                 7.4838                 4.7247
 Frc consts  --      0.4705                 1.8409                 1.2023
 IR Inten    --     41.5120                 9.7300                10.8250

                     34                     35                     36
                      A                      A                      A
 Frequencies --    676.6721               694.8085               724.0439
 Red. masses --      6.1860                 1.3189                 3.4139
 Frc consts  --      1.6688                 0.3751                 1.0545
 IR Inten    --     33.9987                19.0063                29.3872

                     37                     38                     39
                      A                      A                      A
 Frequencies --    729.4857               760.8492               798.4198
 Red. masses --      3.1076                 3.8886                 2.3871
 Frc consts  --      0.9743                 1.3263                 0.8966
 IR Inten    --      9.0003                 1.8918                 4.6699

                     40                     41                     42
                      A                      A                      A
 Frequencies --    816.5074               837.1329               839.9345
 Red. masses --      2.0244                 2.2602                 1.6181
 Frc consts  --      0.7952                 0.9332                 0.6726
 IR Inten    --     14.7753                21.5167                16.7256

                     43                     44                     45
                      A                      A                      A
 Frequencies --    858.9715               878.9583               891.6923
 Red. masses --      3.6928                 2.7407                 1.3181
 Frc consts  --      1.6053                 1.2475                 0.6175
 IR Inten    --     22.5931                 5.0903                 1.2582

                     46                     47                     48
                      A                      A                      A
 Frequencies --    919.2281               959.7139               968.2623
 Red. masses --      2.0447                 2.3185                 2.8772
 Frc consts  --      1.0180                 1.2582                 1.5893
 IR Inten    --      5.6519                 8.8546                 8.8299

                     49                     50                     51
                      A                      A                      A
 Frequencies --    999.0128              1011.4365              1028.3559
 Red. masses --      1.8878                 3.2369                 2.1123
 Frc consts  --      1.1100                 1.9510                 1.3161
 IR Inten    --     17.3942                 3.4908                 1.6086

                     52                     53                     54
                      A                      A                      A
 Frequencies --   1037.1728              1063.1294              1086.5589
 Red. masses --      2.2776                 1.9139                 2.0270
 Frc consts  --      1.4436                 1.2745                 1.4100
 IR Inten    --      0.5431                21.7208                 3.6239

                     55                     56                     57
                      A                      A                      A
 Frequencies --   1097.7627              1120.3740              1141.9047
 Red. masses --      1.5452                 1.1290                 2.8537
 Frc consts  --      1.0971                 0.8350                 2.1924
 IR Inten    --      4.0158                 5.2941                57.9110

                     58                     59                     60
                      A                      A                      A
 Frequencies --   1144.8329              1176.0467              1198.7241
 Red. masses --      2.6770                 1.2506                 2.3038
 Frc consts  --      2.0672                 1.0191                 1.9505
 IR Inten    --     10.9783                 3.7420                11.9796

                     61                     62                     63
                      A                      A                      A
 Frequencies --   1209.1465              1234.3046              1254.3068
 Red. masses --      1.8681                 1.4313                 2.3584
 Frc consts  --      1.6092                 1.2848                 2.1861
 IR Inten    --     20.5856                 4.6182                91.5178

                     64                     65                     66
                      A                      A                      A
 Frequencies --   1257.5728              1293.0686              1294.9230
 Red. masses --      1.4076                 1.3241                 1.7707
 Frc consts  --      1.3116                 1.3044                 1.7493
 IR Inten    --     41.5689                 7.3278                29.9361

                     67                     68                     69
                      A                      A                      A
 Frequencies --   1321.1543              1329.6491              1336.2929
 Red. masses --      1.4839                 1.6231                 1.4426
 Frc consts  --      1.5260                 1.6908                 1.5177
 IR Inten    --      1.7676                 9.4096                 9.0165

                     70                     71                     72
                      A                      A                      A
 Frequencies --   1376.0026              1381.0628              1394.4897
 Red. masses --      2.1036                 1.5960                 1.3796
 Frc consts  --      2.3467                 1.7936                 1.5806
 IR Inten    --    135.8357                74.5173                59.4819

                     73                     74                     75
                      A                      A                      A
 Frequencies --   1404.3515              1438.0038              1440.7400
 Red. masses --      2.3190                 1.8251                 1.3008
 Frc consts  --      2.6946                 2.2236                 1.5908
 IR Inten    --     92.8396                68.9226                18.0372

                     76                     77                     78
                      A                      A                      A
 Frequencies --   1443.4613              1446.1473              1469.7698
 Red. masses --      2.8302                 1.2495                 5.6963
 Frc consts  --      3.4744                 1.5396                 7.2501
 IR Inten    --      3.2345                22.0920                10.7715

                     79                     80                     81
                      A                      A                      A
 Frequencies --   1485.2015              1506.1142              1508.3864
 Red. masses --      1.0741                 1.1317                 1.4104
 Frc consts  --      1.3959                 1.5126                 1.8907
 IR Inten    --      0.1274                25.6174                44.7556

                     82                     83                     84
                      A                      A                      A
 Frequencies --   1512.4198              1521.1686              1526.9569
 Red. masses --      1.1007                 1.0746                 1.0622
 Frc consts  --      1.4834                 1.4650                 1.4592
 IR Inten    --      6.5916                 8.1053                 5.9935

                     85                     86                     87
                      A                      A                      A
 Frequencies --   1527.3851              1535.1150              1595.6881
 Red. masses --      1.0473                 1.1148                 5.6870
 Frc consts  --      1.4396                 1.5478                 8.5316
 IR Inten    --      6.7235                 6.1918                 0.4659

                     88                     89                     90
                      A                      A                      A
 Frequencies --   1784.1729              1800.1144              1865.1365
 Red. masses --      8.0576                12.1410                12.2742
 Frc consts  --     15.1123                23.1795                25.1573
 IR Inten    --    266.0689               599.3789                27.6551

                     91                     92                     93
                      A                      A                      A
 Frequencies --   3053.2888              3066.6636              3082.0521
 Red. masses --      1.0366                 1.0679                 1.0365
 Frc consts  --      5.6938                 5.9170                 5.8010
 IR Inten    --     17.0197                22.4843                12.9619

                     94                     95                     96
                      A                      A                      A
 Frequencies --   3088.2306              3093.7538              3112.5650
 Red. masses --      1.0606                 1.0637                 1.0854
 Frc consts  --      5.9596                 5.9984                 6.1953
 IR Inten    --     11.1852                 1.2407                 1.4410

                     97                     98                     99
                      A                      A                      A
 Frequencies --   3117.6993              3124.8867              3134.6202
 Red. masses --      1.0983                 1.1046                 1.0991
 Frc consts  --      6.2900                 6.3551                 6.3631
 IR Inten    --     12.7980                 0.5117                22.0858

                    100                    101                    102
                      A                      A                      A
 Frequencies --   3135.4572              3139.6196              3142.5628
 Red. masses --      1.0960                 1.1018                 1.0903
 Frc consts  --      6.3486                 6.3988                 6.3440
 IR Inten    --     31.3610                 2.8598                17.3073

                    103                    104                    105
                      A                      A                      A
 Frequencies --   3151.0283              3179.6681              3214.1060
 Red. masses --      1.1036                 1.1012                 1.0911
 Frc consts  --      6.4561                 6.5599                 6.6410
 IR Inten    --     12.9959                11.5955                 5.6053

                    106                    107                    108
                      A                      A                      A
 Frequencies --   3261.2709              3273.0072              3578.8701
 Red. masses --      1.0945                 1.0967                 1.0750
 Frc consts  --      6.8586                 6.9219                 8.1127
 IR Inten    --      3.0672                 1.0951                16.2832

 - Thermochemistry -
 -------------------
 Temperature   298.150 Kelvin.  Pressure   1.00000 Atm.
 Atom     1 has atomic number  6 and mass  12.00000

 Molecular mass:   294.10381 amu.
 Principal axes and moments of inertia in atomic units:
                           1         2         3
     Eigenvalues --  3789.944218101.357788487.75839
           X            0.99991   0.00578  -0.01217
           Y           -0.00645   0.99840  -0.05621
           Z            0.01183   0.05628   0.99834
 This molecule is an asymmetric top.
 Rotational symmetry number  1.
 Warning -- assumption of classical behavior for rotation
           may cause significant error
 Rotational temperatures (Kelvin)      0.02285     0.01069     0.01020
 Rotational constants (GHZ):           0.47619     0.22277     0.21263
 Zero-point vibrational energy     815785.0 (Joules/Mol)
                                  194.97730 (Kcal/Mol)
 Warning -- explicit consideration of  31 degrees of freedom as
           vibrations may cause significant error
 Vibrational temperatures:     39.14    41.02    73.44    75.47    86.03
          (Kelvin)            125.25   131.11   149.13   156.47   173.32
                              219.90   295.38   354.77   368.62   372.07
                              384.29   403.73   460.98   491.31   519.68
                              543.60   633.85   662.94   683.80   742.62
                              796.06   815.46   829.16   832.77   863.31
                              888.48   929.66   945.55   973.58   999.67
                             1041.74  1049.57  1094.69  1148.75  1174.77
                             1204.45  1208.48  1235.87  1264.62  1282.95
                             1322.56  1380.81  1393.11  1437.36  1455.23
                             1479.57  1492.26  1529.61  1563.32  1579.44
                             1611.97  1642.95  1647.16  1692.07  1724.70
                             1739.69  1775.89  1804.67  1809.37  1860.44
                             1863.11  1900.85  1913.07  1922.63  1979.76
                             1987.04  2006.36  2020.55  2068.97  2072.90
                             2076.82  2080.68  2114.67  2136.87  2166.96
                             2170.23  2176.03  2188.62  2196.95  2197.57
                             2208.69  2295.84  2567.03  2589.96  2683.52
                             4393.00  4412.24  4434.39  4443.28  4451.22
                             4478.29  4485.67  4496.02  4510.02  4511.22
                             4517.21  4521.45  4533.63  4574.83  4624.38
                             4692.24  4709.13  5149.20

 Zero-point correction=                           0.310716 (Hartree/Particle)
 Thermal correction to Energy=                    0.330372
 Thermal correction to Enthalpy=                  0.331316
 Thermal correction to Gibbs Free Energy=         0.260781
 Sum of electronic and zero-point Energies=          -1277.501821
 Sum of electronic and thermal Energies=             -1277.482166
 Sum of electronic and thermal Enthalpies=           -1277.481222
 Sum of electronic and thermal Free Energies=        -1277.551757

                     E (Thermal)             CV                S
                      KCal/Mol        Cal/Mol-Kelvin    Cal/Mol-Kelvin
 Total                  207.311             73.707            148.453
 Electronic               0.000              0.000              0.000
 Translational            0.889              2.981             42.934
 Rotational               0.889              2.981             33.921
 Vibrational            205.534             67.745             71.598
 Vibration     1          0.593              1.984              6.023
 Vibration     2          0.593              1.984              5.930
 Vibration     3          0.595              1.977              4.776
 Vibration     4          0.596              1.977              4.723
 Vibration     5          0.597              1.973              4.464
 Vibration     6          0.601              1.958              3.725
 Vibration     7          0.602              1.955              3.636
 Vibration     8          0.605              1.946              3.384
 Vibration     9          0.606              1.942              3.291
 Vibration    10          0.609              1.932              3.093
 Vibration    11          0.619              1.900              2.637
 Vibration    12          0.640              1.832              2.085
 Vibration    13          0.661              1.768              1.755
 Vibration    14          0.666              1.752              1.688
 Vibration    15          0.667              1.748              1.671
 Vibration    16          0.672              1.734              1.615
 Vibration    17          0.680              1.709              1.530
 Vibration    18          0.706              1.635              1.308
 Vibration    19          0.721              1.593              1.205
 Vibration    20          0.735              1.552              1.117
 Vibration    21          0.748              1.517              1.048
 Vibration    22          0.800              1.382              0.825
 Vibration    23          0.819              1.337              0.764
 Vibration    24          0.832              1.305              0.723
 Vibration    25          0.871              1.214              0.619
 Vibration    26          0.909              1.132              0.537
 Vibration    27          0.923              1.103              0.510
 Vibration    28          0.933              1.083              0.492
 Vibration    29          0.935              1.077              0.488
 Vibration    30          0.958              1.032              0.450
 Vibration    31          0.977              0.995              0.420

                           ! Non-Optimized Parameters !
 Normal termination of Gaussian 16 at Sun Dec 13 13:42:51 2020.

 ----------------------------------------------------------------------
 # B3LYP/6-311++G(d,p) empiricaldispersion=gd3bj scf=xqc pop=npa geom=c
 heck
 ----------------------------------------------------------------------

 ---------------------------------------
 CID_75416631_JID_10547_Energie_neutraal
 ---------------------------------------
 Structure from the checkpoint file:  "JID_10547.chk"
 Charge =  0 Multiplicity = 1

 SCF Done:  E(RB3LYP) =  -1278.08961304     A.U. after   16 cycles
 Normal termination of Gaussian 16 at Sun Dec 13 13:54:18 2020.

 ----------------------------------------------------------------------
 # B3LYP/6-311++G(d,p) empiricaldispersion=gd3bj scf=xqc pop=npa geom=c
 heck
 ----------------------------------------------------------------------

 -------------------------------------
 CID_75416631_JID_10547_Energie_kation
 -------------------------------------
 Structure from the checkpoint file:  "JID_10547.chk"
 Charge =  1 Multiplicity = 2

 SCF Done:  E(UB3LYP) =  -1277.78144928     A.U. after   33 cycles
 SCF Done:  E(UB3LYP) =  -1277.78144928     a.u. after    1 cycles
 Normal termination of Gaussian 16 at Sun Dec 13 14:27:28 2020.
 Gaussian 16:  ES64L-G16RevA.03 25-Dec-2016

 ----------------------------------------------------------------------
 # B3LYP/6-311++G(d,p) empiricaldispersion=gd3bj scf=xqc pop=npa geom=c
 heck
 ----------------------------------------------------------------------

 ------------------------------------
 CID_75416631_JID_10547_Energie_anion
 ------------------------------------
 Structure from the checkpoint file:  "JID_10547.chk"
 Charge = -1 Multiplicity = 2

                         Standard orientation:
 ---------------------------------------------------------------------
 Center     Atomic      Atomic             Coordinates (Angstroms)
 Number     Number       Type             X           Y           Z
 ---------------------------------------------------------------------
      1          6           0        0.770356    2.354800   -1.807383
      2          6           0        0.097690    1.196944   -1.063468
      3          6           0        0.798487   -0.157735   -1.354338
      4          6           0        2.150743   -0.287721   -0.708564
      5          6           0        2.330806   -0.695285    0.590226
      6         16           0        4.001104   -0.675675    1.054670
      7          6           0        4.475751   -0.109412   -0.515568
      8          6           0        3.395080    0.049096   -1.337823
      9          7           0        0.085031    1.498401    0.365011
     10          6           0       -0.915921    1.490011    1.291700
     11          8           0       -0.778172    2.021071    2.385296
     12          6           0       -2.272703    0.832057    0.969563
     13          6           0       -3.232451    1.842360    0.334189
     14          7           0       -2.166420   -0.454700    0.260826
     15          6           0       -2.589724   -0.783251   -1.029164
     16          8           0       -3.027001   -0.010194   -1.856545
     17          6           0       -2.371817   -2.280392   -1.230041
     18          6           0       -1.662301   -2.764977    0.038683
     19          6           0       -1.581887   -1.536349    0.932278
     20          8           0       -1.090495   -1.459791    2.038084
     21          1           0        1.812749    2.470045   -1.488198
     22          1           0        0.243842    3.293772   -1.611876
     23          1           0        0.766190    2.171604   -2.887050
     24          1           0       -0.934301    1.124693   -1.409852
     25          1           0        0.155023   -0.963022   -0.994396
     26          1           0        0.878609   -0.279262   -2.441227
     27          1           0        1.569934   -0.993508    1.300170
     28          1           0        5.519348    0.064493   -0.738987
     29          1           0        3.470522    0.387421   -2.366029
     30          1           0        0.934368    1.909111    0.736451
     31          1           0       -2.645515    0.576835    1.963906
     32          1           0       -2.887099    2.203550   -0.634413
     33          1           0       -4.226619    1.409521    0.198654
     34          1           0       -3.307323    2.687028    1.024977
     35          1           0       -3.346877   -2.752106   -1.387050
     36          1           0       -1.792433   -2.427638   -2.145382
     37          1           0       -2.198080   -3.555258    0.572229
     38          1           0       -0.647591   -3.131961   -0.143919
 ---------------------------------------------------------------------

 SCF Done:  E(UB3LYP) =  -1278.08486380     A.U. after   33 cycles
 SCF Done:  E(UB3LYP) =  -1278.08486380     a.u. after    1 cycles

 The electronic state is 2-A.
 Alpha  occ. eigenvalues --  -88.78586 -19.00872 -19.00865 -18.99467 -14.27292
 Alpha  occ. eigenvalues --  -14.24360 -10.18579 -10.18328 -10.18104 -10.13900
 Alpha  occ. eigenvalues --  -10.12835 -10.10872 -10.09976 -10.09306 -10.09247
 Alpha  occ. eigenvalues --  -10.09059 -10.08690 -10.08558 -10.08375 -10.07684
 Alpha  occ. eigenvalues --   -7.87202  -5.83482  -5.83116  -5.82825  -0.97191
 Alpha  occ. eigenvalues --   -0.95142  -0.94751  -0.86208  -0.83584  -0.79125
 Alpha  occ. eigenvalues --   -0.73231  -0.70315  -0.67063  -0.65322  -0.63870
 Alpha  occ. eigenvalues --   -0.59567  -0.59076  -0.57826  -0.53115  -0.52024
 Alpha  occ. eigenvalues --   -0.50867  -0.48031  -0.46475  -0.45036  -0.41624
 Alpha  occ. eigenvalues --   -0.41121  -0.39082  -0.38348  -0.37710  -0.37362
 Alpha  occ. eigenvalues --   -0.36275  -0.35038  -0.34526  -0.34004  -0.32989
 Alpha  occ. eigenvalues --   -0.32486  -0.31857  -0.31673  -0.31494  -0.31174
 Alpha  occ. eigenvalues --   -0.30409  -0.30003  -0.29894  -0.29754  -0.28668
 Alpha  occ. eigenvalues --   -0.27881  -0.27428  -0.26269  -0.25686  -0.25173
 Alpha  occ. eigenvalues --   -0.24549  -0.19834  -0.18569  -0.16970  -0.16615
 Alpha  occ. eigenvalues --   -0.16224  -0.15637  -0.14753   0.03923
 Alpha virt. eigenvalues --    0.05855   0.06306   0.06460   0.06965   0.07381
 Alpha virt. eigenvalues --    0.08270   0.08707   0.08930   0.09845   0.10110
 Alpha virt. eigenvalues --    0.10231   0.10507   0.10913   0.11380   0.11544

  Beta  occ. eigenvalues --  -88.78578 -19.00781 -19.00757 -18.99468 -14.27336
  Beta  occ. eigenvalues --  -14.24359 -10.18440 -10.18329 -10.17951 -10.13897
  Beta  occ. eigenvalues --  -10.12834 -10.10837 -10.09924 -10.09291 -10.09224
  Beta  occ. eigenvalues --  -10.09050 -10.08680 -10.08539 -10.08369 -10.07653
  Beta  occ. eigenvalues --   -7.87195  -5.83478  -5.83113  -5.82798  -0.97008
  Beta  occ. eigenvalues --   -0.94962  -0.94717  -0.86150  -0.83576  -0.79075
  Beta  occ. eigenvalues --   -0.73174  -0.70282  -0.67038  -0.65281  -0.63800
  Beta  occ. eigenvalues --   -0.59333  -0.59015  -0.57783  -0.53074  -0.51888
  Beta  occ. eigenvalues --   -0.50817  -0.47954  -0.46417  -0.44985  -0.41533
  Beta  occ. eigenvalues --   -0.40945  -0.38966  -0.38288  -0.37649  -0.37282
  Beta  occ. eigenvalues --   -0.36177  -0.34956  -0.34494  -0.33947  -0.32931
  Beta  occ. eigenvalues --   -0.32176  -0.31670  -0.31550  -0.31389  -0.31043
  Beta  occ. eigenvalues --   -0.30373  -0.29935  -0.29853  -0.29705  -0.28588
  Beta  occ. eigenvalues --   -0.27831  -0.27328  -0.26209  -0.25627  -0.24993
  Beta  occ. eigenvalues --   -0.24352  -0.19668  -0.18469  -0.16922  -0.16540
  Beta  occ. eigenvalues --   -0.16152  -0.15587  -0.14515
  Beta virt. eigenvalues --    0.06155   0.06603   0.06856   0.07345   0.07683
  Beta virt. eigenvalues --    0.07885   0.08684   0.08987   0.09253   0.09945
  Beta virt. eigenvalues --    0.10261   0.10486   0.10499   0.11173   0.11525

 Mulliken charges and spin densities:
               1          2
     1  C    0.465710  -1.174992
     2  C   -1.498249   1.182490
     3  C    0.545270  -1.007408
     4  C    0.090897  -0.064528
     5  C   -0.338501   0.902276
     6  S   -0.450874  -0.078794
     7  C    0.252651  -0.507063
     8  C   -0.055754  -0.113329
     9  N    0.086672  -0.022750
    10  C   -0.157641  -0.051300
    11  O   -0.270373   0.001931
    12  C   -0.080857   0.101200
    13  C   -0.280001  -0.137582
    14  N    0.286548  -0.052763
    15  C   -0.606677   0.604767
    16  O   -0.244246   0.039083
    17  C    0.760244  -1.209646
    18  C   -0.013855  -0.334449
    19  C    0.086158  -0.092742
    20  O   -0.272276   0.056120
    21  H    0.148354   0.010196
    22  H   -0.044026   0.202636
    23  H   -0.124495   0.292066
    24  H    0.269610  -0.071625
    25  H    1.166315  -1.212467
    26  H   -0.451472   0.714314
    27  H    0.338062   0.013388
    28  H    0.064274   0.182685
    29  H   -0.447530   0.622428
    30  H    0.289163   0.003226
    31  H    0.200289   0.073179
    32  H    0.081672   0.096149
    33  H    0.109565   0.071023
    34  H    0.143627   0.029728
    35  H   -0.216371   0.426331
    36  H   -0.369168   0.600043
    37  H   -0.474904   0.700098
    38  H    0.012190   0.206080
 Sum of Mulliken charges =  -1.00000   1.00000

 Dipole moment (field-independent basis, Debye):
    X=              1.8780    Y=              2.4583    Z=              1.4688  Tot=              3.4245
 Quadrupole moment (field-independent basis, Debye-Ang):
   XX=           -175.1446   YY=           -171.8274   ZZ=           -185.9254
   XY=             -8.9398   XZ=              1.0297   YZ=             -2.6621

 Summary of Natural Population Analysis:

                                       Natural Population
                Natural  -----------------------------------------------
    Atom  No    Charge         Core      Valence    Rydberg      Total
 -----------------------------------------------------------------------
      C    1   -0.28626      0.99964     2.28121    0.00540     3.28626
      C    2   -0.01744      0.99958     2.00617    0.01169     3.01744
      C    3   -0.19776      0.99956     2.18731    0.01088     3.19776
      C    4   -0.04889      0.99948     2.03725    0.01215     3.04889
      C    5   -0.18356      0.99945     2.17272    0.01139     3.18356
      S    6    0.19995      4.99946     2.78000    0.02060     7.80005
      C    7   -0.19484      0.99954     2.18349    0.01181     3.19484
      C    8   -0.12549      0.99948     2.11535    0.01066     3.12549
      N    9   -0.31830      0.99965     2.80823    0.01041     3.81830
      C   10    0.34867      0.99963     1.62887    0.02283     2.65133
      O   11   -0.32300      0.99988     3.31748    0.00564     4.32300
      C   12   -0.04404      0.99954     2.03079    0.01370     3.04404
      C   13   -0.28615      0.99964     2.28167    0.00485     3.28615
      N   14   -0.27834      0.99958     2.76752    0.01124     3.77834
      C   15    0.37561      0.99966     1.60125    0.02348     2.62439
      O   16   -0.29819      0.99987     3.29245    0.00586     4.29819
      C   17   -0.23588      0.99961     2.22769    0.00859     3.23588
      C   18   -0.23764      0.99960     2.22971    0.00833     3.23764
      C   19    0.37503      0.99966     1.60229    0.02302     2.62497
      O   20   -0.29077      0.99987     3.28544    0.00547     4.29077
      H   21    0.09980      0.00000     0.39903    0.00116     0.40020
      H   22    0.10166      0.00000     0.39755    0.00080     0.39834
      H   23    0.10548      0.00000     0.39345    0.00108     0.39452
      H   24    0.11017      0.00000     0.38699    0.00285     0.38983
      H   25    0.10282      0.00000     0.39408    0.00309     0.39718
      H   26    0.10811      0.00000     0.39016    0.00173     0.39189
      H   27    0.12183      0.00000     0.37703    0.00114     0.37817
      H   28    0.10799      0.00000     0.39125    0.00076     0.39201
      H   29    0.10924      0.00000     0.38959    0.00117     0.39076
      H   30    0.19521      0.00000     0.30234    0.00246     0.30479
      H   31    0.11831      0.00000     0.38002    0.00167     0.38169
      H   32    0.10920      0.00000     0.38988    0.00092     0.39080
      H   33    0.10579      0.00000     0.39342    0.00079     0.39421
      H   34    0.10427      0.00000     0.39487    0.00086     0.39573
      H   35    0.11513      0.00000     0.38385    0.00101     0.38487
      H   36    0.11807      0.00000     0.37968    0.00225     0.38193
      H   37    0.11926      0.00000     0.37787    0.00287     0.38074
      H   38    0.11493      0.00000     0.38406    0.00101     0.38507
 =======================================================================
   * Total *    0.00000     23.99239    53.74200    0.26561    78.00000

 Normal termination of Gaussian 16 at Sun Dec 13 15:00:57 2020.
