 Gaussian 16, Revision A.03,

 -----------------------------------------------------------
 # opt freq B3LYP/6-31G(d) empiricaldispersion=gd3bj scf=xqc
 -----------------------------------------------------------

 -------------------------------
 CID_115899296_JID_7320_neutraal
 -------------------------------
 Symbolic Z-matrix:
 Charge =  0 Multiplicity = 1

 SCF Done:  E(RB3LYP) =  -1159.62550977     A.U. after   13 cycles
 SCF Done:  E(RB3LYP) =  -1159.63544114     A.U. after   12 cycles
 SCF Done:  E(RB3LYP) =  -1159.63803511     A.U. after   12 cycles
 SCF Done:  E(RB3LYP) =  -1159.63795637     A.U. after   12 cycles
 SCF Done:  E(RB3LYP) =  -1159.63901333     A.U. after   12 cycles
 SCF Done:  E(RB3LYP) =  -1159.63929565     A.U. after   11 cycles
 SCF Done:  E(RB3LYP) =  -1159.63915591     A.U. after   11 cycles
 SCF Done:  E(RB3LYP) =  -1159.63941012     A.U. after   11 cycles
 SCF Done:  E(RB3LYP) =  -1159.63942871     A.U. after    9 cycles
 SCF Done:  E(RB3LYP) =  -1159.63943378     A.U. after    8 cycles
 SCF Done:  E(RB3LYP) =  -1159.63943421     A.U. after    8 cycles
 SCF Done:  E(RB3LYP) =  -1159.63943449     A.U. after    7 cycles
 SCF Done:  E(RB3LYP) =  -1159.63943457     A.U. after    7 cycles
 Optimization completed.
    -- Stationary point found.
 Normal termination of Gaussian 16 at Mon Dec 14 13:16:35 2020.

 --------------------------------------------------------------------
 #N Geom=AllCheck Guess=TCheck SCRF=Check GenChk RB3LYP/6-31G(d) Freq
 --------------------------------------------------------------------

 Structure from the checkpoint file:  "JID_7320.chk"
 -------------------------------
 CID_115899296_JID_7320_neutraal
 -------------------------------
 Charge =  0 Multiplicity = 1

 SCF Done:  E(RB3LYP) =  -1159.63943457     A.U. after    1 cycles

  Exact polarizability: 193.135   1.520 175.816  -2.376   3.916 104.511
 Approx polarizability: 260.679  -4.406 249.135  -0.205   9.767 158.907

                      1                      2                      3
                      A                      A                      A
 Frequencies --     28.2512                40.1205                47.3722
 Red. masses --      4.3810                 4.0400                 4.2341
 Frc consts  --      0.0021                 0.0038                 0.0056
 IR Inten    --      0.5808                 0.3967                 0.6787

                      4                      5                      6
                      A                      A                      A
 Frequencies --     81.2511                83.5602                95.7190
 Red. masses --      3.1938                 3.9778                 2.8281
 Frc consts  --      0.0124                 0.0164                 0.0153
 IR Inten    --      7.7790                 0.9974                 0.5230

                      7                      8                      9
                      A                      A                      A
 Frequencies --    140.0427               143.8401               156.9876
 Red. masses --      2.8992                 3.4452                 1.7327
 Frc consts  --      0.0335                 0.0420                 0.0252
 IR Inten    --      0.0484                 0.9192                 0.1040

                     10                     11                     12
                      A                      A                      A
 Frequencies --    162.5520               165.5026               181.3632
 Red. masses --      1.6575                 1.5118                 1.2186
 Frc consts  --      0.0258                 0.0244                 0.0236
 IR Inten    --      0.5565                 0.4262                 0.6178

                     13                     14                     15
                      A                      A                      A
 Frequencies --    192.2251               202.7365               216.8974
 Red. masses --      1.9113                 3.0172                 2.8689
 Frc consts  --      0.0416                 0.0731                 0.0795
 IR Inten    --      0.0260                 0.4976                 3.8605

                     16                     17                     18
                      A                      A                      A
 Frequencies --    224.0294               242.8438               256.8292
 Red. masses --      2.9123                 2.3433                 5.8488
 Frc consts  --      0.0861                 0.0814                 0.2273
 IR Inten    --      0.2639                 1.2150                 3.2346

                     19                     20                     21
                      A                      A                      A
 Frequencies --    274.1516               312.4768               355.2129
 Red. masses --      2.3385                 2.3589                 2.8303
 Frc consts  --      0.1036                 0.1357                 0.2104
 IR Inten    --      2.4642                 2.1566                 6.1125

                     22                     23                     24
                      A                      A                      A
 Frequencies --    410.7787               413.5381               519.4960
 Red. masses --      4.2925                 3.5760                 4.0991
 Frc consts  --      0.4268                 0.3603                 0.6518
 IR Inten    --      0.0365                 6.8654                15.3504

                     25                     26                     27
                      A                      A                      A
 Frequencies --    532.5965               565.7785               594.2889
 Red. masses --      3.3690                 9.6321                 1.2654
 Frc consts  --      0.5630                 1.8166                 0.2633
 IR Inten    --     16.0709                 2.6141                82.6678

                     28                     29                     30
                      A                      A                      A
 Frequencies --    632.2303               658.3688               691.2868
 Red. masses --      4.6832                 4.4633                 3.9151
 Frc consts  --      1.1029                 1.1399                 1.1023
 IR Inten    --      6.3199                 3.7658                21.0635

                     31                     32                     33
                      A                      A                      A
 Frequencies --    726.0508               738.6377               745.1691
 Red. masses --      6.0145                11.0727                11.1845
 Frc consts  --      1.8680                 3.5593                 3.6591
 IR Inten    --      4.8572                 2.1126                 0.0457

                     34                     35                     36
                      A                      A                      A
 Frequencies --    756.2557               793.4227               826.2829
 Red. masses --      4.0848                 1.4824                12.1436
 Frc consts  --      1.3764                 0.5498                 4.8849
 IR Inten    --      5.1268                 8.9523                43.1781

                     37                     38                     39
                      A                      A                      A
 Frequencies --    851.0616               891.8284               969.8510
 Red. masses --      1.9136                 1.6273                 3.9907
 Frc consts  --      0.8166                 0.7626                 2.2116
 IR Inten    --      9.9561                 3.2566                 4.3027

                     40                     41                     42
                      A                      A                      A
 Frequencies --    988.7757               990.5601               994.7740
 Red. masses --      2.0441                 1.2008                 9.9928
 Frc consts  --      1.1774                 0.6942                 5.8262
 IR Inten    --      6.4144                 7.3600                 1.7226

                     43                     44                     45
                      A                      A                      A
 Frequencies --   1011.1666              1057.6843              1073.0278
 Red. masses --      1.4503                 3.5179                 4.0201
 Frc consts  --      0.8737                 2.3187                 2.7271
 IR Inten    --     10.1822                 4.7631                 3.1386

                     46                     47                     48
                      A                      A                      A
 Frequencies --   1095.0802              1116.4097              1140.1808
 Red. masses --      2.6339                 1.4516                 2.2011
 Frc consts  --      1.8609                 1.0659                 1.6859
 IR Inten    --      0.8556                 9.0715                 5.6377

                     49                     50                     51
                      A                      A                      A
 Frequencies --   1172.4347              1183.9182              1186.2814
 Red. masses --      3.4673                 2.7843                 1.2691
 Frc consts  --      2.8081                 2.2994                 1.0522
 IR Inten    --     98.3102               100.8071                 1.3074

                     52                     53                     54
                      A                      A                      A
 Frequencies --   1186.6527              1223.9762              1236.7498
 Red. masses --      1.2664                 1.7784                 1.8100
 Frc consts  --      1.0506                 1.5698                 1.6311
 IR Inten    --      0.0505               109.4091                17.5517

                     55                     56                     57
                      A                      A                      A
 Frequencies --   1266.4195              1274.9100              1297.2311
 Red. masses --      1.2776                 1.7164                 1.9917
 Frc consts  --      1.2073                 1.6437                 1.9748
 IR Inten    --     30.8291                47.1252                10.0357

                     58                     59                     60
                      A                      A                      A
 Frequencies --   1327.4149              1342.0324              1374.1863
 Red. masses --      1.5362                 1.6825                 1.3357
 Frc consts  --      1.5949                 1.7853                 1.4861
 IR Inten    --     21.0322                36.2473                19.6466

                     61                     62                     63
                      A                      A                      A
 Frequencies --   1391.0696              1402.9314              1417.1138
 Red. masses --      1.2274                 2.1750                 1.6027
 Frc consts  --      1.3994                 2.5222                 1.8963
 IR Inten    --     26.1448               338.5340               210.9441

                     64                     65                     66
                      A                      A                      A
 Frequencies --   1440.3594              1445.8672              1455.5371
 Red. masses --      1.4178                 1.7815                 1.5539
 Frc consts  --      1.7330                 2.1943                 1.9396
 IR Inten    --    112.9719               192.3308               152.8811

                     67                     68                     69
                      A                      A                      A
 Frequencies --   1481.9560              1497.5914              1511.7061
 Red. masses --      1.0921                 1.0571                 1.0489
 Frc consts  --      1.4132                 1.3969                 1.4123
 IR Inten    --     10.8844                 7.0499                 4.4244

                     70                     71                     72
                      A                      A                      A
 Frequencies --   1511.9230              1513.3791              1518.9098
 Red. masses --      1.0498                 1.0527                 1.5255
 Frc consts  --      1.4139                 1.4205                 2.0736
 IR Inten    --      7.1266                15.9557               118.9050

                     73                     74                     75
                      A                      A                      A
 Frequencies --   1522.9707              1524.9671              1526.9169
 Red. masses --      1.0675                 1.0775                 1.1626
 Frc consts  --      1.4588                 1.4764                 1.5970
 IR Inten    --    116.0297                21.2523                36.3345

                     76                     77                     78
                      A                      A                      A
 Frequencies --   1532.5983              1535.7097              1539.8404
 Red. masses --      1.0769                 1.8044                 1.0630
 Frc consts  --      1.4903                 2.5073                 1.4850
 IR Inten    --     39.8344               159.2504                 4.1131

                     79                     80                     81
                      A                      A                      A
 Frequencies --   1606.0233              1616.1305              1641.4671
 Red. masses --      7.1109                 9.1952                 5.2080
 Frc consts  --     10.8064                14.1503                 8.2677
 IR Inten    --    342.3509               751.4909               767.8979

                     82                     83                     84
                      A                      A                      A
 Frequencies --   3049.2463              3058.4906              3067.1387
 Red. masses --      1.0376                 1.0617                 1.0318
 Frc consts  --      5.6841                 5.8513                 5.7191
 IR Inten    --     18.2259                14.8477                21.2084

                     85                     86                     87
                      A                      A                      A
 Frequencies --   3067.6261              3070.4718              3076.9291
 Red. masses --      1.0300                 1.0297                 1.0759
 Frc consts  --      5.7107                 5.7194                 6.0012
 IR Inten    --     42.6395                34.8196                 2.1791

                     88                     89                     90
                      A                      A                      A
 Frequencies --   3086.7377              3096.1288              3115.9807
 Red. masses --      1.0707                 1.0959                 1.1019
 Frc consts  --      6.0105                 6.1894                 6.3034
 IR Inten    --     20.2292                 5.6401                41.9991

                     91                     92                     93
                      A                      A                      A
 Frequencies --   3122.2951              3136.7780              3138.7283
 Red. masses --      1.1018                 1.1062                 1.1071
 Frc consts  --      6.3286                 6.4130                 6.4261
 IR Inten    --     44.1994                12.9609                26.5352

                     94                     95                     96
                      A                      A                      A
 Frequencies --   3143.1779              3149.5777              3163.7494
 Red. masses --      1.1072                 1.1045                 1.1056
 Frc consts  --      6.4451                 6.4555                 6.5202
 IR Inten    --     24.3711                 9.4808                 7.9401

                     97                     98                     99
                      A                      A                      A
 Frequencies --   3173.4998              3174.9934              3591.8772
 Red. masses --      1.1062                 1.1067                 1.0761
 Frc consts  --      6.5641                 6.5732                 8.1800
 IR Inten    --     29.8709                29.4377                76.5896

 - Thermochemistry -
 -------------------
 Temperature   298.150 Kelvin.  Pressure   1.00000 Atm.
 Atom     1 has atomic number  6 and mass  12.00000

 Molecular mass:   258.11505 amu.
 Principal axes and moments of inertia in atomic units:
                           1         2         3
     Eigenvalues --  3131.448217740.36243**********
           X            0.99973   0.02170  -0.00793
           Y           -0.02168   0.99976   0.00318
           Z            0.00800  -0.00301   0.99996
 This molecule is an asymmetric top.
 Rotational symmetry number  1.
 Warning -- assumption of classical behavior for rotation
           may cause significant error
 Rotational temperatures (Kelvin)      0.02766     0.01119     0.00850
 Rotational constants (GHZ):           0.57633     0.23316     0.17710
 Zero-point vibrational energy     769074.1 (Joules/Mol)
                                  183.81312 (Kcal/Mol)
 Warning -- explicit consideration of  27 degrees of freedom as
           vibrations may cause significant error
 Vibrational temperatures:     40.65    57.72    68.16   116.90   120.22
          (Kelvin)            137.72   201.49   206.95   225.87   233.88
                              238.12   260.94   276.57   291.69   312.07
                              322.33   349.40   369.52   394.44   449.58
                              511.07   591.02   594.99   747.44   766.29
                              814.03   855.05   909.64   947.25   994.61
                             1044.63  1062.73  1072.13  1088.08  1141.56
                             1188.84  1224.49  1283.14  1395.40  1422.63
                             1425.20  1431.26  1454.84  1521.77  1543.85
                             1575.58  1606.26  1640.47  1686.87  1703.39
                             1706.79  1707.33  1761.03  1779.41  1822.10
                             1834.31  1866.43  1909.85  1930.89  1977.15
                             2001.44  2018.51  2038.91  2072.36  2080.28
                             2094.19  2132.20  2154.70  2175.01  2175.32
                             2177.42  2185.37  2191.22  2194.09  2196.89
                             2205.07  2209.54  2215.49  2310.71  2325.25
                             2361.71  4387.19  4400.49  4412.93  4413.63
                             4417.72  4427.01  4441.13  4454.64  4483.20
                             4492.29  4513.12  4515.93  4522.33  4531.54
                             4551.93  4565.96  4568.11  5167.91

 Zero-point correction=                           0.292925 (Hartree/Particle)
 Thermal correction to Energy=                    0.311754
 Thermal correction to Enthalpy=                  0.312698
 Thermal correction to Gibbs Free Energy=         0.244635
 Sum of electronic and zero-point Energies=          -1159.346510
 Sum of electronic and thermal Energies=             -1159.327680
 Sum of electronic and thermal Enthalpies=           -1159.326736
 Sum of electronic and thermal Free Energies=        -1159.394800

                     E (Thermal)             CV                S
                      KCal/Mol        Cal/Mol-Kelvin    Cal/Mol-Kelvin
 Total                  195.629             67.433            143.252
 Electronic               0.000              0.000              0.000
 Translational            0.889              2.981             42.545
 Rotational               0.889              2.981             33.868
 Vibrational            193.851             61.472             66.839
 Vibration     1          0.593              1.984              5.949
 Vibration     2          0.594              1.981              5.253
 Vibration     3          0.595              1.979              4.924
 Vibration     4          0.600              1.962              3.860
 Vibration     5          0.600              1.960              3.805
 Vibration     6          0.603              1.952              3.540
 Vibration     7          0.615              1.913              2.803
 Vibration     8          0.616              1.909              2.752
 Vibration     9          0.621              1.895              2.586
 Vibration    10          0.623              1.888              2.520
 Vibration    11          0.624              1.885              2.486
 Vibration    12          0.630              1.865              2.314
 Vibration    13          0.634              1.851              2.206
 Vibration    14          0.639              1.836              2.108
 Vibration    15          0.646              1.815              1.985
 Vibration    16          0.649              1.804              1.926
 Vibration    17          0.659              1.775              1.782
 Vibration    18          0.666              1.751              1.683
 Vibration    19          0.676              1.721              1.570
 Vibration    20          0.701              1.650              1.349
 Vibration    21          0.731              1.565              1.143
 Vibration    22          0.775              1.447              0.924
 Vibration    23          0.777              1.441              0.914
 Vibration    24          0.874              1.207              0.611
 Vibration    25          0.888              1.178              0.581
 Vibration    26          0.922              1.105              0.512
 Vibration    27          0.952              1.044              0.460

 Optimization completed.
    -- Stationary point found.
 Normal termination of Gaussian 16 at Mon Dec 14 13:28:31 2020.

 ----------------------------------------------------------------------
 # B3LYP/6-311++G(d,p) empiricaldispersion=gd3bj scf=xqc pop=npa geom=c
 heck
 ----------------------------------------------------------------------

 ---------------------------------------
 CID_115899296_JID_7320_Energie_neutraal
 ---------------------------------------
 Structure from the checkpoint file:  "JID_7320.chk"
 Charge =  0 Multiplicity = 1

 SCF Done:  E(RB3LYP) =  -1159.88109051     A.U. after   15 cycles
 Normal termination of Gaussian 16 at Mon Dec 14 13:34:51 2020.

 ----------------------------------------------------------------------
 # B3LYP/6-311++G(d,p) empiricaldispersion=gd3bj scf=xqc pop=npa geom=c
 heck
 ----------------------------------------------------------------------

 -------------------------------------
 CID_115899296_JID_7320_Energie_kation
 -------------------------------------
 Structure from the checkpoint file:  "JID_7320.chk"
 Charge =  1 Multiplicity = 2

 SCF Done:  E(UB3LYP) =  -1159.58256689     A.U. after   26 cycles
 Normal termination of Gaussian 16 at Mon Dec 14 13:50:02 2020.
 Gaussian 16:  ES64L-G16RevA.03 25-Dec-2016

 ----------------------------------------------------------------------
 # B3LYP/6-311++G(d,p) empiricaldispersion=gd3bj scf=xqc pop=npa geom=c
 heck
 ----------------------------------------------------------------------

 ------------------------------------
 CID_115899296_JID_7320_Energie_anion
 ------------------------------------
 Structure from the checkpoint file:  "JID_7320.chk"
 Charge = -1 Multiplicity = 2

                         Standard orientation:
 ---------------------------------------------------------------------
 Center     Atomic      Atomic             Coordinates (Angstroms)
 Number     Number       Type             X           Y           Z
 ---------------------------------------------------------------------
      1          6           0       -2.869693   -2.256125    1.108654
      2          6           0       -1.906096   -1.068051    1.072697
      3          6           0       -1.578600   -0.569808   -0.344942
      4          6           0       -2.779564   -0.073483   -1.163110
      5         16           0       -3.564445    1.483353   -0.576780
      6          6           0       -4.822442    0.860795    0.593702
      7          7           0       -0.571363    0.481496   -0.311078
      8          6           0        0.754075    0.254693   -0.169001
      9          7           0        1.196325   -1.015532   -0.251112
     10          6           0        2.521495   -1.134313   -0.126297
     11          7           0        3.402778   -0.154025    0.068323
     12          6           0        2.832808    1.053528    0.136032
     13          7           0        1.534387    1.337545    0.030928
     14          8           0        3.696648    2.054184    0.334268
     15          6           0        3.158184    3.377840    0.415175
     16          8           0        3.062281   -2.356166   -0.193147
     17          6           0        2.173009   -3.457178   -0.398671
     18          1           0       -3.868800   -1.991874    0.745726
     19          1           0       -2.982411   -2.634593    2.130045
     20          1           0       -2.498194   -3.081163    0.488680
     21          1           0       -2.296402   -0.231609    1.665184
     22          1           0       -0.954876   -1.357845    1.532495
     23          1           0       -1.135921   -1.403759   -0.900248
     24          1           0       -2.441538    0.149287   -2.179207
     25          1           0       -3.548920   -0.847338   -1.233751
     26          1           0       -5.470386    0.126907    0.105620
     27          1           0       -4.379270    0.423965    1.490553
     28          1           0       -5.428335    1.723383    0.882657
     29          1           0       -0.881404    1.421915   -0.097150
     30          1           0        2.639226    3.645877   -0.509161
     31          1           0        2.457636    3.464525    1.250313
     32          1           0        4.021475    4.025946    0.571360
     33          1           0        1.447360   -3.532418    0.416246
     34          1           0        1.632445   -3.353349   -1.343710
     35          1           0        2.814068   -4.339427   -0.420984
 ---------------------------------------------------------------------

 SCF Done:  E(UB3LYP) =  -1159.87136242     A.U. after   32 cycles

 The electronic state is 2-A.
 Alpha  occ. eigenvalues --  -88.75215 -19.09029 -19.08155 -14.25345 -14.22587
 Alpha  occ. eigenvalues --  -14.22286 -14.21940 -10.22156 -10.21897 -10.20441
 Alpha  occ. eigenvalues --  -10.15203 -10.13372 -10.12651 -10.11271 -10.09896
 Alpha  occ. eigenvalues --  -10.07583 -10.06363  -7.83811  -5.80213  -5.79834
 Alpha  occ. eigenvalues --   -5.79186  -1.02528  -1.01180  -0.93164  -0.86645
 Alpha  occ. eigenvalues --   -0.80726  -0.80107  -0.72313  -0.68383  -0.66829
 Alpha  occ. eigenvalues --   -0.63979  -0.63633  -0.58952  -0.56405  -0.54223
 Alpha  occ. eigenvalues --   -0.52476  -0.50414  -0.48544  -0.46675  -0.43430
 Alpha  occ. eigenvalues --   -0.42085  -0.41794  -0.39548  -0.39117  -0.37638
 Alpha  occ. eigenvalues --   -0.36846  -0.36327  -0.34764  -0.34601  -0.33267
 Alpha  occ. eigenvalues --   -0.32642  -0.32181  -0.31035  -0.30776  -0.29628
 Alpha  occ. eigenvalues --   -0.28728  -0.28355  -0.27666  -0.27253  -0.27159
 Alpha  occ. eigenvalues --   -0.25099  -0.24415  -0.22165  -0.20597  -0.19694
 Alpha  occ. eigenvalues --   -0.19571  -0.18985  -0.16039  -0.14031   0.03991
 Alpha virt. eigenvalues --    0.05625   0.05917   0.06913   0.07125   0.07495
 Alpha virt. eigenvalues --    0.07682   0.08137   0.09190   0.09293   0.09651
 Alpha virt. eigenvalues --    0.09807   0.10198   0.10874   0.11296   0.11522

  Beta  occ. eigenvalues --  -88.75209 -19.09029 -19.08149 -14.25345 -14.22584
  Beta  occ. eigenvalues --  -14.22279 -14.21940 -10.22156 -10.21896 -10.20441
  Beta  occ. eigenvalues --  -10.15196 -10.13336 -10.12643 -10.11254 -10.09828
  Beta  occ. eigenvalues --  -10.07568 -10.06315  -7.83805  -5.80204  -5.79822
  Beta  occ. eigenvalues --   -5.79183  -1.02524  -1.01171  -0.93159  -0.86640
  Beta  occ. eigenvalues --   -0.80720  -0.80101  -0.72281  -0.68340  -0.66813
  Beta  occ. eigenvalues --   -0.63924  -0.63598  -0.58904  -0.56373  -0.54192
  Beta  occ. eigenvalues --   -0.52388  -0.50386  -0.48514  -0.46641  -0.43418
  Beta  occ. eigenvalues --   -0.42065  -0.41785  -0.39534  -0.39093  -0.37608
  Beta  occ. eigenvalues --   -0.36830  -0.36307  -0.34732  -0.34573  -0.33210
  Beta  occ. eigenvalues --   -0.32596  -0.32124  -0.31002  -0.30755  -0.29609
  Beta  occ. eigenvalues --   -0.28710  -0.28345  -0.27623  -0.27202  -0.27118
  Beta  occ. eigenvalues --   -0.25061  -0.24372  -0.22109  -0.20588  -0.19687
  Beta  occ. eigenvalues --   -0.19562  -0.18978  -0.16032  -0.14005
  Beta virt. eigenvalues --    0.05568   0.06444   0.06822   0.07100   0.07142
  Beta virt. eigenvalues --    0.07886   0.08135   0.08513   0.09269   0.09684
  Beta virt. eigenvalues --    0.09990   0.10090   0.10612   0.11094   0.11638

 Mulliken charges and spin densities:
               1          2
     1  C    1.469085  -2.153892
     2  C   -1.433112   1.532691
     3  C    0.163424  -0.575950
     4  C    0.171340  -0.606592
     5  S   -0.647961   0.814693
     6  C    0.987111  -1.697448
     7  N    0.040578   0.043342
     8  C   -0.301474   0.122446
     9  N   -0.205296   0.042991
    10  C    0.119250  -0.034908
    11  N   -0.453791   0.028972
    12  C    0.062969  -0.006641
    13  N   -0.095613  -0.032989
    14  O   -0.120330   0.015290
    15  C   -0.100622  -0.146256
    16  O   -0.141720   0.045589
    17  C    0.778430  -0.947522
    18  H    0.009202   0.114946
    19  H   -0.412676   0.564340
    20  H   -0.464403   0.619878
    21  H    0.014807   0.164465
    22  H    0.147835   0.002350
    23  H    0.321342  -0.075715
    24  H    0.030468   0.215890
    25  H   -0.131642   0.313829
    26  H   -0.319205   0.508490
    27  H   -0.235823   0.407264
    28  H   -0.434812   0.610686
    29  H    0.366318  -0.090946
    30  H    0.112485   0.062723
    31  H    0.087556   0.086684
    32  H    0.110233   0.043247
    33  H   -0.113922   0.290603
    34  H   -0.309396   0.473942
    35  H   -0.070635   0.243509
 Sum of Mulliken charges =  -1.00000   1.00000

 Dipole moment (field-independent basis, Debye):
    X=              6.8192    Y=              5.7966    Z=             -1.3990  Tot=              9.0587
 Quadrupole moment (field-independent basis, Debye-Ang):
   XX=           -223.6298   YY=           -161.4613   ZZ=           -141.2091
   XY=              3.8959   XZ=              8.1358   YZ=              1.5090

 Summary of Natural Population Analysis:

                                       Natural Population
                Natural  -----------------------------------------------
    Atom  No    Charge         Core      Valence    Rydberg      Total
 -----------------------------------------------------------------------
      C    1   -0.28896      0.99966     2.28372    0.00558     3.28896
      C    2   -0.19590      0.99961     2.18711    0.00918     3.19590
      C    3   -0.01888      0.99956     2.00466    0.01466     3.01888
      C    4   -0.25208      0.99956     2.24024    0.01228     3.25208
      S    5    0.07586      4.99964     2.90560    0.01890     7.92414
      C    6   -0.34587      0.99962     2.34002    0.00623     3.34587
      N    7   -0.29935      0.99964     2.78959    0.01012     3.79935
      C    8    0.32314      0.99962     1.66022    0.01702     2.67686
      N    9   -0.31875      0.99963     2.81116    0.00796     3.81875
      C   10    0.37912      0.99956     1.59908    0.02225     2.62088
      N   11   -0.29171      0.99961     2.78233    0.00977     3.79171
      C   12    0.37681      0.99956     1.60287    0.02076     2.62319
      N   13   -0.31862      0.99963     2.81120    0.00778     3.81862
      O   14   -0.26096      0.99984     3.25202    0.00910     4.26096
      C   15   -0.10262      0.99960     2.09526    0.00776     3.10262
      O   16   -0.25983      0.99984     3.25110    0.00888     4.25983
      C   17   -0.10306      0.99960     2.09444    0.00902     3.10306
      H   18    0.09805      0.00000     0.40015    0.00180     0.40195
      H   19    0.10343      0.00000     0.39532    0.00125     0.39657
      H   20    0.10007      0.00000     0.39805    0.00188     0.39993
      H   21    0.09621      0.00000     0.40223    0.00157     0.40379
      H   22    0.10320      0.00000     0.39528    0.00152     0.39680
      H   23    0.11134      0.00000     0.38593    0.00273     0.38866
      H   24    0.10907      0.00000     0.38967    0.00126     0.39093
      H   25    0.11191      0.00000     0.38691    0.00118     0.38809
      H   26    0.10536      0.00000     0.39213    0.00252     0.39464
      H   27    0.10285      0.00000     0.39506    0.00210     0.39715
      H   28    0.10906      0.00000     0.38938    0.00156     0.39094
      H   29    0.20099      0.00000     0.29497    0.00404     0.29901
      H   30    0.09132      0.00000     0.40732    0.00136     0.40868
      H   31    0.09174      0.00000     0.40685    0.00141     0.40826
      H   32    0.08851      0.00000     0.41035    0.00114     0.41149
      H   33    0.09459      0.00000     0.40384    0.00157     0.40541
      H   34    0.09312      0.00000     0.40543    0.00145     0.40688
      H   35    0.09083      0.00000     0.40816    0.00101     0.40917
 =======================================================================
   * Total *    0.00000     20.99379    47.77760    0.22860    69.00000

 Normal termination of Gaussian 16 at Mon Dec 14 14:08:56 2020.
