 Gaussian 16, Revision A.03,

 -----------------------------------------------------------
 # opt freq B3LYP/6-31G(d) empiricaldispersion=gd3bj scf=xqc
 -----------------------------------------------------------

 -------------------------------
 CID_134437382_JID_2983_neutraal
 -------------------------------
 Symbolic Z-matrix:
 Charge =  0 Multiplicity = 1

 SCF Done:  E(RB3LYP) =  -611.718996997     A.U. after   15 cycles
 SCF Done:  E(RB3LYP) =  -611.725727141     A.U. after   14 cycles
 SCF Done:  E(RB3LYP) =  -611.726683691     A.U. after   12 cycles
 SCF Done:  E(RB3LYP) =  -611.726710236     A.U. after   12 cycles
 SCF Done:  E(RB3LYP) =  -611.726229243     A.U. after   13 cycles
 SCF Done:  E(RB3LYP) =  -611.726861204     A.U. after   13 cycles
 SCF Done:  E(RB3LYP) =  -611.726872099     A.U. after   10 cycles
 SCF Done:  E(RB3LYP) =  -611.726880204     A.U. after   10 cycles
 SCF Done:  E(RB3LYP) =  -611.726882533     A.U. after    9 cycles
 SCF Done:  E(RB3LYP) =  -611.726884133     A.U. after    9 cycles
 SCF Done:  E(RB3LYP) =  -611.726884460     A.U. after    8 cycles
 Optimization completed.
    -- Stationary point found.

 1\1\GINC-NODE353\FOpt\RB3LYP\6-31G(d)\C8H10O4\VSC10255\09-Dec-2020\0\\
 # opt freq B3LYP/6-31G(d) empiricaldispersion=gd3bj scf=xqc\\CID_13443
 7382_JID_2983_neutraal\\0,1\C,0.3590019069,1.2805435549,0.0379758579\C
 ,1.4013226869,0.1234645528,0.1258636727\C,0.5361884153,-1.0746582972,-
 0.4327898059\C,-0.50687815,-1.3911580264,0.6257560012\C,-1.3929419994,
 -0.3931144974,0.5614727786\C,-0.8875028396,0.5377382731,-0.5298934908\
 O,-0.2417905312,-0.400381935,-1.4363712518\C,-1.9018604734,1.334852076
 5,-1.3394503187\O,-1.257707694,2.0220496686,-2.3861791951\O,-2.9289126

 Normal termination of Gaussian 16 at Wed Dec  9 18:21:04 2020.

 --------------------------------------------------------------------
 #N Geom=AllCheck Guess=TCheck SCRF=Check GenChk RB3LYP/6-31G(d) Freq
 --------------------------------------------------------------------

 Structure from the checkpoint file:  "JID_2983.chk"
 -------------------------------
 CID_134437382_JID_2983_neutraal
 -------------------------------
 Charge =  0 Multiplicity = 1

 SCF Done:  E(RB3LYP) =  -611.726884460     A.U. after    1 cycles

  Exact polarizability: 102.604   1.622  85.335   7.347  -0.056  72.012
 Approx polarizability: 152.994  -1.638 124.174  14.131  -2.206 115.878

                      1                      2                      3
                      A                      A                      A
 Frequencies --     63.0375                68.1119                91.4310
 Red. masses --      6.6291                 6.9993                 4.3769
 Frc consts  --      0.0155                 0.0191                 0.0216
 IR Inten    --      3.0796                 4.6754                 4.0161

                      4                      5                      6
                      A                      A                      A
 Frequencies --    180.9946               212.6288               276.8811
 Red. masses --      5.0156                 4.4569                 2.1969
 Frc consts  --      0.0968                 0.1187                 0.0992
 IR Inten    --      2.1472                 6.1304                 1.0716

                      7                      8                      9
                      A                      A                      A
 Frequencies --    328.0595               337.2604               363.4437
 Red. masses --      2.7467                 1.6705                 2.5146
 Frc consts  --      0.1742                 0.1120                 0.1957
 IR Inten    --      5.4124                10.3281                12.5119

                     10                     11                     12
                      A                      A                      A
 Frequencies --    383.8814               448.5790               470.1304
 Red. masses --      3.0076                 3.5266                 3.1319
 Frc consts  --      0.2611                 0.4181                 0.4078
 IR Inten    --      6.4870                15.4426                31.5853

                     13                     14                     15
                      A                      A                      A
 Frequencies --    511.4737               516.4791               594.0717
 Red. masses --      1.4650                 2.4734                 4.1933
 Frc consts  --      0.2258                 0.3887                 0.8719
 IR Inten    --    108.0104                31.3181               105.4922

                     16                     17                     18
                      A                      A                      A
 Frequencies --    634.3375               717.6897               726.8035
 Red. masses --      3.5707                 2.4711                 2.1460
 Frc consts  --      0.8465                 0.7499                 0.6679
 IR Inten    --      2.7160                14.9480                36.8153

                     19                     20                     21
                      A                      A                      A
 Frequencies --    745.8913               818.8558               849.8569
 Red. masses --      4.4652                 5.9746                 4.8019
 Frc consts  --      1.4637                 2.3603                 2.0434
 IR Inten    --      9.3277                18.8236                 6.8003

                     22                     23                     24
                      A                      A                      A
 Frequencies --    875.5713               906.4584               927.4875
 Red. masses --      2.8027                 2.0100                 1.5885
 Frc consts  --      1.2659                 0.9731                 0.8051
 IR Inten    --     21.9924                20.5074                 5.0891

                     25                     26                     27
                      A                      A                      A
 Frequencies --    944.1292               967.4673              1003.2445
 Red. masses --      1.8074                 3.0135                 3.1205
 Frc consts  --      0.9492                 1.6619                 1.8505
 IR Inten    --      1.9866                 1.9610                34.7114

                     28                     29                     30
                      A                      A                      A
 Frequencies --   1027.0102              1040.3362              1047.3031
 Red. masses --      2.0991                 3.9801                 4.9252
 Frc consts  --      1.3045                 2.5380                 3.1829
 IR Inten    --     32.4041               122.9116                56.5758

                     31                     32                     33
                      A                      A                      A
 Frequencies --   1071.0782              1095.1226              1110.2169
 Red. masses --      1.9856                 3.4950                 1.8634
 Frc consts  --      1.3421                 2.4696                 1.3532
 IR Inten    --     41.4550               138.3411                24.7943

                     34                     35                     36
                      A                      A                      A
 Frequencies --   1152.4306              1200.2328              1225.0007
 Red. masses --      2.9973                 1.3464                 1.5213
 Frc consts  --      2.3453                 1.1427                 1.3451
 IR Inten    --     45.2155                 5.1905                15.9096

                     37                     38                     39
                      A                      A                      A
 Frequencies --   1247.8551              1255.6082              1266.7382
 Red. masses --      1.2071                 1.2155                 1.4557
 Frc consts  --      1.1074                 1.1291                 1.3763
 IR Inten    --     10.1079                48.5055                 5.2694

                     40                     41                     42
                      A                      A                      A
 Frequencies --   1306.2018              1312.2941              1332.9638
 Red. masses --      1.3965                 1.5871                 1.5072
 Frc consts  --      1.4038                 1.6103                 1.5778
 IR Inten    --      0.4067                 0.6773                 2.4030

                     43                     44                     45
                      A                      A                      A
 Frequencies --   1351.2813              1370.9342              1432.7246
 Red. masses --      1.7161                 2.1585                 1.2117
 Frc consts  --      1.8462                 2.3902                 1.4655
 IR Inten    --      6.4448                27.0046                 2.6235

                     46                     47                     48
                      A                      A                      A
 Frequencies --   1439.7248              1489.3547              1523.1041
 Red. masses --      1.1096                 1.4597                 1.0905
 Frc consts  --      1.3551                 1.9077                 1.4906
 IR Inten    --     46.9032               107.4903                 2.1276

                     49                     50                     51
                      A                      A                      A
 Frequencies --   1656.0450              1831.7501              2907.0076
 Red. masses --      6.3330                 9.9046                 1.0838
 Frc consts  --     10.2330                19.5803                 5.3961
 IR Inten    --      1.5349               231.1916                81.5702

                     52                     53                     54
                      A                      A                      A
 Frequencies --   3092.6279              3124.2728              3126.5570
 Red. masses --      1.0606                 1.0880                 1.0883
 Frc consts  --      5.9768                 6.2572                 6.2680
 IR Inten    --      9.7569                25.0614                 7.1567

                     55                     56                     57
                      A                      A                      A
 Frequencies --   3148.3926              3158.9144              3238.7729
 Red. masses --      1.1047                 1.0906                 1.0877
 Frc consts  --      6.4517                 6.4118                 6.7222
 IR Inten    --     13.7320                19.9227                 1.9413

                     58                     59                     60
                      A                      A                      A
 Frequencies --   3261.9831              3700.0033              3702.9788
 Red. masses --      1.1071                 1.0655                 1.0652
 Frc consts  --      6.9409                 8.5941                 8.6057
 IR Inten    --      4.0632                11.1665                25.3658

 - Thermochemistry -
 -------------------
 Temperature   298.150 Kelvin.  Pressure   1.00000 Atm.
 Atom     1 has atomic number  6 and mass  12.00000

 Molecular mass:   170.05791 amu.
 Principal axes and moments of inertia in atomic units:
                           1         2         3
     Eigenvalues --  1033.858162517.068373061.81221
           X            0.99999  -0.00443   0.00267
           Y            0.00440   0.99996   0.00782
           Z           -0.00271  -0.00780   0.99997
 This molecule is an asymmetric top.
 Rotational symmetry number  1.
 Warning -- assumption of classical behavior for rotation
           may cause significant error
 Rotational temperatures (Kelvin)      0.08378     0.03441     0.02829
 Rotational constants (GHZ):           1.74564     0.71700     0.58944
 Zero-point vibrational energy     461824.8 (Joules/Mol)
                                  110.37878 (Kcal/Mol)
 Warning -- explicit consideration of  15 degrees of freedom as
           vibrations may cause significant error
 Vibrational temperatures:     90.70    98.00   131.55   260.41   305.93
          (Kelvin)            398.37   472.00   485.24   522.91   552.32
                              645.41   676.41   735.90   743.10   854.74
                              912.67  1032.60  1045.71  1073.17  1178.15
                             1222.75  1259.75  1304.19  1334.45  1358.39
                             1391.97  1443.45  1477.64  1496.81  1506.84
                             1541.04  1575.64  1597.35  1658.09  1726.87
                             1762.50  1795.39  1806.54  1822.55  1879.33
                             1888.10  1917.84  1944.19  1972.47  2061.37
                             2071.44  2142.85  2191.41  2382.68  2635.48
                             4182.54  4449.60  4495.13  4498.42  4529.83
                             4544.97  4659.87  4693.27  5323.48  5327.76

 Zero-point correction=                           0.175900 (Hartree/Particle)
 Thermal correction to Energy=                    0.186416
 Thermal correction to Enthalpy=                  0.187361
 Thermal correction to Gibbs Free Energy=         0.139437
 Sum of electronic and zero-point Energies=           -611.550985
 Sum of electronic and thermal Energies=              -611.540468
 Sum of electronic and thermal Enthalpies=            -611.539524
 Sum of electronic and thermal Free Energies=         -611.587448

                     E (Thermal)             CV                S
                      KCal/Mol        Cal/Mol-Kelvin    Cal/Mol-Kelvin
 Total                  116.978             40.966            100.865
 Electronic               0.000              0.000              0.000
 Translational            0.889              2.981             41.301
 Rotational               0.889              2.981             30.456
 Vibrational            115.201             35.004             29.108
 Vibration     1          0.597              1.972              4.360
 Vibration     2          0.598              1.969              4.207
 Vibration     3          0.602              1.955              3.629
 Vibration     4          0.630              1.866              2.318
 Vibration     5          0.644              1.822              2.021
 Vibration     6          0.678              1.716              1.553
 Vibration     7          0.711              1.619              1.270
 Vibration     8          0.718              1.601              1.225
 Vibration     9          0.737              1.548              1.107
 Vibration    10          0.753              1.505              1.024
 Vibration    11          0.808              1.364              0.800
 Vibration    12          0.827              1.316              0.737
 Vibration    13          0.867              1.225              0.630
 Vibration    14          0.872              1.213              0.618
 Vibration    15          0.952              1.044              0.460

                           ! Non-Optimized Parameters !

 1\1\GINC-NODE353\Freq\RB3LYP\6-31G(d)\C8H10O4\VSC10255\09-Dec-2020\0\\
 #N Geom=AllCheck Guess=TCheck SCRF=Check GenChk RB3LYP/6-31G(d) Freq\\
 CID_134437382_JID_2983_neutraal\\0,1\C,0.3590019069,1.2805435549,0.037
 9758579\C,1.4013226869,0.1234645528,0.1258636727\C,0.5361884153,-1.074
 6582972,-0.4327898059\C,-0.50687815,-1.3911580264,0.6257560012\C,-1.39
 29419994,-0.3931144974,0.5614727786\C,-0.8875028396,0.5377382731,-0.52
 98934908\O,-0.2417905312,-0.400381935,-1.4363712518\C,-1.9018604734,1.
 3348520765,-1.3394503187\O,-1.257707694,2.0220496686,-2.3861791951\O,-

 Normal termination of Gaussian 16 at Wed Dec  9 18:26:05 2020.

 ----------------------------------------------------------------------
 # B3LYP/6-311++G(d,p) empiricaldispersion=gd3bj scf=xqc pop=npa geom=c
 heck
 ----------------------------------------------------------------------

 ---------------------------------------
 CID_134437382_JID_2983_Energie_neutraal
 ---------------------------------------
 Structure from the checkpoint file:  "JID_2983.chk"
 Charge =  0 Multiplicity = 1

 SCF Done:  E(RB3LYP) =  -611.922297089     A.U. after   14 cycles
 Normal termination of Gaussian 16 at Wed Dec  9 18:28:10 2020.

 ----------------------------------------------------------------------
 # B3LYP/6-311++G(d,p) empiricaldispersion=gd3bj scf=xqc pop=npa geom=c
 heck
 ----------------------------------------------------------------------

 -------------------------------------
 CID_134437382_JID_2983_Energie_kation
 -------------------------------------
 Structure from the checkpoint file:  "JID_2983.chk"
 Charge =  1 Multiplicity = 2

 SCF Done:  E(UB3LYP) =  -611.577225569     A.U. after   26 cycles
 Normal termination of Gaussian 16 at Wed Dec  9 18:32:04 2020.
 Gaussian 16:  ES64L-G16RevA.03 25-Dec-2016

 ------------------------------------
 CID_134437382_JID_2983_Energie_anion
 ------------------------------------
 Structure from the checkpoint file:  "JID_2983.chk"
 Charge = -1 Multiplicity = 2

                         Standard orientation:
 ---------------------------------------------------------------------
 Center     Atomic      Atomic             Coordinates (Angstroms)
 Number     Number       Type             X           Y           Z
 ---------------------------------------------------------------------
      1          6           0       -0.443711   -0.389061    1.153236
      2          6           0       -1.638458    0.243902    0.375467
      3          6           0       -0.855015    1.023364   -0.753561
      4          6           0       -0.154343    2.188143   -0.074570
      5          6           0        0.860975    1.645756    0.603868
      6          6           0        0.776199    0.149152    0.346913
      7          8           0        0.232104    0.116085   -1.002748
      8          6           0        2.062259   -0.666775    0.344073
      9          8           0        1.797161   -1.992350   -0.050122
     10          8           0        3.023849   -0.024518   -0.457247
     11          6           0       -2.524358   -0.812513   -0.238070
     12          8           0       -3.722442   -0.881703   -0.078280
     13          1           0       -0.426260   -0.094590    2.204414
     14          1           0       -0.452410   -1.481354    1.096856
     15          1           0       -2.255646    0.909390    0.982329
     16          1           0       -1.411727    1.220510   -1.669494
     17          1           0       -0.500501    3.214531   -0.077639
     18          1           0        1.559799    2.119319    1.281840
     19          1           0        2.489804   -0.733451    1.347316
     20          1           0        1.277005   -1.939373   -0.871040
     21          1           0        2.558152    0.296279   -1.249362
     22          1           0       -1.984877   -1.543194   -0.882178
 ---------------------------------------------------------------------

 SCF Done:  E(UB3LYP) =  -611.913255316     A.U. after   33 cycles
 SCF Done:  E(UB3LYP) =  -611.913255316     a.u. after    1 cycles

 The electronic state is 2-A.
 Alpha  occ. eigenvalues --  -19.03607 -19.03549 -19.03322 -18.99028 -10.17802
 Alpha  occ. eigenvalues --  -10.13725 -10.13055 -10.12238 -10.07874 -10.07826
 Alpha  occ. eigenvalues --  -10.07043 -10.06911  -0.98381  -0.95533  -0.92294
 Alpha  occ. eigenvalues --   -0.90809  -0.71582  -0.66953  -0.66354  -0.57787
 Alpha  occ. eigenvalues --   -0.52947  -0.48586  -0.46857  -0.45990  -0.43714
 Alpha  occ. eigenvalues --   -0.43283  -0.39258  -0.37565  -0.35060  -0.34331
 Alpha  occ. eigenvalues --   -0.32998  -0.31774  -0.31024  -0.29135  -0.28080
 Alpha  occ. eigenvalues --   -0.26981  -0.26258  -0.25193  -0.24944  -0.23327
 Alpha  occ. eigenvalues --   -0.20804  -0.19884  -0.18181  -0.15664  -0.13314
 Alpha  occ. eigenvalues --    0.04823
 Alpha virt. eigenvalues --    0.06846   0.07753   0.08262   0.09138   0.09620
 Alpha virt. eigenvalues --    0.09997   0.10721   0.10810   0.12556   0.12653
 Alpha virt. eigenvalues --    0.13695   0.15624   0.16479   0.17092   0.17314

  Beta  occ. eigenvalues --  -19.03589 -19.03540 -19.03314 -18.98771 -10.17790
  Beta  occ. eigenvalues --  -10.13723 -10.12991 -10.12010 -10.07890 -10.07806
  Beta  occ. eigenvalues --  -10.07014 -10.06841  -0.98352  -0.95501  -0.91811
  Beta  occ. eigenvalues --   -0.90787  -0.71486  -0.66813  -0.66269  -0.57728
  Beta  occ. eigenvalues --   -0.52643  -0.48455  -0.46767  -0.45788  -0.43602
  Beta  occ. eigenvalues --   -0.43202  -0.39135  -0.37516  -0.34923  -0.34224
  Beta  occ. eigenvalues --   -0.32808  -0.31660  -0.30769  -0.28873  -0.27745
  Beta  occ. eigenvalues --   -0.26917  -0.26216  -0.24937  -0.24460  -0.23093
  Beta  occ. eigenvalues --   -0.20775  -0.19867  -0.18075  -0.15429  -0.13114
  Beta virt. eigenvalues --    0.07581   0.08503   0.08760   0.09249   0.09524
  Beta virt. eigenvalues --    0.10079   0.10720   0.11021   0.11427   0.12572
  Beta virt. eigenvalues --    0.12728   0.13919   0.15651   0.16454   0.17112

 Mulliken charges and spin densities:
               1          2
     1  C    0.389419  -1.043474
     2  C   -0.148488   0.271736
     3  C   -0.406808   0.583898
     4  C    2.447697  -2.966062
     5  C   -1.985576   1.774173
     6  C    0.935216  -0.746476
     7  O   -0.138678  -0.012729
     8  C    0.518336  -0.822113
     9  O   -0.171710   0.003535
    10  O   -0.184207   0.016474
    11  C    0.067013  -0.169754
    12  O   -0.309122   0.081532
    13  H   -0.128416   0.291968
    14  H    0.207888  -0.031939
    15  H    0.071192   0.176634
    16  H   -0.634974   0.903685
    17  H   -1.006615   1.174468
    18  H   -0.934950   1.105906
    19  H    0.012645   0.201335
    20  H    0.212744   0.054650
    21  H    0.189514   0.065960
    22  H   -0.002123   0.086595
 Sum of Mulliken charges =  -1.00000   1.00000

 Dipole moment (field-independent basis, Debye):
    X=              1.8612    Y=             -4.5134    Z=             -0.2394  Tot=              4.8879
 Quadrupole moment (field-independent basis, Debye-Ang):
   XX=           -127.7338   YY=           -115.7659   ZZ=            -97.5856
   XY=             -2.6895   XZ=             -5.5860   YZ=             -2.0775

 Summary of Natural Population Analysis:

                                       Natural Population
                Natural  -----------------------------------------------
    Atom  No    Charge         Core      Valence    Rydberg      Total
 -----------------------------------------------------------------------
      C    1   -0.19046      0.99957     2.18117    0.00972     3.19046
      C    2   -0.16459      0.99957     2.15225    0.01277     3.16459
      C    3    0.05758      0.99956     1.92531    0.01755     2.94242
      C    4   -0.09661      0.99950     2.08652    0.01059     3.09661
      C    5   -0.09130      0.99946     2.07897    0.01287     3.09130
      C    6    0.09598      0.99953     1.88510    0.01939     2.90402
      O    7   -0.31988      0.99989     3.31081    0.00919     4.31988
      C    8    0.20856      0.99949     1.77293    0.01902     2.79144
      O    9   -0.36811      0.99990     3.36284    0.00537     4.36811
      O   10   -0.36549      0.99990     3.36026    0.00534     4.36549
      C   11    0.25419      0.99969     1.72561    0.02051     2.74581
      O   12   -0.26046      0.99988     3.25386    0.00673     4.26046
      H   13    0.10739      0.00000     0.39166    0.00095     0.39261
      H   14    0.10808      0.00000     0.39045    0.00146     0.39192
      H   15    0.10906      0.00000     0.38936    0.00158     0.39094
      H   16    0.10430      0.00000     0.39373    0.00197     0.39570
      H   17    0.10958      0.00000     0.38689    0.00352     0.39042
      H   18    0.11216      0.00000     0.38466    0.00318     0.38784
      H   19    0.08312      0.00000     0.41518    0.00169     0.41688
      H   20    0.23229      0.00000     0.26454    0.00317     0.26771
      H   21    0.23326      0.00000     0.26336    0.00338     0.26674
      H   22    0.04132      0.00000     0.45648    0.00220     0.45868
 =======================================================================
   * Total *    0.00000     11.99594    32.83191    0.17215    45.00000

 Normal termination of Gaussian 16 at Wed Dec  9 18:36:48 2020.
