 Gaussian 16, Revision A.03,

 -----------------------------------------------------------
 # opt freq B3LYP/6-31G(d) empiricaldispersion=gd3bj scf=xqc
 -----------------------------------------------------------

 --------------------------------
 CID_105022245_JID_10299_neutraal
 --------------------------------
 Symbolic Z-matrix:
 Charge =  0 Multiplicity = 1

 SCF Done:  E(RB3LYP) =  -866.900268258     A.U. after   14 cycles
 SCF Done:  E(RB3LYP) =  -866.905640084     A.U. after   12 cycles
 SCF Done:  E(RB3LYP) =  -866.906514893     A.U. after   12 cycles
 SCF Done:  E(RB3LYP) =  -866.907248084     A.U. after   12 cycles
 SCF Done:  E(RB3LYP) =  -866.907807029     A.U. after   13 cycles
 SCF Done:  E(RB3LYP) =  -866.908165811     A.U. after   12 cycles
 SCF Done:  E(RB3LYP) =  -866.909512458     A.U. after   12 cycles
 SCF Done:  E(RB3LYP) =  -866.910815153     A.U. after   14 cycles
 SCF Done:  E(RB3LYP) =  -866.911145677     A.U. after   12 cycles
 SCF Done:  E(RB3LYP) =  -866.911396883     A.U. after   12 cycles
 SCF Done:  E(RB3LYP) =  -866.911524243     A.U. after    7 cycles
 SCF Done:  E(RB3LYP) =  -866.911524315     A.U. after    6 cycles
 SCF Done:  E(RB3LYP) =  -866.911524394     A.U. after    7 cycles
 SCF Done:  E(RB3LYP) =  -866.911524442     A.U. after    6 cycles
 SCF Done:  E(RB3LYP) =  -866.911524466     A.U. after    6 cycles
 Optimization completed.
    -- Stationary point found.
 Normal termination of Gaussian 16 at Mon Dec 14 17:49:34 2020.

 --------------------------------------------------------------------
 #N Geom=AllCheck Guess=TCheck SCRF=Check GenChk RB3LYP/6-31G(d) Freq
 --------------------------------------------------------------------

 Structure from the checkpoint file:  "JID_10299.chk"
 --------------------------------
 CID_105022245_JID_10299_neutraal
 --------------------------------
 Charge =  0 Multiplicity = 1

 SCF Done:  E(RB3LYP) =  -866.911524466     A.U. after    1 cycles

  Exact polarizability: 250.954  -6.924 163.550  -0.864  -7.666 154.970
 Approx polarizability: 323.024 -18.908 229.362  -3.588 -18.557 266.647

                      1                      2                      3
                      A                      A                      A
 Frequencies --     13.3837                29.4359                36.5665
 Red. masses --      4.2654                 3.0164                 3.4431
 Frc consts  --      0.0005                 0.0015                 0.0027
 IR Inten    --      0.0776                 0.2080                 0.3321

                      4                      5                      6
                      A                      A                      A
 Frequencies --     45.3349                53.1330                67.8876
 Red. masses --      3.6831                 3.7330                 4.0423
 Frc consts  --      0.0045                 0.0062                 0.0110
 IR Inten    --      1.0663                 0.2221                 0.1666

                      7                      8                      9
                      A                      A                      A
 Frequencies --     79.3303               116.9327               120.4358
 Red. masses --      2.8072                 1.5122                 2.8941
 Frc consts  --      0.0104                 0.0122                 0.0247
 IR Inten    --      1.1392                 0.2288                 0.0659

                     10                     11                     12
                      A                      A                      A
 Frequencies --    131.3489               169.0039               196.1967
 Red. masses --      1.6776                 2.7028                 2.0429
 Frc consts  --      0.0171                 0.0455                 0.0463
 IR Inten    --      0.2556                 0.3977                 0.5177

                     13                     14                     15
                      A                      A                      A
 Frequencies --    200.7226               213.0498               227.3423
 Red. masses --      2.0041                 1.7922                 2.3651
 Frc consts  --      0.0476                 0.0479                 0.0720
 IR Inten    --      0.4152                 0.5468                 1.0591

                     16                     17                     18
                      A                      A                      A
 Frequencies --    239.0778               255.3833               277.1472
 Red. masses --      4.6077                 2.4256                 2.6580
 Frc consts  --      0.1552                 0.0932                 0.1203
 IR Inten    --      0.8404                 0.4933                 2.3165

                     19                     20                     21
                      A                      A                      A
 Frequencies --    300.4675               314.1028               339.5782
 Red. masses --      2.1134                 2.6558                 3.6446
 Frc consts  --      0.1124                 0.1544                 0.2476
 IR Inten    --      3.0192                 0.9880                 1.7370

                     22                     23                     24
                      A                      A                      A
 Frequencies --    360.9732               402.5919               413.9745
 Red. masses --      3.0773                 3.7245                 2.8129
 Frc consts  --      0.2363                 0.3557                 0.2840
 IR Inten    --      0.9676                 2.1770                 0.4406

                     25                     26                     27
                      A                      A                      A
 Frequencies --    467.5964               487.7716               538.6440
 Red. masses --      3.1328                 3.9843                 3.3405
 Frc consts  --      0.4036                 0.5585                 0.5710
 IR Inten    --      1.0174                 0.5293                 0.4770

                     28                     29                     30
                      A                      A                      A
 Frequencies --    577.0423               612.8939               622.4846
 Red. masses --      4.2500                 4.4171                 3.8373
 Frc consts  --      0.8338                 0.9776                 0.8761
 IR Inten    --      4.7882                 3.4164                 2.4764

                     31                     32                     33
                      A                      A                      A
 Frequencies --    637.6507               669.5923               687.3901
 Red. masses --      4.1062                 3.6087                 3.7643
 Frc consts  --      0.9837                 0.9533                 1.0480
 IR Inten    --      5.3082                 8.8578                 8.9677

                     34                     35                     36
                      A                      A                      A
 Frequencies --    712.4851               740.6931               757.5379
 Red. masses --      2.1730                 2.0264                 1.5199
 Frc consts  --      0.6499                 0.6550                 0.5139
 IR Inten    --     20.2096                19.1455                 9.5020

                     37                     38                     39
                      A                      A                      A
 Frequencies --    779.5062               784.5138               807.3264
 Red. masses --      1.4792                 1.6040                 1.9747
 Frc consts  --      0.5296                 0.5817                 0.7583
 IR Inten    --      6.8812                36.4308                87.9586

                     40                     41                     42
                      A                      A                      A
 Frequencies --    816.2690               829.0966               845.6849
 Red. masses --      1.8350                 1.2360                 1.5376
 Frc consts  --      0.7204                 0.5006                 0.6479
 IR Inten    --     18.4993                 9.9579                15.7334

                     43                     44                     45
                      A                      A                      A
 Frequencies --    878.1631               886.8539               895.6441
 Red. masses --      1.5029                 2.3622                 1.6684
 Frc consts  --      0.6829                 1.0946                 0.7885
 IR Inten    --      1.9610                25.4588                13.3620

                     46                     47                     48
                      A                      A                      A
 Frequencies --    909.7849               925.6194               944.0045
 Red. masses --      2.3536                 1.3988                 2.9198
 Frc consts  --      1.1478                 0.7061                 1.5330
 IR Inten    --      2.3588                21.9250                28.2547

                     49                     50                     51
                      A                      A                      A
 Frequencies --    959.1501               961.8067              1014.3094
 Red. masses --      1.3775                 2.1129                 1.8357
 Frc consts  --      0.7467                 1.1516                 1.1128
 IR Inten    --      1.0159                 5.8768                15.2192

                     52                     53                     54
                      A                      A                      A
 Frequencies --   1017.7127              1020.9583              1034.5013
 Red. masses --      5.6330                 1.5424                 3.1684
 Frc consts  --      3.4375                 0.9473                 1.9978
 IR Inten    --      1.7488                 3.6990                 0.1686

                     55                     56                     57
                      A                      A                      A
 Frequencies --   1073.5154              1081.0470              1083.7009
 Red. masses --      2.9338                 1.4599                 3.1722
 Frc consts  --      1.9920                 1.0052                 2.1950
 IR Inten    --     11.4242                 2.2488                50.6376

                     58                     59                     60
                      A                      A                      A
 Frequencies --   1128.1431              1133.2423              1140.1027
 Red. masses --      1.7632                 1.8989                 2.9099
 Frc consts  --      1.3221                 1.4368                 2.2285
 IR Inten    --     18.8684                32.7453                55.3202

                     61                     62                     63
                      A                      A                      A
 Frequencies --   1152.7313              1167.0986              1170.7610
 Red. masses --      1.7462                 2.3576                 3.3624
 Frc consts  --      1.3671                 1.8921                 2.7154
 IR Inten    --      9.2390                47.8252                19.6538

                     64                     65                     66
                      A                      A                      A
 Frequencies --   1180.0456              1187.5104              1206.9585
 Red. masses --      1.8167                 1.8849                 1.3046
 Frc consts  --      1.4905                 1.5660                 1.1197
 IR Inten    --      6.7179                28.5141                 5.4622

                     67                     68                     69
                      A                      A                      A
 Frequencies --   1214.6175              1241.2735              1274.0865
 Red. masses --      1.4721                 2.0292                 1.2871
 Frc consts  --      1.2796                 1.8420                 1.2310
 IR Inten    --      7.1247                 7.6792                 1.1795

                     70                     71                     72
                      A                      A                      A
 Frequencies --   1278.8924              1295.9054              1312.0438
 Red. masses --      1.8941                 2.6011                 1.2425
 Frc consts  --      1.8252                 2.5737                 1.2602
 IR Inten    --     41.8561               199.6492                 8.8335

                     73                     74                     75
                      A                      A                      A
 Frequencies --   1317.8394              1338.4357              1350.8068
 Red. masses --      1.9223                 1.3328                 1.4960
 Frc consts  --      1.9670                 1.4067                 1.6083
 IR Inten    --      5.8010                41.2773                31.0165

                     76                     77                     78
                      A                      A                      A
 Frequencies --   1367.5640              1379.6457              1394.0307
 Red. masses --      1.3014                 3.4080                 1.3854
 Frc consts  --      1.4340                 3.8219                 1.5862
 IR Inten    --      8.3188                53.9725                 4.3108

                     79                     80                     81
                      A                      A                      A
 Frequencies --   1417.9956              1421.7159              1423.6878
 Red. masses --      2.7548                 1.2942                 1.5955
 Frc consts  --      3.2636                 1.5413                 1.9053
 IR Inten    --      0.7268                 0.1112                 0.3189

                     82                     83                     84
                      A                      A                      A
 Frequencies --   1443.4980              1443.7267              1444.0644
 Red. masses --      1.2962                 1.2776                 1.2790
 Frc consts  --      1.5913                 1.5689                 1.5714
 IR Inten    --     27.7144                10.4475                 5.2980

                     85                     86                     87
                      A                      A                      A
 Frequencies --   1500.3506              1503.3698              1506.3622
 Red. masses --      2.7046                 1.0432                 1.1955
 Frc consts  --      3.5870                 1.3892                 1.5983
 IR Inten    --     37.6627                 5.9671                28.2968

                     88                     89                     90
                      A                      A                      A
 Frequencies --   1512.2675              1516.7313              1520.0905
 Red. masses --      1.1071                 1.0540                 1.1217
 Frc consts  --      1.4917                 1.4286                 1.5271
 IR Inten    --     21.5215                 8.0084                 6.8571

                     91                     92                     93
                      A                      A                      A
 Frequencies --   1529.7027              1532.2999              1537.8099
 Red. masses --      1.0667                 1.0527                 1.8820
 Frc consts  --      1.4707                 1.4563                 2.6223
 IR Inten    --     16.4638                 1.1346                41.6326

                     94                     95                     96
                      A                      A                      A
 Frequencies --   1541.5046              1546.4864              1549.2819
 Red. masses --      1.1403                 1.0588                 1.1716
 Frc consts  --      1.5965                 1.4920                 1.6569
 IR Inten    --     15.4189                 4.2110                12.4373

                     97                     98                     99
                      A                      A                      A
 Frequencies --   1604.1194              1643.5484              1670.3827
 Red. masses --      5.2767                 5.6145                 6.2991
 Frc consts  --      8.0000                 8.9357                10.3553
 IR Inten    --     22.8732                56.3793                99.6932

                    100                    101                    102
                      A                      A                      A
 Frequencies --   1672.0974              2964.6934              3014.6352
 Red. masses --      6.4486                 1.0714                 1.0832
 Frc consts  --     10.6228                 5.5484                 5.8002
 IR Inten    --      7.8094                52.2687                21.4879

                    103                    104                    105
                      A                      A                      A
 Frequencies --   3041.1350              3042.6606              3043.9092
 Red. masses --      1.0609                 1.0405                 1.0382
 Frc consts  --      5.7808                 5.6756                 5.6675
 IR Inten    --     18.7686                23.6709                45.2202

                    106                    107                    108
                      A                      A                      A
 Frequencies --   3047.1130              3058.6925              3061.2834
 Red. masses --      1.0675                 1.0854                 1.0363
 Frc consts  --      5.8396                 5.9830                 5.7220
 IR Inten    --     43.2081                49.1844                16.9489

                    109                    110                    111
                      A                      A                      A
 Frequencies --   3080.3268              3092.9489              3109.7382
 Red. masses --      1.1017                 1.1015                 1.1029
 Frc consts  --      6.1588                 6.2084                 6.2840
 IR Inten    --      9.9678                18.5896                57.7317

                    112                    113                    114
                      A                      A                      A
 Frequencies --   3111.7370              3113.8564              3130.4606
 Red. masses --      1.0983                 1.1011                 1.1011
 Frc consts  --      6.2660                 6.2904                 6.3576
 IR Inten    --     17.9432                51.0463                32.4163

                    115                    116                    117
                      A                      A                      A
 Frequencies --   3141.2908              3145.6281              3183.2289
 Red. masses --      1.0992                 1.1034                 1.0862
 Frc consts  --      6.3909                 6.4326                 6.4846
 IR Inten    --     12.1874                40.3704                 8.9849

                    118                    119                    120
                      A                      A                      A
 Frequencies --   3198.1312              3200.6059              3230.0294
 Red. masses --      1.0902                 1.0935                 1.0916
 Frc consts  --      6.5697                 6.5998                 6.7099
 IR Inten    --     10.9857                13.1416                15.7997

                    121                    122                    123
                      A                      A                      A
 Frequencies --   3281.1608              3306.1647              3495.3153
 Red. masses --      1.0967                 1.0982                 1.0732
 Frc consts  --      6.9566                 7.0729                 7.7251
 IR Inten    --      2.8705                 0.3647                 0.4772

 - Thermochemistry -
 -------------------
 Temperature   298.150 Kelvin.  Pressure   1.00000 Atm.
 Atom     1 has atomic number  6 and mass  12.00000

 Molecular mass:   273.17288 amu.
 Principal axes and moments of inertia in atomic units:
                           1         2         3
     Eigenvalues --  4219.193389800.09604**********
           X            0.99996  -0.00844   0.00153
           Y            0.00843   0.99996   0.00392
           Z           -0.00156  -0.00391   0.99999
 This molecule is an asymmetric top.
 Rotational symmetry number  1.
 Warning -- assumption of classical behavior for rotation
           may cause significant error
 Rotational temperatures (Kelvin)      0.02053     0.00884     0.00686
 Rotational constants (GHZ):           0.42775     0.18416     0.14303
 Zero-point vibrational energy     977779.3 (Joules/Mol)
                                  233.69485 (Kcal/Mol)
 Warning -- explicit consideration of  29 degrees of freedom as
           vibrations may cause significant error
 Vibrational temperatures:     19.26    42.35    52.61    65.23    76.45
          (Kelvin)             97.68   114.14   168.24   173.28   188.98
                              243.16   282.28   288.80   306.53   327.09
                              343.98   367.44   398.75   432.31   451.92
                              488.58   519.36   579.24   595.62   672.77
                              701.79   774.99   830.24   881.82   895.62
                              917.44   963.39   989.00  1025.11  1065.69
                             1089.93  1121.54  1128.74  1161.56  1174.43
                             1192.89  1216.75  1263.48  1275.98  1288.63
                             1308.98  1331.76  1358.21  1380.00  1383.83
                             1459.36  1464.26  1468.93  1488.42  1544.55
                             1555.39  1559.20  1623.15  1630.48  1640.35
                             1658.52  1679.19  1684.46  1697.82  1708.56
                             1736.54  1747.56  1785.92  1833.13  1840.04
                             1864.52  1887.74  1896.08  1925.71  1943.51
                             1967.62  1985.00  2005.70  2040.18  2045.53
                             2048.37  2076.87  2077.20  2077.69  2158.67
                             2163.01  2167.32  2175.82  2182.24  2187.07
                             2200.90  2204.64  2212.57  2217.88  2225.05
                             2229.07  2307.97  2364.70  2403.31  2405.78
                             4265.53  4337.39  4375.51  4377.71  4379.51
                             4384.12  4400.78  4404.50  4431.90  4450.06
                             4474.22  4477.10  4480.14  4504.03  4519.62
                             4525.86  4579.96  4601.40  4604.96  4647.29
                             4720.86  4756.83  5028.98

 Zero-point correction=                           0.372416 (Hartree/Particle)
 Thermal correction to Energy=                    0.392918
 Thermal correction to Enthalpy=                  0.393862
 Thermal correction to Gibbs Free Energy=         0.320361
 Sum of electronic and zero-point Energies=           -866.539108
 Sum of electronic and thermal Energies=              -866.518607
 Sum of electronic and thermal Enthalpies=            -866.517663
 Sum of electronic and thermal Free Energies=         -866.591163

                     E (Thermal)             CV                S
                      KCal/Mol        Cal/Mol-Kelvin    Cal/Mol-Kelvin
 Total                  246.559             76.499            154.694
 Electronic               0.000              0.000              0.000
 Translational            0.889              2.981             42.714
 Rotational               0.889              2.981             34.611
 Vibrational            244.782             70.537             77.370
 Vibration     1          0.593              1.987              7.432
 Vibration     2          0.593              1.984              5.867
 Vibration     3          0.594              1.982              5.437
 Vibration     4          0.595              1.979              5.011
 Vibration     5          0.596              1.976              4.697
 Vibration     6          0.598              1.970              4.214
 Vibration     7          0.600              1.963              3.907
 Vibration     8          0.608              1.935              3.150
 Vibration     9          0.609              1.932              3.093
 Vibration    10          0.612              1.922              2.926
 Vibration    11          0.625              1.881              2.447
 Vibration    12          0.636              1.845              2.168
 Vibration    13          0.638              1.839              2.126
 Vibration    14          0.644              1.821              2.017
 Vibration    15          0.651              1.799              1.900
 Vibration    16          0.657              1.781              1.810
 Vibration    17          0.666              1.754              1.693
 Vibration    18          0.678              1.716              1.551
 Vibration    19          0.693              1.673              1.414
 Vibration    20          0.702              1.647              1.341
 Vibration    21          0.719              1.596              1.214
 Vibration    22          0.735              1.553              1.118
 Vibration    23          0.768              1.465              0.953
 Vibration    24          0.778              1.440              0.913
 Vibration    25          0.825              1.322              0.744
 Vibration    26          0.844              1.277              0.689
 Vibration    27          0.894              1.165              0.568
 Vibration    28          0.934              1.081              0.491
 Vibration    29          0.972              1.005              0.428

                           ! Non-Optimized Parameters !
 Normal termination of Gaussian 16 at Mon Dec 14 18:11:05 2020.

 ----------------------------------------------------------------------
 # B3LYP/6-311++G(d,p) empiricaldispersion=gd3bj scf=xqc pop=npa geom=c
 heck
 ----------------------------------------------------------------------

 ----------------------------------------
 CID_105022245_JID_10299_Energie_neutraal
 ----------------------------------------
 Structure from the checkpoint file:  "JID_10299.chk"
 Charge =  0 Multiplicity = 1

 SCF Done:  E(RB3LYP) =  -867.148451388     A.U. after   15 cycles
 Normal termination of Gaussian 16 at Mon Dec 14 18:22:08 2020.

 ----------------------------------------------------------------------
 # B3LYP/6-311++G(d,p) empiricaldispersion=gd3bj scf=xqc pop=npa geom=c
 heck
 ----------------------------------------------------------------------

 --------------------------------------
 CID_105022245_JID_10299_Energie_kation
 --------------------------------------
 Structure from the checkpoint file:  "JID_10299.chk"
 Charge =  1 Multiplicity = 2

 SCF Done:  E(UB3LYP) =  -866.876909642     A.U. after   22 cycles
 Normal termination of Gaussian 16 at Mon Dec 14 18:44:53 2020.
 Gaussian 16:  ES64L-G16RevA.03 25-Dec-2016

 ----------------------------------------------------------------------
 # B3LYP/6-311++G(d,p) empiricaldispersion=gd3bj scf=xqc pop=npa geom=c
 heck
 ----------------------------------------------------------------------

 -------------------------------------
 CID_105022245_JID_10299_Energie_anion
 -------------------------------------
 Structure from the checkpoint file:  "JID_10299.chk"
 Charge = -1 Multiplicity = 2

                         Standard orientation:
 ---------------------------------------------------------------------
 Center     Atomic      Atomic             Coordinates (Angstroms)
 Number     Number       Type             X           Y           Z
 ---------------------------------------------------------------------
      1          6           0       -1.212985    4.356435    0.984979
      2          6           0       -0.907536    4.055926   -0.486181
      3          6           0       -0.354741    2.648963   -0.720138
      4          7           0       -1.340797    1.627105   -0.372987
      5          6           0       -0.913613    0.251036   -0.668975
      6          6           0        0.399935   -0.153778   -0.005035
      7          6           0        1.509202   -0.474388   -0.779107
      8          6           0        2.734098   -0.813690   -0.185191
      9          6           0        2.847160   -0.821714    1.208628
     10          6           0        1.729683   -0.495720    1.984376
     11          6           0        0.516342   -0.163981    1.393894
     12          8           0        3.735219   -1.129136   -1.058995
     13          6           0        5.045211   -1.395640   -0.557151
     14          6           0        5.794896   -0.121681   -0.185149
     15          6           0       -2.039981   -0.687134   -0.324624
     16          6           0       -1.971339   -1.911995    0.267973
     17          8           0       -3.218501   -2.462445    0.378681
     18          6           0       -4.108658   -1.563839   -0.155076
     19          6           0       -3.436799   -0.464830   -0.597395
     20          6           0       -5.543653   -1.954419   -0.133492
     21          1           0       -2.025760    3.726888    1.365645
     22          1           0       -1.522953    5.398427    1.119714
     23          1           0       -0.330304    4.185561    1.614157
     24          1           0       -1.816529    4.183003   -1.086785
     25          1           0       -0.170936    4.779962   -0.858244
     26          1           0       -0.116373    2.522059   -1.784322
     27          1           0        0.596875    2.531854   -0.171161
     28          1           0       -1.563907    1.686318    0.619010
     29          1           0       -0.753462    0.218030   -1.756580
     30          1           0        1.449460   -0.470812   -1.863714
     31          1           0        3.780624   -1.072921    1.697241
     32          1           0        1.820593   -0.504025    3.067305
     33          1           0       -0.344340    0.078669    2.010328
     34          1           0        4.993255   -2.096655    0.285927
     35          1           0        5.550534   -1.908924   -1.379811
     36          1           0        5.294886    0.417320    0.624694
     37          1           0        6.813240   -0.364063    0.139330
     38          1           0        5.855812    0.544601   -1.051238
     39          1           0       -1.155500   -2.504391    0.649897
     40          1           0       -3.859873    0.418118   -1.053469
     41          1           0       -5.716936   -2.880938   -0.694725
     42          1           0       -5.901349   -2.119443    0.890444
     43          1           0       -6.148542   -1.163033   -0.584242
 ---------------------------------------------------------------------

 SCF Done:  E(UB3LYP) =  -867.135985613     A.U. after   33 cycles
 SCF Done:  E(UB3LYP) =  -867.135985613     a.u. after    1 cycles

 The electronic state is 2-A.
 Alpha  occ. eigenvalues --  -19.09909 -19.06585 -14.21590 -10.15071 -10.14192
 Alpha  occ. eigenvalues --  -10.14063 -10.13005 -10.12916 -10.10641 -10.09636
 Alpha  occ. eigenvalues --  -10.09528 -10.09236 -10.09044 -10.08620 -10.08616
 Alpha  occ. eigenvalues --  -10.08513 -10.08206 -10.08047 -10.07903 -10.07711
 Alpha  occ. eigenvalues --   -1.02232  -0.98172  -0.83369  -0.77086  -0.72772
 Alpha  occ. eigenvalues --   -0.70298  -0.69072  -0.68924  -0.67120  -0.64585
 Alpha  occ. eigenvalues --   -0.61438  -0.60130  -0.57577  -0.55955  -0.52656
 Alpha  occ. eigenvalues --   -0.50933  -0.50218  -0.48696  -0.46090  -0.44215
 Alpha  occ. eigenvalues --   -0.43582  -0.41231  -0.40555  -0.39557  -0.38842
 Alpha  occ. eigenvalues --   -0.37734  -0.36712  -0.36412  -0.35568  -0.34756
 Alpha  occ. eigenvalues --   -0.34058  -0.33931  -0.33039  -0.32396  -0.32098
 Alpha  occ. eigenvalues --   -0.31661  -0.31417  -0.30953  -0.29858  -0.29746
 Alpha  occ. eigenvalues --   -0.28744  -0.28252  -0.27516  -0.26883  -0.25894
 Alpha  occ. eigenvalues --   -0.25756  -0.25591  -0.23978  -0.23479  -0.18994
 Alpha  occ. eigenvalues --   -0.17143  -0.15016  -0.14227  -0.13447   0.03740
 Alpha virt. eigenvalues --    0.04864   0.05650   0.06424   0.06866   0.07225
 Alpha virt. eigenvalues --    0.07352   0.07726   0.07963   0.08048   0.08454
 Alpha virt. eigenvalues --    0.08786   0.08983   0.09633   0.09664   0.09912

  Beta  occ. eigenvalues --  -19.09905 -19.06582 -14.21583 -10.15070 -10.14192
  Beta  occ. eigenvalues --  -10.14042 -10.13001 -10.12912 -10.10636 -10.09632
  Beta  occ. eigenvalues --  -10.09496 -10.09226 -10.09044 -10.08612 -10.08594
  Beta  occ. eigenvalues --  -10.08511 -10.08197 -10.08028 -10.07894 -10.07671
  Beta  occ. eigenvalues --   -1.02227  -0.98162  -0.83357  -0.77068  -0.72762
  Beta  occ. eigenvalues --   -0.70279  -0.69041  -0.68903  -0.67096  -0.64553
  Beta  occ. eigenvalues --   -0.61411  -0.60098  -0.57543  -0.55900  -0.52635
  Beta  occ. eigenvalues --   -0.50904  -0.50197  -0.48664  -0.46064  -0.44188
  Beta  occ. eigenvalues --   -0.43564  -0.41212  -0.40531  -0.39535  -0.38825
  Beta  occ. eigenvalues --   -0.37718  -0.36669  -0.36388  -0.35539  -0.34731
  Beta  occ. eigenvalues --   -0.34034  -0.33914  -0.33016  -0.32371  -0.32065
  Beta  occ. eigenvalues --   -0.31642  -0.31392  -0.30925  -0.29825  -0.29723
  Beta  occ. eigenvalues --   -0.28711  -0.28230  -0.27495  -0.26859  -0.25877
  Beta  occ. eigenvalues --   -0.25734  -0.25577  -0.23954  -0.23451  -0.18987
  Beta  occ. eigenvalues --   -0.17112  -0.15007  -0.14208  -0.13427
  Beta virt. eigenvalues --    0.05411   0.05896   0.06217   0.06735   0.06924
  Beta virt. eigenvalues --    0.07425   0.07553   0.07977   0.08209   0.08329
  Beta virt. eigenvalues --    0.08593   0.08939   0.09283   0.09651   0.09900

 Mulliken charges and spin densities:
               1          2
     1  C    0.011113  -0.528015
     2  C   -0.326666  -0.058260
     3  C   -0.204013  -0.037418
     4  N    0.094797   0.033554
     5  C   -0.081926  -0.598369
     6  C    1.351730  -0.145538
     7  C   -1.145919   0.689077
     8  C   -1.109489   0.589882
     9  C    1.297338  -1.118404
    10  C   -0.166654  -0.360984
    11  C   -0.027163  -0.111556
    12  O   -0.104176   0.009984
    13  C   -0.264166   0.047163
    14  C    0.940698  -1.331529
    15  C   -0.108343  -0.817278
    16  C   -0.384286   0.282653
    17  O   -0.051749   0.027451
    18  C   -0.669029   0.457525
    19  C   -0.696797   1.361863
    20  C    1.956659  -2.385998
    21  H   -0.134494   0.290357
    22  H   -0.114236   0.259295
    23  H    0.023888   0.114322
    24  H    0.096597   0.045627
    25  H    0.006394   0.127749
    26  H    0.063825   0.067180
    27  H    0.284548  -0.114145
    28  H    0.354671  -0.246920
    29  H    0.167318   0.014160
    30  H    0.086008   0.098422
    31  H   -0.103341   0.291456
    32  H   -0.408639   0.598068
    33  H    0.036253   0.138211
    34  H   -0.058587   0.190114
    35  H   -0.366253   0.551660
    36  H   -0.261144   0.399483
    37  H   -0.442765   0.586752
    38  H   -0.008188   0.154378
    39  H    0.114438   0.094555
    40  H   -0.149198   0.351945
    41  H   -0.058506   0.212533
    42  H   -0.139831   0.301353
    43  H   -0.300719   0.467646
 Sum of Mulliken charges =  -1.00000   1.00000

 Dipole moment (field-independent basis, Debye):
    X=             -3.1037    Y=              0.7684    Z=             -1.9427  Tot=              3.7413
 Quadrupole moment (field-independent basis, Debye-Ang):
   XX=           -266.5035   YY=           -173.0713   ZZ=           -157.3681
   XY=              3.5272   XZ=             -4.5083   YZ=             -3.0023

 Summary of Natural Population Analysis:

                                       Natural Population
                Natural  -----------------------------------------------
    Atom  No    Charge         Core      Valence    Rydberg      Total
 -----------------------------------------------------------------------
      C    1   -0.28867      0.99967     2.28470    0.00430     3.28867
      C    2   -0.19163      0.99964     2.18453    0.00746     3.19163
      C    3   -0.08683      0.99962     2.07807    0.00913     3.08683
      N    4   -0.33605      0.99974     2.82526    0.01105     3.83605
      C    5   -0.02015      0.99952     2.00739    0.01324     3.02015
      C    6   -0.01275      0.99950     2.00160    0.01164     3.01275
      C    7   -0.11974      0.99946     2.11182    0.00845     3.11974
      C    8    0.16550      0.99938     1.82124    0.01388     2.83450
      C    9   -0.14614      0.99951     2.13774    0.00888     3.14614
      C   10   -0.08713      0.99957     2.07717    0.01039     3.08713
      C   11   -0.12157      0.99950     2.11171    0.01036     3.12157
      O   12   -0.27663      0.99986     3.26733    0.00944     4.27663
      C   13   -0.01194      0.99958     2.00014    0.01222     3.01194
      C   14   -0.30073      0.99966     2.29621    0.00486     3.30073
      C   15   -0.05970      0.99951     2.04924    0.01095     3.05970
      C   16    0.06178      0.99942     1.92694    0.01185     2.93822
      O   17   -0.24026      0.99986     3.23240    0.00801     4.24026
      C   18    0.15172      0.99948     1.83383    0.01497     2.84828
      C   19   -0.14598      0.99945     2.13725    0.00928     3.14598
      C   20   -0.30418      0.99963     2.29964    0.00491     3.30418
      H   21    0.09649      0.00000     0.40237    0.00115     0.40351
      H   22    0.09882      0.00000     0.40016    0.00103     0.40118
      H   23    0.09718      0.00000     0.40149    0.00133     0.40282
      H   24    0.09631      0.00000     0.40225    0.00144     0.40369
      H   25    0.09450      0.00000     0.40427    0.00124     0.40550
      H   26    0.09118      0.00000     0.40754    0.00128     0.40882
      H   27    0.08470      0.00000     0.41354    0.00176     0.41530
      H   28    0.17255      0.00000     0.32393    0.00352     0.32745
      H   29    0.09925      0.00000     0.39897    0.00178     0.40075
      H   30    0.10450      0.00000     0.39392    0.00158     0.39550
      H   31    0.10743      0.00000     0.39106    0.00151     0.39257
      H   32    0.10193      0.00000     0.39702    0.00104     0.39807
      H   33    0.10222      0.00000     0.39592    0.00185     0.39778
      H   34    0.08403      0.00000     0.41432    0.00165     0.41597
      H   35    0.09218      0.00000     0.40649    0.00133     0.40782
      H   36    0.10252      0.00000     0.39596    0.00152     0.39748
      H   37    0.10512      0.00000     0.39279    0.00209     0.39488
      H   38    0.10074      0.00000     0.39826    0.00100     0.39926
      H   39    0.10158      0.00000     0.39734    0.00108     0.39842
      H   40    0.11512      0.00000     0.38379    0.00110     0.38488
      H   41    0.10602      0.00000     0.39262    0.00136     0.39398
      H   42    0.10698      0.00000     0.39158    0.00144     0.39302
      H   43    0.10974      0.00000     0.38908    0.00118     0.39026
 =======================================================================
   * Total *    0.00000     19.99159    53.77890    0.22951    74.00000

 Normal termination of Gaussian 16 at Mon Dec 14 19:19:54 2020.
