 Gaussian 16, Revision A.03,

 -----------------------------------------------------------
 # opt freq B3LYP/6-31G(d) empiricaldispersion=gd3bj scf=xqc
 -----------------------------------------------------------

 ------------------------------
 CID_22951990_JID_3914_neutraal
 ------------------------------
 Symbolic Z-matrix:
 Charge =  0 Multiplicity = 1

 SCF Done:  E(RB3LYP) =  -611.370892067     A.U. after   15 cycles
 SCF Done:  E(RB3LYP) =  -611.379442025     A.U. after   13 cycles
 SCF Done:  E(RB3LYP) =  -611.380955313     A.U. after   12 cycles
 SCF Done:  E(RB3LYP) =  -611.381437757     A.U. after   12 cycles
 SCF Done:  E(RB3LYP) =  -611.381520608     A.U. after   12 cycles
 SCF Done:  E(RB3LYP) =  -611.381617892     A.U. after   10 cycles
 SCF Done:  E(RB3LYP) =  -611.381669990     A.U. after   10 cycles
 SCF Done:  E(RB3LYP) =  -611.381709731     A.U. after   11 cycles
 SCF Done:  E(RB3LYP) =  -611.381719004     A.U. after   10 cycles
 SCF Done:  E(RB3LYP) =  -611.381746379     A.U. after   10 cycles
 SCF Done:  E(RB3LYP) =  -611.382024294     A.U. after   10 cycles
 SCF Done:  E(RB3LYP) =  -611.382023465     A.U. after    9 cycles
 SCF Done:  E(RB3LYP) =  -611.382024568     A.U. after    9 cycles
 SCF Done:  E(RB3LYP) =  -611.382024604     A.U. after    7 cycles
 SCF Done:  E(RB3LYP) =  -611.382024627     A.U. after    7 cycles
 Optimization completed.
    -- Stationary point found.
 Normal termination of Gaussian 16 at Mon Dec 14 13:14:13 2020.

 --------------------------------------------------------------------
 #N Geom=AllCheck Guess=TCheck SCRF=Check GenChk RB3LYP/6-31G(d) Freq
 --------------------------------------------------------------------

 Structure from the checkpoint file:  "JID_3914.chk"
 ------------------------------
 CID_22951990_JID_3914_neutraal
 ------------------------------
 Charge =  0 Multiplicity = 1

 SCF Done:  E(RB3LYP) =  -611.382024627     A.U. after    1 cycles

  Exact polarizability: 150.252  -6.273 127.618   6.677   0.606  69.027
 Approx polarizability: 202.013 -20.299 214.083  13.843   0.855 103.381

                      1                      2                      3
                      A                      A                      A
 Frequencies --     48.8084                57.4021                64.4519
 Red. masses --      3.2949                 1.0754                 3.8653
 Frc consts  --      0.0046                 0.0021                 0.0095
 IR Inten    --      2.2074                 0.3006                 1.8589

                      4                      5                      6
                      A                      A                      A
 Frequencies --     88.4307               113.5787               178.6799
 Red. masses --      2.1776                 3.4455                 3.3423
 Frc consts  --      0.0100                 0.0262                 0.0629
 IR Inten    --      1.5032                 0.5098                 0.0456

                      7                      8                      9
                      A                      A                      A
 Frequencies --    187.3588               216.1444               237.0559
 Red. masses --      2.0814                 1.3455                 1.4640
 Frc consts  --      0.0430                 0.0370                 0.0485
 IR Inten    --      0.2416                 0.8172                 1.1632

                     10                     11                     12
                      A                      A                      A
 Frequencies --    273.7442               299.0037               317.5073
 Red. masses --      3.7222                 3.0243                 2.5569
 Frc consts  --      0.1643                 0.1593                 0.1519
 IR Inten    --      0.5518                 3.9914                 0.0198

                     13                     14                     15
                      A                      A                      A
 Frequencies --    327.7105               339.0694               373.9513
 Red. masses --      2.4647                 1.4009                 2.4514
 Frc consts  --      0.1560                 0.0949                 0.2020
 IR Inten    --      2.1285                60.8656                20.0544

                     16                     17                     18
                      A                      A                      A
 Frequencies --    388.3272               423.3453               477.6006
 Red. masses --      3.5627                 6.1111                 6.1299
 Frc consts  --      0.3165                 0.6453                 0.8238
 IR Inten    --     25.3023                 2.5660                 5.4675

                     19                     20                     21
                      A                      A                      A
 Frequencies --    553.3863               582.1552               605.2797
 Red. masses --      5.0168                 4.3544                 6.8844
 Frc consts  --      0.9052                 0.8695                 1.4860
 IR Inten    --      5.1315                 1.6672                15.3345

                     22                     23                     24
                      A                      A                      A
 Frequencies --    638.2118               676.0376               725.2009
 Red. masses --      3.4109                 5.4070                 4.4342
 Frc consts  --      0.8186                 1.4560                 1.3740
 IR Inten    --      4.6097                 1.7403                10.3886

                     25                     26                     27
                      A                      A                      A
 Frequencies --    749.9391               831.1102               848.9641
 Red. masses --      4.7402                 1.2988                 1.4882
 Frc consts  --      1.5707                 0.5286                 0.6320
 IR Inten    --      9.1360                89.7276                24.5300

                     28                     29                     30
                      A                      A                      A
 Frequencies --    877.3494               955.0401               993.0659
 Red. masses --      2.6686                 2.2237                 2.0934
 Frc consts  --      1.2103                 1.1950                 1.2163
 IR Inten    --     29.4548                19.7369                 7.9511

                     31                     32                     33
                      A                      A                      A
 Frequencies --   1034.9449              1040.3124              1064.3481
 Red. masses --      1.8806                 1.4140                 1.3832
 Frc consts  --      1.1868                 0.9016                 0.9232
 IR Inten    --      8.7842                 6.6080                 1.5613

                     34                     35                     36
                      A                      A                      A
 Frequencies --   1075.3327              1108.1305              1114.8734
 Red. masses --      1.5257                 2.0420                 3.3132
 Frc consts  --      1.0395                 1.4773                 2.4263
 IR Inten    --      1.1438                23.9916                36.8707

                     37                     38                     39
                      A                      A                      A
 Frequencies --   1144.8649              1184.4005              1198.0594
 Red. masses --      2.5613                 2.1237                 2.7271
 Frc consts  --      1.9780                 1.7552                 2.3063
 IR Inten    --     63.5037                35.7266                24.9599

                     40                     41                     42
                      A                      A                      A
 Frequencies --   1254.3296              1267.7161              1274.4945
 Red. masses --      2.3142                 1.5551                 3.2144
 Frc consts  --      2.1453                 1.4725                 3.0763
 IR Inten    --     14.4004                17.7749                18.3801

                     43                     44                     45
                      A                      A                      A
 Frequencies --   1287.1064              1353.6735              1402.7807
 Red. masses --      2.1265                 1.2584                 1.5298
 Frc consts  --      2.0756                 1.3587                 1.7737
 IR Inten    --     91.1281                29.4986                54.4648

                     46                     47                     48
                      A                      A                      A
 Frequencies --   1437.3510              1448.7773              1464.3164
 Red. masses --      1.2695                 1.2752                 2.2075
 Frc consts  --      1.5453                 1.5770                 2.7888
 IR Inten    --      2.3563                 2.7780                 3.9176

                     49                     50                     51
                      A                      A                      A
 Frequencies --   1483.1746              1499.0660              1511.4096
 Red. masses --      1.2217                 1.2555                 1.0478
 Frc consts  --      1.5834                 1.6623                 1.4102
 IR Inten    --      1.7800                63.1668                13.0550

                     52                     53                     54
                      A                      A                      A
 Frequencies --   1513.0714              1519.2468              1521.8232
 Red. masses --      1.4777                 1.3536                 1.0578
 Frc consts  --      1.9932                 1.8408                 1.4434
 IR Inten    --     62.4467                 7.5777                18.9216

                     55                     56                     57
                      A                      A                      A
 Frequencies --   1534.1700              1542.3642              1546.6831
 Red. masses --      1.0426                 1.1258                 1.0556
 Frc consts  --      1.4458                 1.5779                 1.4879
 IR Inten    --      0.5281                28.0882                21.7103

                     58                     59                     60
                      A                      A                      A
 Frequencies --   1553.6918              1579.6038              1685.4928
 Red. masses --      1.5516                 3.8470                 7.3518
 Frc consts  --      2.2068                 5.6555                12.3055
 IR Inten    --     18.8105               267.9874               133.3370

                     61                     62                     63
                      A                      A                      A
 Frequencies --   1776.9436              2956.0367              3005.4209
 Red. masses --     10.0774                 1.0613                 1.0456
 Frc consts  --     18.7477                 5.4638                 5.5643
 IR Inten    --    582.6690               113.0448                48.8506

                     64                     65                     66
                      A                      A                      A
 Frequencies --   3011.5254              3042.2672              3045.8993
 Red. masses --      1.0719                 1.1017                 1.0391
 Frc consts  --      5.7276                 6.0079                 5.6797
 IR Inten    --     68.5629                29.1262                21.6579

                     67                     68                     69
                      A                      A                      A
 Frequencies --   3082.7006              3096.9256              3127.9962
 Red. masses --      1.0720                 1.1004                 1.1038
 Frc consts  --      6.0019                 6.2181                 6.3632
 IR Inten    --     34.6881                17.0796                28.0994

                     70                     71                     72
                      A                      A                      A
 Frequencies --   3142.9059              3158.6986              3162.4070
 Red. masses --      1.0994                 1.0898                 1.0913
 Frc consts  --      6.3984                 6.4063                 6.4301
 IR Inten    --     16.9676                 7.6037                 6.7059

                     73                     74                     75
                      A                      A                      A
 Frequencies --   3227.9605              3513.9647              3764.8373
 Red. masses --      1.0912                 1.0738                 1.0653
 Frc consts  --      6.6990                 7.8122                 8.8964
 IR Inten    --      4.0732                 1.0668                66.2362

 - Thermochemistry -
 -------------------
 Temperature   298.150 Kelvin.  Pressure   1.00000 Atm.
 Atom     1 has atomic number  6 and mass  12.00000

 Molecular mass:   182.10553 amu.
 Principal axes and moments of inertia in atomic units:
                           1         2         3
     Eigenvalues --  1367.476173176.404194310.60753
           X            1.00000  -0.00010   0.00246
           Y            0.00009   1.00000   0.00163
           Z           -0.00246  -0.00163   1.00000
 This molecule is an asymmetric top.
 Rotational symmetry number  1.
 Warning -- assumption of classical behavior for rotation
           may cause significant error
 Rotational temperatures (Kelvin)      0.06334     0.02727     0.02009
 Rotational constants (GHZ):           1.31976     0.56817     0.41867
 Zero-point vibrational energy     599389.0 (Joules/Mol)
                                  143.25740 (Kcal/Mol)
 Warning -- explicit consideration of  21 degrees of freedom as
           vibrations may cause significant error
 Vibrational temperatures:     70.22    82.59    92.73   127.23   163.41
          (Kelvin)            257.08   269.57   310.98   341.07   393.86
                              430.20   456.82   471.50   487.85   538.03
                              558.72   609.10   687.16   796.20   837.59
                              870.86   918.24   972.67  1043.40  1079.00
                             1195.78  1221.47  1262.31  1374.09  1428.80
                             1489.05  1496.78  1531.36  1547.16  1594.35
                             1604.05  1647.21  1704.09  1723.74  1804.70
                             1823.96  1833.71  1851.86  1947.63  2018.29
                             2068.03  2084.47  2106.82  2133.96  2156.82
                             2174.58  2176.97  2185.86  2189.56  2207.33
                             2219.12  2225.33  2235.42  2272.70  2425.05
                             2556.63  4253.08  4324.13  4332.91  4377.14
                             4382.37  4435.32  4455.79  4500.49  4521.94
                             4544.66  4550.00  4644.32  5055.81  5416.76

 Zero-point correction=                           0.228295 (Hartree/Particle)
 Thermal correction to Energy=                    0.242102
 Thermal correction to Enthalpy=                  0.243046
 Thermal correction to Gibbs Free Energy=         0.187627
 Sum of electronic and zero-point Energies=           -611.153729
 Sum of electronic and thermal Energies=              -611.139923
 Sum of electronic and thermal Enthalpies=            -611.138979
 Sum of electronic and thermal Free Energies=         -611.194398

                     E (Thermal)             CV                S
                      KCal/Mol        Cal/Mol-Kelvin    Cal/Mol-Kelvin
 Total                  151.921             50.653            116.640
 Electronic               0.000              0.000              0.000
 Translational            0.889              2.981             41.505
 Rotational               0.889              2.981             31.305
 Vibrational            150.144             44.691             43.830
 Vibration     1          0.595              1.978              4.865
 Vibration     2          0.596              1.975              4.545
 Vibration     3          0.597              1.971              4.316
 Vibration     4          0.601              1.957              3.694
 Vibration     5          0.607              1.938              3.207
 Vibration     6          0.629              1.869              2.342
 Vibration     7          0.632              1.857              2.254
 Vibration     8          0.645              1.816              1.991
 Vibration     9          0.656              1.784              1.825
 Vibration    10          0.676              1.722              1.572
 Vibration    11          0.692              1.676              1.422
 Vibration    12          0.704              1.640              1.323
 Vibration    13          0.711              1.620              1.271
 Vibration    14          0.719              1.597              1.217
 Vibration    15          0.745              1.526              1.064
 Vibration    16          0.757              1.495              1.007
 Vibration    17          0.786              1.419              0.881
 Vibration    18          0.834              1.300              0.717
 Vibration    19          0.909              1.132              0.537
 Vibration    20          0.939              1.070              0.481
 Vibration    21          0.964              1.021              0.441

 Optimization completed.
    -- Stationary point found.
 Normal termination of Gaussian 16 at Mon Dec 14 13:20:21 2020.

 ----------------------------------------------------------------------
 # B3LYP/6-311++G(d,p) empiricaldispersion=gd3bj scf=xqc pop=npa geom=c
 heck
 ----------------------------------------------------------------------

 --------------------------------------
 CID_22951990_JID_3914_Energie_neutraal
 --------------------------------------
 Structure from the checkpoint file:  "JID_3914.chk"
 Charge =  0 Multiplicity = 1

 SCF Done:  E(RB3LYP) =  -611.565606370     A.U. after   16 cycles
 Normal termination of Gaussian 16 at Mon Dec 14 13:22:48 2020.

 ----------------------------------------------------------------------
 # B3LYP/6-311++G(d,p) empiricaldispersion=gd3bj scf=xqc pop=npa geom=c
 heck
 ----------------------------------------------------------------------

 ------------------------------------
 CID_22951990_JID_3914_Energie_kation
 ------------------------------------
 Structure from the checkpoint file:  "JID_3914.chk"
 Charge =  1 Multiplicity = 2

 SCF Done:  E(UB3LYP) =  -611.290478032     A.U. after   24 cycles
 Normal termination of Gaussian 16 at Mon Dec 14 13:27:45 2020.
 Gaussian 16:  ES64L-G16RevA.03 25-Dec-2016

 ----------------------------------------------------------------------
 # B3LYP/6-311++G(d,p) empiricaldispersion=gd3bj scf=xqc pop=npa geom=c
 heck
 ----------------------------------------------------------------------

 -----------------------------------
 CID_22951990_JID_3914_Energie_anion
 -----------------------------------
 Structure from the checkpoint file:  "JID_3914.chk"
 Charge = -1 Multiplicity = 2

                         Standard orientation:
 ---------------------------------------------------------------------
 Center     Atomic      Atomic             Coordinates (Angstroms)
 Number     Number       Type             X           Y           Z
 ---------------------------------------------------------------------
      1          6           0        3.622147    0.727325    0.425652
      2          6           0        2.149159    0.549770    0.154192
      3          6           0        1.337602    1.650912    0.070341
      4          6           0       -0.076959    1.572869   -0.181678
      5          8           0       -0.848435    2.525351   -0.272702
      6          7           0       -0.565273    0.238307   -0.348326
      7          6           0        0.251457   -0.844791   -0.252908
      8          6           0        1.603622   -0.763166   -0.011756
      9          6           0        2.419271   -2.032184    0.073837
     10          8           0       -0.405040   -2.026010   -0.420615
     11          6           0       -2.006486    0.061759   -0.565681
     12          7           0       -2.663604   -0.453658    0.620491
     13          6           0       -4.109522   -0.262966    0.580646
     14          1           0        3.922151    0.224039    1.353008
     15          1           0        3.873101    1.786407    0.521357
     16          1           0        4.232655    0.306410   -0.382607
     17          1           0        1.733869    2.651661    0.196417
     18          1           0        2.065987   -2.706473    0.868890
     19          1           0        2.418664   -2.600133   -0.868838
     20          1           0        3.464442   -1.817034    0.300313
     21          1           0        0.239260   -2.746955   -0.349288
     22          1           0       -2.379919    1.064989   -0.769525
     23          1           0       -2.138731   -0.563953   -1.460978
     24          1           0       -2.449041   -1.443927    0.710575
     25          1           0       -4.609483   -0.702946   -0.302296
     26          1           0       -4.553493   -0.706303    1.477380
     27          1           0       -4.331270    0.809792    0.591098
 ---------------------------------------------------------------------

 SCF Done:  E(UB3LYP) =  -611.561007918     A.U. after   33 cycles
 SCF Done:  E(UB3LYP) =  -611.561007918     a.u. after    1 cycles

 The electronic state is 2-A.
 Alpha  occ. eigenvalues --  -19.06794 -18.97294 -14.26310 -14.20518 -10.17758
 Alpha  occ. eigenvalues --  -10.16260 -10.12988 -10.10078 -10.09741 -10.07484
 Alpha  occ. eigenvalues --  -10.07291 -10.06542 -10.05849  -0.99071  -0.92855
 Alpha  occ. eigenvalues --   -0.85690  -0.80540  -0.73653  -0.66173  -0.63829
 Alpha  occ. eigenvalues --   -0.60589  -0.58800  -0.54696  -0.53490  -0.48897
 Alpha  occ. eigenvalues --   -0.44425  -0.42852  -0.41548  -0.39430  -0.37026
 Alpha  occ. eigenvalues --   -0.34711  -0.34176  -0.32849  -0.32376  -0.32047
 Alpha  occ. eigenvalues --   -0.30946  -0.30867  -0.30470  -0.29243  -0.28823
 Alpha  occ. eigenvalues --   -0.28459  -0.27641  -0.26613  -0.25589  -0.20305
 Alpha  occ. eigenvalues --   -0.17864  -0.15467  -0.14104  -0.09974   0.04074
 Alpha virt. eigenvalues --    0.06581   0.07132   0.07373   0.08926   0.09029
 Alpha virt. eigenvalues --    0.09882   0.10305   0.10936   0.11511   0.11574
 Alpha virt. eigenvalues --    0.12069   0.12308   0.12852   0.13650   0.14322

  Beta  occ. eigenvalues --  -19.06719 -18.97289 -14.26303 -14.20500 -10.17733
  Beta  occ. eigenvalues --  -10.16255 -10.12979 -10.10067 -10.09719 -10.07453
  Beta  occ. eigenvalues --  -10.07298 -10.06447 -10.05846  -0.98939  -0.92834
  Beta  occ. eigenvalues --   -0.85650  -0.80510  -0.73613  -0.66113  -0.63784
  Beta  occ. eigenvalues --   -0.60513  -0.58732  -0.54633  -0.53409  -0.48844
  Beta  occ. eigenvalues --   -0.44333  -0.42825  -0.41507  -0.39385  -0.36978
  Beta  occ. eigenvalues --   -0.34671  -0.34117  -0.32797  -0.32341  -0.31994
  Beta  occ. eigenvalues --   -0.30904  -0.30834  -0.30420  -0.29199  -0.28763
  Beta  occ. eigenvalues --   -0.28386  -0.27604  -0.26574  -0.25546  -0.20241
  Beta  occ. eigenvalues --   -0.17791  -0.15457  -0.14077  -0.09927
  Beta virt. eigenvalues --    0.06592   0.07014   0.07298   0.08400   0.09257
  Beta virt. eigenvalues --    0.09600   0.10314   0.10555   0.11249   0.11695
  Beta virt. eigenvalues --    0.11842   0.12401   0.12744   0.13178   0.14206

 Mulliken charges and spin densities:
               1          2
     1  C    1.047813  -1.800239
     2  C    0.224036   0.413800
     3  C   -0.401132   0.023698
     4  C    0.242292  -0.288816
     5  O   -0.378617   0.000122
     6  N    0.050165   0.012530
     7  C   -0.315947   0.039190
     8  C   -3.158372   3.723714
     9  C    4.193417  -5.093118
    10  O   -0.211396  -0.012889
    11  C   -0.222017  -0.181969
    12  N   -0.171775   0.070954
    13  C   -0.071533  -0.263399
    14  H   -0.003254   0.164398
    15  H   -0.003378   0.156510
    16  H   -0.138134   0.305943
    17  H    0.095019   0.045717
    18  H   -0.486108   0.660348
    19  H   -0.548658   0.730574
    20  H   -0.454869   0.629244
    21  H   -0.663823   1.002896
    22  H    0.240800  -0.017080
    23  H   -0.019831   0.205057
    24  H    0.053384   0.192228
    25  H   -0.004869   0.120138
    26  H   -0.012927   0.139774
    27  H    0.119714   0.020675
 Sum of Mulliken charges =  -1.00000   1.00000

 Dipole moment (field-independent basis, Debye):
    X=             -3.4097    Y=              5.2342    Z=              0.1276  Tot=              6.2481
 Quadrupole moment (field-independent basis, Debye-Ang):
   XX=           -126.2146   YY=           -142.0533   ZZ=           -103.5383
   XY=             14.1382   XZ=              2.2548   YZ=             -0.8286

 Summary of Natural Population Analysis:

                                       Natural Population
                Natural  -----------------------------------------------
    Atom  No    Charge         Core      Valence    Rydberg      Total
 -----------------------------------------------------------------------
      C    1   -0.29739      0.99963     2.29198    0.00578     3.29739
      C    2    0.02790      0.99950     1.96301    0.00959     2.97210
      C    3   -0.16913      0.99946     2.16084    0.00883     3.16913
      C    4    0.31881      0.99961     1.66025    0.02134     2.68119
      O    5   -0.33947      0.99988     3.33437    0.00521     4.33947
      N    6   -0.23053      0.99959     2.72148    0.00946     3.73053
      C    7    0.30116      0.99937     1.68397    0.01550     2.69884
      C    8   -0.10035      0.99944     2.09024    0.01067     3.10035
      C    9   -0.30446      0.99965     2.29782    0.00699     3.30446
      O   10   -0.34456      0.99987     3.33734    0.00735     4.34456
      C   11    0.00293      0.99961     1.98273    0.01473     2.99707
      N   12   -0.33747      0.99974     2.82769    0.01004     3.83747
      C   13   -0.17856      0.99967     2.17216    0.00674     3.17856
      H   14    0.10727      0.00000     0.39178    0.00095     0.39273
      H   15    0.10158      0.00000     0.39762    0.00081     0.39842
      H   16    0.10906      0.00000     0.38979    0.00115     0.39094
      H   17    0.10230      0.00000     0.39625    0.00144     0.39770
      H   18    0.10698      0.00000     0.38990    0.00312     0.39302
      H   19    0.10776      0.00000     0.38861    0.00363     0.39224
      H   20    0.11233      0.00000     0.38563    0.00204     0.38767
      H   21    0.25994      0.00000     0.21733    0.02273     0.24006
      H   22    0.11259      0.00000     0.38581    0.00160     0.38741
      H   23    0.08845      0.00000     0.41029    0.00126     0.41155
      H   24    0.18061      0.00000     0.31543    0.00396     0.31939
      H   25    0.07643      0.00000     0.42172    0.00185     0.42357
      H   26    0.09434      0.00000     0.40478    0.00088     0.40566
      H   27    0.09149      0.00000     0.40738    0.00113     0.40851
 =======================================================================
   * Total *   -0.00000     12.99502    35.82619    0.17879    49.00000

 Normal termination of Gaussian 16 at Mon Dec 14 13:34:28 2020.
