 Gaussian 16, Revision A.03,

 -----------------------------------------------------------
 # opt freq B3LYP/6-31G(d) empiricaldispersion=gd3bj scf=xqc
 -----------------------------------------------------------

 ---------------------------
 CID_136720_JID_367_neutraal
 ---------------------------
 Symbolic Z-matrix:
 Charge =  0 Multiplicity = 1

 SCF Done:  E(RB3LYP) =  -445.045541738     A.U. after   14 cycles
 SCF Done:  E(RB3LYP) =  -445.047680589     A.U. after   11 cycles
 SCF Done:  E(RB3LYP) =  -445.047966239     A.U. after   12 cycles
 SCF Done:  E(RB3LYP) =  -445.048135274     A.U. after   12 cycles
 SCF Done:  E(RB3LYP) =  -445.048204532     A.U. after   10 cycles
 SCF Done:  E(RB3LYP) =  -445.048253345     A.U. after   10 cycles
 SCF Done:  E(RB3LYP) =  -445.048259911     A.U. after   10 cycles
 SCF Done:  E(RB3LYP) =  -445.048262120     A.U. after    9 cycles
 SCF Done:  E(RB3LYP) =  -445.048261895     A.U. after    8 cycles
 SCF Done:  E(RB3LYP) =  -445.048262067     A.U. after    7 cycles
 Optimization completed.
    -- Stationary point found.
 Normal termination of Gaussian 16 at Tue Dec  8 10:29:12 2020.

 --------------------------------------------------------------------
 #N Geom=AllCheck Guess=TCheck SCRF=Check GenChk RB3LYP/6-31G(d) Freq
 --------------------------------------------------------------------

 Structure from the checkpoint file:  "JID_367.chk"
 ---------------------------
 CID_136720_JID_367_neutraal
 ---------------------------
 Charge =  0 Multiplicity = 1

 SCF Done:  E(RB3LYP) =  -445.048262067     A.U. after    1 cycles

  Exact polarizability: 117.264   6.948  86.520   4.463  -1.185  79.883
 Approx polarizability: 142.502  15.477 131.900   9.291  -1.936 117.812

                      1                      2                      3
                      A                      A                      A
 Frequencies --     39.7112                43.7947                55.6347
 Red. masses --      4.0572                 3.7909                 3.6715
 Frc consts  --      0.0038                 0.0043                 0.0067
 IR Inten    --      0.1096                 0.0379                 0.0235

                      4                      5                      6
                      A                      A                      A
 Frequencies --     80.4476               134.2144               143.8569
 Red. masses --      2.8816                 3.4035                 2.3013
 Frc consts  --      0.0110                 0.0361                 0.0281
 IR Inten    --      0.1660                 0.0323                 0.0193

                      7                      8                      9
                      A                      A                      A
 Frequencies --    221.6274               249.8265               289.0470
 Red. masses --      1.4700                 2.9342                 1.7395
 Frc consts  --      0.0425                 0.1079                 0.0856
 IR Inten    --      0.3283                 0.3113                 1.2952

                     10                     11                     12
                      A                      A                      A
 Frequencies --    331.2768               337.5629               380.6651
 Red. masses --      2.0770                 2.3347                 1.7696
 Frc consts  --      0.1343                 0.1567                 0.1511
 IR Inten    --      9.7935                 0.6385                12.3397

                     13                     14                     15
                      A                      A                      A
 Frequencies --    415.2709               452.6944               531.7706
 Red. masses --      1.3522                 1.7648                 2.4160
 Frc consts  --      0.1374                 0.2131                 0.4025
 IR Inten    --     61.7395                22.6833                 3.8783

                     16                     17                     18
                      A                      A                      A
 Frequencies --    594.7236               700.9942               713.0483
 Red. masses --      2.8782                 2.6496                 1.3086
 Frc consts  --      0.5998                 0.7671                 0.3920
 IR Inten    --      9.9662                12.1302                15.2870

                     19                     20                     21
                      A                      A                      A
 Frequencies --    747.3857               808.9720               820.0998
 Red. masses --      1.5614                 1.6341                 2.4523
 Frc consts  --      0.5139                 0.6301                 0.9718
 IR Inten    --      0.5248                 4.3930                 0.7400

                     22                     23                     24
                      A                      A                      A
 Frequencies --    872.4942               891.7416               900.5407
 Red. masses --      1.6295                 1.6465                 1.6956
 Frc consts  --      0.7309                 0.7714                 0.8102
 IR Inten    --     11.3795                 4.2557                 7.3041

                     25                     26                     27
                      A                      A                      A
 Frequencies --    928.3085               953.0797               985.2105
 Red. masses --      4.5096                 1.6703                 2.0331
 Frc consts  --      2.2897                 0.8939                 1.1627
 IR Inten    --     97.7158                 7.3577                 6.7502

                     28                     29                     30
                      A                      A                      A
 Frequencies --    999.4527              1041.5564              1064.7621
 Red. masses --      1.6229                 1.5531                 1.7126
 Frc consts  --      0.9551                 0.9927                 1.1440
 IR Inten    --      1.7269                 0.7133                 7.3694

                     31                     32                     33
                      A                      A                      A
 Frequencies --   1069.7919              1111.6041              1145.1778
 Red. masses --      1.6517                 2.1413                 1.8095
 Frc consts  --      1.1137                 1.5589                 1.3982
 IR Inten    --      0.8539                 0.7668                 0.3228

                     34                     35                     36
                      A                      A                      A
 Frequencies --   1152.1240              1210.8272              1216.8311
 Red. masses --      2.2685                 1.3056                 1.3830
 Frc consts  --      1.7741                 1.1278                 1.2065
 IR Inten    --      4.6872                 3.9991                 6.0738

                     37                     38                     39
                      A                      A                      A
 Frequencies --   1263.6588              1292.6185              1323.4922
 Red. masses --      1.2544                 1.2808                 1.1733
 Frc consts  --      1.1802                 1.2609                 1.2109
 IR Inten    --      0.8921                 0.9413                 0.9347

                     40                     41                     42
                      A                      A                      A
 Frequencies --   1345.0170              1351.5170              1374.9235
 Red. masses --      1.2334                 1.1354                 1.4287
 Frc consts  --      1.3146                 1.2219                 1.5913
 IR Inten    --     15.8062                22.7835                 8.0247

                     43                     44                     45
                      A                      A                      A
 Frequencies --   1379.7078              1396.7924              1399.2446
 Red. masses --      1.3544                 1.3272                 1.3949
 Frc consts  --      1.5190                 1.5256                 1.6091
 IR Inten    --      8.5882                17.6935                11.9354

                     46                     47                     48
                      A                      A                      A
 Frequencies --   1408.6508              1421.9781              1424.6841
 Red. masses --      1.2626                 1.4187                 1.4163
 Frc consts  --      1.4762                 1.6901                 1.6938
 IR Inten    --     27.1224                 2.4732                 0.1153

                     49                     50                     51
                      A                      A                      A
 Frequencies --   1443.8219              1504.5729              1514.3624
 Red. masses --      1.2732                 1.0814                 1.0919
 Frc consts  --      1.5637                 1.4423                 1.4753
 IR Inten    --      5.1434                 1.6189                 5.7324

                     52                     53                     54
                      A                      A                      A
 Frequencies --   1518.0528              1524.1919              1530.8883
 Red. masses --      1.0851                 1.0661                 1.0586
 Frc consts  --      1.4734                 1.4593                 1.4618
 IR Inten    --      2.0327                 8.3479                 6.7060

                     55                     56                     57
                      A                      A                      A
 Frequencies --   1533.4227              1537.1944              1544.6246
 Red. masses --      1.0851                 1.0681                 1.0808
 Frc consts  --      1.5033                 1.4870                 1.5193
 IR Inten    --      4.4874                 3.7254                 1.5071

                     58                     59                     60
                      A                      A                      A
 Frequencies --   1743.9841              3025.7420              3034.1766
 Red. masses --      6.2963                 1.0632                 1.0631
 Frc consts  --     11.2828                 5.7350                 5.7663
 IR Inten    --      3.3954                16.6206                40.5188

                     61                     62                     63
                      A                      A                      A
 Frequencies --   3036.9485              3042.6909              3045.2664
 Red. masses --      1.0608                 1.0623                 1.0419
 Frc consts  --      5.7646                 5.7947                 5.6929
 IR Inten    --     28.2009                 2.9653                20.2151

                     64                     65                     66
                      A                      A                      A
 Frequencies --   3051.1957              3057.8115              3065.1411
 Red. masses --      1.0698                 1.0949                 1.0772
 Frc consts  --      5.8679                 6.0317                 5.9626
 IR Inten    --      2.4693                 9.3304                 5.9908

                     67                     68                     69
                      A                      A                      A
 Frequencies --   3067.2765              3076.2028              3078.6677
 Red. masses --      1.0801                 1.0965                 1.1006
 Frc consts  --      5.9869                 6.1138                 6.1461
 IR Inten    --     60.1524                75.9207               105.3844

                     70                     71                     72
                      A                      A                      A
 Frequencies --   3100.3797              3109.3503              3113.9774
 Red. masses --      1.1013                 1.1015                 1.1023
 Frc consts  --      6.2370                 6.2744                 6.2974
 IR Inten    --     12.7157                49.4410                33.7233

                     73                     74                     75
                      A                      A                      A
 Frequencies --   3116.7763              3174.1550              3763.8495
 Red. masses --      1.1019                 1.0895                 1.0677
 Frc consts  --      6.3069                 6.4676                 8.9121
 IR Inten    --     49.3031                13.4886                68.0059

 - Thermochemistry -
 -------------------
 Temperature   298.150 Kelvin.  Pressure   1.00000 Atm.
 Atom     1 has atomic number  6 and mass  12.00000

 Molecular mass:   143.13101 amu.
 Principal axes and moments of inertia in atomic units:
                           1         2         3
     Eigenvalues --   509.373573818.326413866.86928
           X            0.99999  -0.00103  -0.00485
           Y            0.00122   0.99921   0.03974
           Z            0.00481  -0.03974   0.99920
 This molecule is an asymmetric top.
 Rotational symmetry number  1.
 Warning -- assumption of classical behavior for rotation
           may cause significant error
 Rotational temperatures (Kelvin)      0.17004     0.02268     0.02240
 Rotational constants (GHZ):           3.54306     0.47265     0.46672
 Zero-point vibrational energy     648215.3 (Joules/Mol)
                                  154.92717 (Kcal/Mol)
 Warning -- explicit consideration of  16 degrees of freedom as
           vibrations may cause significant error
 Vibrational temperatures:     57.14    63.01    80.05   115.75   193.10
          (Kelvin)            206.98   318.87   359.44   415.87   476.63
                              485.68   547.69   597.48   651.33   765.10
                              855.67  1008.57  1025.92  1075.32  1163.93
                             1179.94  1255.32  1283.02  1295.68  1335.63
                             1371.27  1417.50  1437.99  1498.57  1531.96
                             1539.19  1599.35  1647.66  1657.65  1742.11
                             1750.75  1818.12  1859.79  1904.21  1935.18
                             1944.53  1978.21  1985.09  2009.67  2013.20
                             2026.73  2045.91  2049.80  2077.34  2164.74
                             2178.83  2184.14  2192.97  2202.61  2206.25
                             2211.68  2222.37  2509.20  4353.37  4365.50
                             4369.49  4377.75  4381.46  4389.99  4399.51
                             4410.05  4413.13  4425.97  4429.52  4460.75
                             4473.66  4480.32  4484.35  4566.90  5415.34

 Zero-point correction=                           0.246892 (Hartree/Particle)
 Thermal correction to Energy=                    0.258941
 Thermal correction to Enthalpy=                  0.259885
 Thermal correction to Gibbs Free Energy=         0.207619
 Sum of electronic and zero-point Energies=           -444.801370
 Sum of electronic and thermal Energies=              -444.789321
 Sum of electronic and thermal Enthalpies=            -444.788377
 Sum of electronic and thermal Free Energies=         -444.840643

                     E (Thermal)             CV                S
                      KCal/Mol        Cal/Mol-Kelvin    Cal/Mol-Kelvin
 Total                  162.488             43.752            110.003
 Electronic               0.000              0.000              0.000
 Translational            0.889              2.981             40.787
 Rotational               0.889              2.981             30.398
 Vibrational            160.710             37.790             38.817
 Vibration     1          0.594              1.981              5.273
 Vibration     2          0.595              1.980              5.080
 Vibration     3          0.596              1.975              4.606
 Vibration     4          0.600              1.962              3.880
 Vibration     5          0.613              1.919              2.885
 Vibration     6          0.616              1.909              2.752
 Vibration     7          0.648              1.808              1.946
 Vibration     8          0.663              1.763              1.732
 Vibration     9          0.686              1.694              1.480
 Vibration    10          0.714              1.613              1.254
 Vibration    11          0.718              1.600              1.224
 Vibration    12          0.750              1.511              1.037
 Vibration    13          0.779              1.437              0.908
 Vibration    14          0.811              1.355              0.788
 Vibration    15          0.887              1.180              0.583
 Vibration    16          0.952              1.043              0.459

 Optimization completed.
    -- Stationary point found.
 Normal termination of Gaussian 16 at Tue Dec  8 10:35:35 2020.

 ----------------------------------------------------------------------
 # B3LYP/6-311++G(d,p) empiricaldispersion=gd3bj scf=xqc pop=npa geom=c
 heck
 ----------------------------------------------------------------------

 -----------------------------------
 CID_136720_JID_367_Energie_neutraal
 -----------------------------------
 Structure from the checkpoint file:  "JID_367.chk"
 Charge =  0 Multiplicity = 1

 SCF Done:  E(RB3LYP) =  -445.185237743     A.U. after   12 cycles
 Normal termination of Gaussian 16 at Tue Dec  8 10:39:40 2020.

 ----------------------------------------------------------------------
 # B3LYP/6-311++G(d,p) empiricaldispersion=gd3bj scf=xqc pop=npa geom=c
 heck
 ----------------------------------------------------------------------

 ---------------------------------
 CID_136720_JID_367_Energie_kation
 ---------------------------------
 Structure from the checkpoint file:  "JID_367.chk"
 Charge =  1 Multiplicity = 2

 SCF Done:  E(UB3LYP) =  -444.838706564     A.U. after   27 cycles
 Normal termination of Gaussian 16 at Tue Dec  8 10:46:21 2020.
 Gaussian 16:  ES64L-G16RevA.03 25-Dec-2016

 ----------------------------------------------------------------------
 # B3LYP/6-311++G(d,p) empiricaldispersion=gd3bj scf=xqc pop=npa geom=c
 heck
 ----------------------------------------------------------------------

 --------------------------------
 CID_136720_JID_367_Energie_anion
 --------------------------------
 Structure from the checkpoint file:  "JID_367.chk"
 Charge = -1 Multiplicity = 2

                         Standard orientation:
 ---------------------------------------------------------------------
 Center     Atomic      Atomic             Coordinates (Angstroms)
 Number     Number       Type             X           Y           Z
 ---------------------------------------------------------------------
      1          6           0        4.047237   -0.447602   -0.622602
      2          6           0        3.124526   -0.461766    0.599640
      3          6           0        2.172167    0.741453    0.674800
      4          6           0        1.217211    0.892053   -0.520396
      5          6           0        0.321926   -0.326439   -0.794408
      6          6           0       -0.554111   -0.772369    0.385088
      7          6           0       -1.495170    0.323732    0.932929
      8          6           0       -2.409573    0.884391   -0.120484
      9          7           0       -3.474698    0.347954   -0.582152
     10          8           0       -3.735944   -0.893309    0.040966
     11          1           0        3.482427   -0.528667   -1.557919
     12          1           0        4.755985   -1.282626   -0.592675
     13          1           0        4.627747    0.482371   -0.666524
     14          1           0        2.545484   -1.394562    0.608017
     15          1           0        3.734956   -0.478914    1.512037
     16          1           0        1.588856    0.672079    1.602637
     17          1           0        2.768453    1.660532    0.761629
     18          1           0        0.590254    1.778629   -0.354529
     19          1           0        1.796595    1.108965   -1.426693
     20          1           0       -0.324410   -0.100968   -1.652748
     21          1           0        0.944857   -1.175660   -1.103467
     22          1           0       -1.167535   -1.623555    0.072386
     23          1           0        0.076750   -1.124139    1.210990
     24          1           0       -2.104928   -0.107077    1.734270
     25          1           0       -0.909380    1.142407    1.364530
     26          1           0       -2.174647    1.839148   -0.588615
     27          1           0       -4.566304   -1.157886   -0.383388
 ---------------------------------------------------------------------

 SCF Done:  E(UB3LYP) =  -445.169428244     A.U. after   33 cycles
 SCF Done:  E(UB3LYP) =  -445.169428244     a.u. after    1 cycles

 The electronic state is 2-A.
 Alpha  occ. eigenvalues --  -19.05608 -14.25876 -10.10242 -10.07325 -10.06460
 Alpha  occ. eigenvalues --  -10.06021 -10.05995 -10.05899 -10.05823 -10.05372
 Alpha  occ. eigenvalues --   -0.97574  -0.76493  -0.71035  -0.67599  -0.63039
 Alpha  occ. eigenvalues --   -0.58504  -0.54267  -0.49971  -0.47227  -0.43887
 Alpha  occ. eigenvalues --   -0.39795  -0.38165  -0.36941  -0.35936  -0.33745
 Alpha  occ. eigenvalues --   -0.32777  -0.31217  -0.30445  -0.29964  -0.28075
 Alpha  occ. eigenvalues --   -0.27878  -0.26417  -0.24523  -0.24258  -0.23648
 Alpha  occ. eigenvalues --   -0.21470  -0.20975  -0.20809  -0.17585  -0.15944
 Alpha  occ. eigenvalues --    0.04631
 Alpha virt. eigenvalues --    0.06373   0.07480   0.07783   0.08578   0.09034
 Alpha virt. eigenvalues --    0.09815   0.10054   0.10988   0.11189   0.11880
 Alpha virt. eigenvalues --    0.12583   0.12728   0.13198   0.13898   0.15318

  Beta  occ. eigenvalues --  -19.05550 -14.25839 -10.10230 -10.07307 -10.06447
  Beta  occ. eigenvalues --  -10.06001 -10.05983 -10.05881 -10.05802 -10.05334
  Beta  occ. eigenvalues --   -0.97453  -0.76391  -0.70999  -0.67557  -0.62991
  Beta  occ. eigenvalues --   -0.58448  -0.54202  -0.49898  -0.47144  -0.43815
  Beta  occ. eigenvalues --   -0.39739  -0.38124  -0.36894  -0.35893  -0.33697
  Beta  occ. eigenvalues --   -0.32726  -0.31165  -0.30393  -0.29906  -0.28034
  Beta  occ. eigenvalues --   -0.27831  -0.26383  -0.24483  -0.24215  -0.23614
  Beta  occ. eigenvalues --   -0.21441  -0.20932  -0.20767  -0.17508  -0.15856
  Beta virt. eigenvalues --    0.06874   0.07746   0.08051   0.08311   0.09035
  Beta virt. eigenvalues --    0.09562   0.10129   0.10393   0.11383   0.11489
  Beta virt. eigenvalues --    0.12168   0.12807   0.13010   0.13543   0.14142

 Mulliken charges and spin densities:
               1          2
     1  C    1.413144  -2.035479
     2  C   -1.204251   0.998116
     3  C    0.782377  -1.013442
     4  C    0.457073  -0.701425
     5  C   -0.627545   0.539702
     6  C    0.224040  -0.534782
     7  C   -0.192121  -0.275323
     8  C    0.398772  -0.760716
     9  N   -0.196692   0.063351
    10  O   -0.079757  -0.036963
    11  H   -0.118509   0.254007
    12  H   -0.402133   0.536060
    13  H   -0.183915   0.321375
    14  H    0.137254  -0.013975
    15  H   -0.368009   0.516904
    16  H   -0.165635   0.313991
    17  H   -0.318315   0.470024
    18  H   -0.100761   0.259981
    19  H   -0.074605   0.226862
    20  H    0.107238   0.059091
    21  H   -0.316042   0.488794
    22  H    0.188582   0.002129
    23  H   -0.125463   0.256237
    24  H    0.002463   0.199272
    25  H    0.173736  -0.051884
    26  H   -0.177181   0.395328
    27  H   -0.233747   0.522767
 Sum of Mulliken charges =  -1.00000   1.00000

 Dipole moment (field-independent basis, Debye):
    X=             -1.0967    Y=              0.7582    Z=              0.1736  Tot=              1.3446
 Quadrupole moment (field-independent basis, Debye-Ang):
   XX=           -161.6624   YY=            -96.3530   ZZ=            -92.7876
   XY=             -4.7605   XZ=             -2.9437   YZ=             -0.6665

 Summary of Natural Population Analysis:

                                       Natural Population
                Natural  -----------------------------------------------
    Atom  No    Charge         Core      Valence    Rydberg      Total
 -----------------------------------------------------------------------
      C    1   -0.28739      0.99967     2.28228    0.00544     3.28739
      C    2   -0.19295      0.99964     2.18443    0.00887     3.19295
      C    3   -0.19063      0.99963     2.18186    0.00915     3.19063
      C    4   -0.19357      0.99963     2.18463    0.00932     3.19357
      C    5   -0.19310      0.99962     2.18614    0.00733     3.19310
      C    6   -0.18617      0.99962     2.17922    0.00734     3.18617
      C    7   -0.22773      0.99961     2.21983    0.00829     3.22773
      C    8    0.03547      0.99965     1.94776    0.01713     2.96453
      N    9   -0.08051      0.99964     2.56503    0.01584     3.58051
      O   10   -0.29086      0.99990     3.28260    0.00837     4.29086
      H   11    0.09544      0.00000     0.40346    0.00110     0.40456
      H   12    0.09895      0.00000     0.39983    0.00122     0.40105
      H   13    0.09613      0.00000     0.40260    0.00127     0.40387
      H   14    0.09247      0.00000     0.40623    0.00131     0.40753
      H   15    0.09618      0.00000     0.40249    0.00132     0.40382
      H   16    0.09511      0.00000     0.40343    0.00147     0.40489
      H   17    0.09651      0.00000     0.40215    0.00134     0.40349
      H   18    0.09537      0.00000     0.40329    0.00134     0.40463
      H   19    0.09736      0.00000     0.40147    0.00117     0.40264
      H   20    0.09823      0.00000     0.40049    0.00127     0.40177
      H   21    0.09745      0.00000     0.40132    0.00123     0.40255
      H   22    0.10507      0.00000     0.39331    0.00162     0.39493
      H   23    0.09583      0.00000     0.40288    0.00129     0.40417
      H   24    0.11328      0.00000     0.38517    0.00155     0.38672
      H   25    0.10292      0.00000     0.39564    0.00144     0.39708
      H   26    0.09329      0.00000     0.40514    0.00157     0.40671
      H   27    0.23785      0.00000     0.24941    0.01274     0.26215
 =======================================================================
   * Total *   -0.00000      9.99660    29.87208    0.13131    40.00000

 Normal termination of Gaussian 16 at Tue Dec  8 10:55:28 2020.
