 Gaussian 16, Revision A.03,

 -----------------------------------------------------------
 # opt freq B3LYP/6-31G(d) empiricaldispersion=gd3bj scf=xqc
 -----------------------------------------------------------

 ------------------------------
 CID_75530429_JID_1163_neutraal
 ------------------------------
 Symbolic Z-matrix:
 Charge =  0 Multiplicity = 1

 SCF Done:  E(RB3LYP) =  -859.535188891     A.U. after   14 cycles
 SCF Done:  E(RB3LYP) =  -859.536690120     A.U. after   12 cycles
 SCF Done:  E(RB3LYP) =  -859.536493988     A.U. after   12 cycles
 SCF Done:  E(RB3LYP) =  -859.536897171     A.U. after   12 cycles
 SCF Done:  E(RB3LYP) =  -859.537328072     A.U. after   11 cycles
 SCF Done:  E(RB3LYP) =  -859.537416550     A.U. after   10 cycles
 SCF Done:  E(RB3LYP) =  -859.537448653     A.U. after   10 cycles
 SCF Done:  E(RB3LYP) =  -859.537457990     A.U. after   10 cycles
 SCF Done:  E(RB3LYP) =  -859.537459935     A.U. after    8 cycles
 Optimization completed.
    -- Stationary point found.
 Normal termination of Gaussian 16 at Tue Dec  8 19:13:25 2020.

 --------------------------------------------------------------------
 #N Geom=AllCheck Guess=TCheck SCRF=Check GenChk RB3LYP/6-31G(d) Freq
 --------------------------------------------------------------------

 Structure from the checkpoint file:  "JID_1163.chk"
 ------------------------------
 CID_75530429_JID_1163_neutraal
 ------------------------------
 Charge =  0 Multiplicity = 1

 SCF Done:  E(RB3LYP) =  -859.537459935     A.U. after    1 cycles

  Exact polarizability: 129.690   1.017 110.238  11.959  -9.229  68.251
 Approx polarizability: 191.835   9.931 188.307  28.638 -16.187 106.796

                      1                      2                      3
                      A                      A                      A
 Frequencies --     54.8313               101.6498               136.1259
 Red. masses --      7.8198                 5.2321                 2.6788
 Frc consts  --      0.0139                 0.0319                 0.0292
 IR Inten    --      0.3468                 0.2714                 0.8417

                      4                      5                      6
                      A                      A                      A
 Frequencies --    173.1627               209.1150               291.5414
 Red. masses --      7.6120                 5.7555                 1.9168
 Frc consts  --      0.1345                 0.1483                 0.0960
 IR Inten    --      1.5341                 2.5131                33.0167

                      7                      8                      9
                      A                      A                      A
 Frequencies --    323.4071               325.9156               348.0856
 Red. masses --      1.2859                 1.4188                 2.6521
 Frc consts  --      0.0792                 0.0888                 0.1893
 IR Inten    --     37.1582               112.5628                17.0063

                     10                     11                     12
                      A                      A                      A
 Frequencies --    373.9848               407.1267               454.3859
 Red. masses --      5.3596                 2.9501                 4.4601
 Frc consts  --      0.4417                 0.2881                 0.5426
 IR Inten    --      2.1430                 0.1511                 5.8459

                     13                     14                     15
                      A                      A                      A
 Frequencies --    490.2564               501.2249               511.3530
 Red. masses --      3.4667                 1.1854                 3.2270
 Frc consts  --      0.4909                 0.1755                 0.4972
 IR Inten    --     11.9618                35.7775                21.6466

                     16                     17                     18
                      A                      A                      A
 Frequencies --    572.0493               620.1864               656.9054
 Red. masses --      3.5898                 3.2810                 4.6162
 Frc consts  --      0.6921                 0.7435                 1.1736
 IR Inten    --      3.2423                 0.5645                 6.8895

                     19                     20                     21
                      A                      A                      A
 Frequencies --    717.2914               729.9190               787.3387
 Red. masses --      3.2578                 3.4414                 1.9003
 Frc consts  --      0.9876                 1.0803                 0.6941
 IR Inten    --      1.2086                 8.0959                20.7675

                     22                     23                     24
                      A                      A                      A
 Frequencies --    794.8352               837.6157               845.5058
 Red. masses --      2.8289                 1.4126                 1.5580
 Frc consts  --      1.0530                 0.5839                 0.6562
 IR Inten    --      9.4689                 2.8686                36.6766

                     25                     26                     27
                      A                      A                      A
 Frequencies --    940.0881               948.7224               959.5743
 Red. masses --      2.6663                 1.2924                 1.7572
 Frc consts  --      1.3884                 0.6854                 0.9533
 IR Inten    --      1.9170                 0.4612                13.9429

                     28                     29                     30
                      A                      A                      A
 Frequencies --   1008.0075              1050.3341              1124.5441
 Red. masses --      2.6383                 1.7975                 1.7319
 Frc consts  --      1.5795                 1.1684                 1.2904
 IR Inten    --      1.3926                 2.2827                 1.7977

                     31                     32                     33
                      A                      A                      A
 Frequencies --   1181.4872              1186.2670              1210.8447
 Red. masses --      1.3841                 1.3103                 1.4393
 Frc consts  --      1.1383                 1.0864                 1.2433
 IR Inten    --     25.1098                 9.0668               142.7659

                     34                     35                     36
                      A                      A                      A
 Frequencies --   1246.5251              1252.6496              1280.0996
 Red. masses --      1.4820                 1.2547                 2.1730
 Frc consts  --      1.3568                 1.1599                 2.0979
 IR Inten    --    120.2201                 2.1439               102.3593

                     37                     38                     39
                      A                      A                      A
 Frequencies --   1333.6745              1348.7998              1362.2735
 Red. masses --      1.4738                 3.3247                 1.3459
 Frc consts  --      1.5445                 3.5636                 1.4716
 IR Inten    --     17.3217                12.8727                59.3881

                     40                     41                     42
                      A                      A                      A
 Frequencies --   1385.6770              1395.3891              1495.9105
 Red. masses --      1.6013                 2.2942                 1.0940
 Frc consts  --      1.8116                 2.6319                 1.4424
 IR Inten    --     31.7453                 6.5165                 6.3264

                     43                     44                     45
                      A                      A                      A
 Frequencies --   1504.6146              1520.3957              1554.9508
 Red. masses --      2.3914                 1.2233                 3.1251
 Frc consts  --      3.1897                 1.6660                 4.4520
 IR Inten    --     71.4041                 6.5941               140.1586

                     46                     47                     48
                      A                      A                      A
 Frequencies --   1659.5587              1682.5794              2674.8804
 Red. masses --      5.9350                 6.4027                 1.0382
 Frc consts  --      9.6307                10.6798                 4.3767
 IR Inten    --      0.3125                19.8257                 6.8835

                     49                     50                     51
                      A                      A                      A
 Frequencies --   3045.3547              3081.5681              3095.4027
 Red. masses --      1.0632                 1.0641                 1.0949
 Frc consts  --      5.8094                 5.9535                 6.1808
 IR Inten    --     26.0714                17.0765                13.6324

                     52                     53                     54
                      A                      A                      A
 Frequencies --   3136.9631              3151.4976              3210.3461
 Red. masses --      1.1077                 1.0896                 1.0878
 Frc consts  --      6.4226                 6.3761                 6.6054
 IR Inten    --     13.9975                20.8085                 5.2477

                     55                     56                     57
                      A                      A                      A
 Frequencies --   3224.6904              3616.6062              3755.7947
 Red. masses --      1.0951                 1.0663                 1.0659
 Frc consts  --      6.7094                 8.2173                 8.8590
 IR Inten    --      7.1923               241.5913                34.8340

 - Thermochemistry -
 -------------------
 Temperature   298.150 Kelvin.  Pressure   1.00000 Atm.
 Atom     1 has atomic number  6 and mass  12.00000

 Molecular mass:   170.04015 amu.
 Principal axes and moments of inertia in atomic units:
                           1         2         3
     Eigenvalues --  1107.578312990.140373527.91137
           X            0.99986  -0.01198   0.01127
           Y            0.01240   0.99921  -0.03776
           Z           -0.01081   0.03789   0.99922
 This molecule is an asymmetric top.
 Rotational symmetry number  1.
 Warning -- assumption of classical behavior for rotation
           may cause significant error
 Rotational temperatures (Kelvin)      0.07820     0.02897     0.02455
 Rotational constants (GHZ):           1.62945     0.60356     0.51156
 Zero-point vibrational energy     435978.3 (Joules/Mol)
                                  104.20132 (Kcal/Mol)
 Warning -- explicit consideration of  17 degrees of freedom as
           vibrations may cause significant error
 Vibrational temperatures:     78.89   146.25   195.85   249.14   300.87
          (Kelvin)            419.46   465.31   468.92   500.82   538.08
                              585.76   653.76   705.37   721.15   735.72
                              823.05   892.31   945.14  1032.02  1050.19
                             1132.80  1143.59  1205.14  1216.49  1352.58
                             1365.00  1380.61  1450.30  1511.20  1617.97
                             1699.90  1706.77  1742.14  1793.47  1802.28
                             1841.78  1918.86  1940.62  1960.01  1993.68
                             2007.65  2152.28  2164.80  2187.51  2237.23
                             2387.73  2420.86  3848.56  4381.59  4433.69
                             4453.59  4513.39  4534.30  4618.97  4639.61
                             5203.49  5403.75

 Zero-point correction=                           0.166055 (Hartree/Particle)
 Thermal correction to Energy=                    0.176746
 Thermal correction to Enthalpy=                  0.177690
 Thermal correction to Gibbs Free Energy=         0.129684
 Sum of electronic and zero-point Energies=           -859.371405
 Sum of electronic and thermal Energies=              -859.360714
 Sum of electronic and thermal Enthalpies=            -859.359769
 Sum of electronic and thermal Free Energies=         -859.407776

                     E (Thermal)             CV                S
                      KCal/Mol        Cal/Mol-Kelvin    Cal/Mol-Kelvin
 Total                  110.910             41.525            101.038
 Electronic               0.000              0.000              0.000
 Translational            0.889              2.981             41.300
 Rotational               0.889              2.981             30.836
 Vibrational            109.133             35.563             28.902
 Vibration     1          0.596              1.976              4.635
 Vibration     2          0.604              1.948              3.422
 Vibration     3          0.614              1.917              2.858
 Vibration     4          0.627              1.875              2.401
 Vibration     5          0.642              1.827              2.051
 Vibration     6          0.687              1.689              1.465
 Vibration     7          0.708              1.629              1.293
 Vibration     8          0.710              1.624              1.280
 Vibration     9          0.726              1.579              1.175
 Vibration    10          0.745              1.525              1.063
 Vibration    11          0.772              1.455              0.937
 Vibration    12          0.813              1.351              0.783
 Vibration    13          0.846              1.272              0.683
 Vibration    14          0.857              1.247              0.655
 Vibration    15          0.866              1.225              0.630
 Vibration    16          0.928              1.092              0.500
 Vibration    17          0.980              0.989              0.416

 Optimization completed.
    -- Stationary point found.
 Normal termination of Gaussian 16 at Tue Dec  8 19:17:48 2020.

 ----------------------------------------------------------------------
 # B3LYP/6-311++G(d,p) empiricaldispersion=gd3bj scf=xqc pop=npa geom=c
 heck
 ----------------------------------------------------------------------

 --------------------------------------
 CID_75530429_JID_1163_Energie_neutraal
 --------------------------------------
 Structure from the checkpoint file:  "JID_1163.chk"
 Charge =  0 Multiplicity = 1

 SCF Done:  E(RB3LYP) =  -859.711632940     A.U. after   15 cycles
 Normal termination of Gaussian 16 at Tue Dec  8 19:19:46 2020.

 ----------------------------------------------------------------------
 # B3LYP/6-311++G(d,p) empiricaldispersion=gd3bj scf=xqc pop=npa geom=c
 heck
 ----------------------------------------------------------------------

 ------------------------------------
 CID_75530429_JID_1163_Energie_kation
 ------------------------------------
 Structure from the checkpoint file:  "JID_1163.chk"
 Charge =  1 Multiplicity = 2

 SCF Done:  E(UB3LYP) =  -859.424155842     A.U. after   24 cycles
 Normal termination of Gaussian 16 at Tue Dec  8 19:24:13 2020.
 Gaussian 16:  ES64L-G16RevA.03 25-Dec-2016

 ----------------------------------------------------------------------
 # B3LYP/6-311++G(d,p) empiricaldispersion=gd3bj scf=xqc pop=npa geom=c
 heck
 ----------------------------------------------------------------------

 -----------------------------------
 CID_75530429_JID_1163_Energie_anion
 -----------------------------------
 Structure from the checkpoint file:  "JID_1163.chk"
 Charge = -1 Multiplicity = 2

                         Standard orientation:
 ---------------------------------------------------------------------
 Center     Atomic      Atomic             Coordinates (Angstroms)
 Number     Number       Type             X           Y           Z
 ---------------------------------------------------------------------
      1          6           0       -2.446957    0.902755   -0.413981
      2          6           0       -1.350015    1.708938   -0.138245
      3          6           0       -0.166502    1.164189    0.372204
      4          6           0       -0.087055   -0.214376    0.631531
      5          6           0       -1.194481   -1.019467    0.331649
      6          6           0       -2.367970   -0.474696   -0.187027
      7          8           0       -3.472160   -1.231817   -0.485408
      8          6           0        1.157587   -0.831332    1.225783
      9          6           0        2.149523   -1.372484    0.185548
     10         16           0        2.827136   -0.089088   -0.953071
     11          8           0        0.862225    2.033057    0.644931
     12          1           0       -3.366300    1.320457   -0.810763
     13          1           0       -1.386079    2.778374   -0.318189
     14          1           0       -1.138058   -2.089299    0.530975
     15          1           0       -3.285086   -2.156562   -0.263268
     16          1           0        1.668141   -0.100417    1.862765
     17          1           0        0.870867   -1.669485    1.874273
     18          1           0        3.028126   -1.796112    0.681315
     19          1           0        1.694692   -2.162119   -0.418958
     20          1           0        1.684523    0.112397   -1.644523
     21          1           0        1.709699    1.597087    0.434554
 ---------------------------------------------------------------------

 SCF Done:  E(UB3LYP) =  -859.703872591     A.U. after   31 cycles

 The electronic state is 2-A.
 Alpha  occ. eigenvalues --  -88.74846 -19.04294 -19.03626 -10.12495 -10.12054
 Alpha  occ. eigenvalues --  -10.10128 -10.07733 -10.07627 -10.06909 -10.06652
 Alpha  occ. eigenvalues --  -10.06408  -7.83525  -5.79866  -5.79541  -5.78958
 Alpha  occ. eigenvalues --   -0.95239  -0.94673  -0.75011  -0.70884  -0.65647
 Alpha  occ. eigenvalues --   -0.62927  -0.59856  -0.53325  -0.51370  -0.48204
 Alpha  occ. eigenvalues --   -0.43938  -0.42924  -0.39284  -0.36620  -0.34200
 Alpha  occ. eigenvalues --   -0.33510  -0.32050  -0.30754  -0.30663  -0.30076
 Alpha  occ. eigenvalues --   -0.29216  -0.27151  -0.26661  -0.24881  -0.22833
 Alpha  occ. eigenvalues --   -0.22792  -0.20293  -0.15523  -0.14712  -0.10588
 Alpha  occ. eigenvalues --    0.04459
 Alpha virt. eigenvalues --    0.07054   0.08115   0.08441   0.09278   0.09609
 Alpha virt. eigenvalues --    0.10196   0.10978   0.11222   0.11411   0.12470
 Alpha virt. eigenvalues --    0.13511   0.14306   0.14993   0.15440   0.16770

  Beta  occ. eigenvalues --  -88.74836 -19.04253 -19.03620 -10.12509 -10.12048
  Beta  occ. eigenvalues --  -10.10058 -10.07717 -10.07605 -10.06896 -10.06607
  Beta  occ. eigenvalues --  -10.06334  -7.83514  -5.79839  -5.79537  -5.78952
  Beta  occ. eigenvalues --   -0.95161  -0.94658  -0.74947  -0.70809  -0.65561
  Beta  occ. eigenvalues --   -0.62854  -0.59777  -0.53203  -0.51301  -0.48112
  Beta  occ. eigenvalues --   -0.43881  -0.42851  -0.39240  -0.36539  -0.34116
  Beta  occ. eigenvalues --   -0.33422  -0.31988  -0.30687  -0.30618  -0.30036
  Beta  occ. eigenvalues --   -0.29154  -0.27068  -0.26608  -0.24835  -0.22762
  Beta  occ. eigenvalues --   -0.22711  -0.20216  -0.15421  -0.14558  -0.10475
  Beta virt. eigenvalues --    0.07413   0.08084   0.08631   0.08764   0.09691
  Beta virt. eigenvalues --    0.10016   0.10943   0.11153   0.11485   0.11717
  Beta virt. eigenvalues --    0.12836   0.14023   0.14659   0.15074   0.15770

 Mulliken charges and spin densities:
               1          2
     1  C    1.579224  -1.437356
     2  C   -0.297493   0.245429
     3  C   -1.467730   0.510305
     4  C   -0.930043   1.992439
     5  C   -0.876647   0.797490
     6  C    1.545039  -2.235096
     7  O   -0.322150   0.073556
     8  C    0.876017  -0.881254
     9  C    1.646452  -2.350490
    10  S   -0.188535   0.134772
    11  O   -0.237906  -0.007029
    12  H    0.174028  -0.017716
    13  H    0.126760   0.037160
    14  H   -1.046601   1.207387
    15  H   -0.315563   0.597626
    16  H   -0.125321   0.299364
    17  H   -0.431922   0.617159
    18  H   -0.659605   0.884713
    19  H   -0.305490   0.527062
    20  H    0.027661   0.012180
    21  H    0.229826  -0.007703
 Sum of Mulliken charges =  -1.00000   1.00000

 Dipole moment (field-independent basis, Debye):
    X=             -0.1362    Y=              7.6391    Z=             -2.1510  Tot=              7.9373
 Quadrupole moment (field-independent basis, Debye-Ang):
   XX=           -128.8347   YY=           -122.8544   ZZ=            -98.0039
   XY=             -3.4319   XZ=             -2.8764   YZ=              3.0272

 Summary of Natural Population Analysis:

                                       Natural Population
                Natural  -----------------------------------------------
    Atom  No    Charge         Core      Valence    Rydberg      Total
 -----------------------------------------------------------------------
      C    1   -0.11763      0.99953     2.10788    0.01023     3.11763
      C    2   -0.11406      0.99953     2.10618    0.00835     3.11406
      C    3    0.13781      0.99932     1.84730    0.01557     2.86219
      C    4   -0.03834      0.99947     2.02693    0.01194     3.03834
      C    5   -0.12026      0.99947     2.10941    0.01138     3.12026
      C    6    0.14804      0.99938     1.83942    0.01316     2.85196
      O    7   -0.34580      0.99988     3.33909    0.00683     4.34580
      C    8   -0.20948      0.99959     2.19653    0.01336     3.20948
      C    9   -0.23314      0.99958     2.22320    0.01036     3.23314
      S   10   -0.03365      4.99965     3.01792    0.01608     8.03365
      O   11   -0.36316      0.99988     3.35652    0.00676     4.36316
      H   12    0.10184      0.00000     0.39736    0.00080     0.39816
      H   13    0.10157      0.00000     0.39755    0.00088     0.39843
      H   14    0.10635      0.00000     0.38907    0.00458     0.39365
      H   15    0.23968      0.00000     0.25248    0.00783     0.26032
      H   16    0.10324      0.00000     0.39516    0.00160     0.39676
      H   17    0.11401      0.00000     0.38337    0.00263     0.38599
      H   18    0.10987      0.00000     0.38604    0.00409     0.39013
      H   19    0.10664      0.00000     0.39082    0.00254     0.39336
      H   20    0.06553      0.00000     0.43156    0.00291     0.43447
      H   21    0.24095      0.00000     0.25533    0.00373     0.25905
 =======================================================================
   * Total *    0.00000     14.99526    29.84913    0.15561    45.00000

 Normal termination of Gaussian 16 at Tue Dec  8 19:29:58 2020.
