 Gaussian 16, Revision A.03,

 -----------------------------------------------------------
 # opt freq B3LYP/6-31G(d) empiricaldispersion=gd3bj scf=xqc
 -----------------------------------------------------------

 -------------------------------
 CID_105320410_JID_4326_neutraal
 -------------------------------
 Symbolic Z-matrix:
 Charge =  0 Multiplicity = 1

 SCF Done:  E(RB3LYP) =  -937.675948629     A.U. after   15 cycles
 SCF Done:  E(RB3LYP) =  -937.685148335     A.U. after   13 cycles
 SCF Done:  E(RB3LYP) =  -937.686567793     A.U. after   13 cycles
 SCF Done:  E(RB3LYP) =  -937.686840437     A.U. after   12 cycles
 SCF Done:  E(RB3LYP) =  -937.687287832     A.U. after   12 cycles
 SCF Done:  E(RB3LYP) =  -937.687359963     A.U. after   11 cycles
 SCF Done:  E(RB3LYP) =  -937.687441657     A.U. after   11 cycles
 SCF Done:  E(RB3LYP) =  -937.687820892     A.U. after   13 cycles
 SCF Done:  E(RB3LYP) =  -937.680372828     A.U. after   13 cycles
 SCF Done:  E(RB3LYP) =  -937.689750288     A.U. after   13 cycles
 SCF Done:  E(RB3LYP) =  -937.694736874     A.U. after   11 cycles
 SCF Done:  E(RB3LYP) =  -937.694738330     A.U. after   10 cycles
 SCF Done:  E(RB3LYP) =  -937.694738429     A.U. after    8 cycles
 SCF Done:  E(RB3LYP) =  -937.694739362     A.U. after    9 cycles
 SCF Done:  E(RB3LYP) =  -937.694739397     A.U. after    6 cycles
 Optimization completed.
    -- Stationary point found.
 Normal termination of Gaussian 16 at Thu Dec 10 10:04:50 2020.

 --------------------------------------------------------------------
 #N Geom=AllCheck Guess=TCheck SCRF=Check GenChk RB3LYP/6-31G(d) Freq
 --------------------------------------------------------------------

 Structure from the checkpoint file:  "JID_4326.chk"
 -------------------------------
 CID_105320410_JID_4326_neutraal
 -------------------------------
 Charge =  0 Multiplicity = 1

 SCF Done:  E(RB3LYP) =  -937.694739397     A.U. after    1 cycles

  Exact polarizability: 127.495 -10.406 145.037  -8.494   3.939 142.954
 Approx polarizability: 169.995 -25.523 223.352 -15.759   6.466 245.220

                      1                      2                      3
                      A                      A                      A
 Frequencies --     20.4839                42.9193                45.1499
 Red. masses --      3.2273                 4.0765                 3.7531
 Frc consts  --      0.0008                 0.0044                 0.0045
 IR Inten    --      0.5004                 0.7687                 0.0572

                      4                      5                      6
                      A                      A                      A
 Frequencies --     73.9238                89.5703               101.3588
 Red. masses --      3.1431                 1.0955                 2.5811
 Frc consts  --      0.0101                 0.0052                 0.0156
 IR Inten    --      0.6837                 0.0722                 0.4907

                      7                      8                      9
                      A                      A                      A
 Frequencies --    124.4510               148.3598               175.4441
 Red. masses --      4.0424                 3.0339                 3.6180
 Frc consts  --      0.0369                 0.0393                 0.0656
 IR Inten    --      0.4728                 1.2126                 2.8250

                     10                     11                     12
                      A                      A                      A
 Frequencies --    203.5410               213.7038               258.0111
 Red. masses --      2.8000                 1.4606                 2.9376
 Frc consts  --      0.0683                 0.0393                 0.1152
 IR Inten    --     11.8056                 1.6102                 0.2128

                     13                     14                     15
                      A                      A                      A
 Frequencies --    258.1867               300.9930               333.2403
 Red. masses --      1.9385                 1.8367                 2.1902
 Frc consts  --      0.0761                 0.0980                 0.1433
 IR Inten    --      5.7980                41.3737                16.3740

                     16                     17                     18
                      A                      A                      A
 Frequencies --    345.9411               412.0326               443.1685
 Red. masses --      2.7547                 2.0975                 2.7032
 Frc consts  --      0.1942                 0.2098                 0.3128
 IR Inten    --     10.7657                 1.0594                 1.1626

                     19                     20                     21
                      A                      A                      A
 Frequencies --    464.6232               484.4355               539.8583
 Red. masses --      4.8023                 3.2848                 3.6481
 Frc consts  --      0.6108                 0.4542                 0.6264
 IR Inten    --      1.1920                 4.3485                 7.7238

                     22                     23                     24
                      A                      A                      A
 Frequencies --    565.7151               610.8536               625.1499
 Red. masses --      3.8969                 3.5830                 3.0411
 Frc consts  --      0.7348                 0.7877                 0.7002
 IR Inten    --      2.3961                 9.9688                18.5111

                     25                     26                     27
                      A                      A                      A
 Frequencies --    674.9281               694.7273               717.1611
 Red. masses --      2.3239                 6.1672                 1.4497
 Frc consts  --      0.6237                 1.7537                 0.4393
 IR Inten    --      3.6966                 0.8059                37.9553

                     28                     29                     30
                      A                      A                      A
 Frequencies --    745.3094               800.7820               807.9063
 Red. masses --      1.2759                 2.3987                 1.2015
 Frc consts  --      0.4176                 0.9063                 0.4621
 IR Inten    --      6.3825                13.6879                 1.6986

                     31                     32                     33
                      A                      A                      A
 Frequencies --    832.6585               851.1154               885.8317
 Red. masses --      5.2290                 1.8280                 1.2667
 Frc consts  --      2.1360                 0.7802                 0.5856
 IR Inten    --      4.0585                52.3375                 1.1057

                     34                     35                     36
                      A                      A                      A
 Frequencies --    922.0874               925.6810               959.5136
 Red. masses --      1.7439                 1.6271                 1.7290
 Frc consts  --      0.8736                 0.8214                 0.9379
 IR Inten    --     23.9248                21.2791                63.0795

                     37                     38                     39
                      A                      A                      A
 Frequencies --    961.6758               977.1912              1030.2511
 Red. masses --      1.9264                 2.1315                 1.8846
 Frc consts  --      1.0497                 1.1992                 1.1786
 IR Inten    --     19.5864                27.7764                 1.3628

                     40                     41                     42
                      A                      A                      A
 Frequencies --   1042.4805              1051.8795              1075.7853
 Red. masses --      2.0138                 1.8844                 1.4620
 Frc consts  --      1.2894                 1.2284                 0.9969
 IR Inten    --      8.0724                 3.8738                 4.1288

                     43                     44                     45
                      A                      A                      A
 Frequencies --   1091.0404              1113.0626              1119.4858
 Red. masses --      1.8661                 1.4905                 1.6295
 Frc consts  --      1.3088                 1.0880                 1.2032
 IR Inten    --      3.7023                 0.8083                 7.7765

                     46                     47                     48
                      A                      A                      A
 Frequencies --   1128.2628              1176.1175              1198.0575
 Red. masses --      1.7546                 2.3118                 2.7914
 Frc consts  --      1.3159                 1.8841                 2.3606
 IR Inten    --      8.9289                25.9979                 7.4305

                     49                     50                     51
                      A                      A                      A
 Frequencies --   1216.8077              1262.9190              1289.4742
 Red. masses --      1.4959                 1.7515                 1.4573
 Frc consts  --      1.3050                 1.6459                 1.4277
 IR Inten    --     14.7043                 2.6886                 0.9425

                     52                     53                     54
                      A                      A                      A
 Frequencies --   1304.5220              1323.4085              1339.2075
 Red. masses --      1.2542                 1.4389                 1.2269
 Frc consts  --      1.2575                 1.4848                 1.2964
 IR Inten    --      3.8652                 0.7964                 3.0828

                     55                     56                     57
                      A                      A                      A
 Frequencies --   1368.3109              1376.1933              1379.2423
 Red. masses --      1.3586                 1.3377                 1.7336
 Frc consts  --      1.4987                 1.4926                 1.9431
 IR Inten    --      3.7746                18.3470                 8.2490

                     58                     59                     60
                      A                      A                      A
 Frequencies --   1413.6381              1436.0074              1441.6939
 Red. masses --      2.8593                 1.2250                 1.2621
 Frc consts  --      3.3665                 1.4883                 1.5456
 IR Inten    --      1.8705                 2.5334                 1.0928

                     61                     62                     63
                      A                      A                      A
 Frequencies --   1474.1567              1498.1885              1512.9053
 Red. masses --      1.1771                 3.5218                 1.1301
 Frc consts  --      1.5072                 4.6575                 1.5240
 IR Inten    --      1.6047                 4.5703                 3.8985

                     64                     65                     66
                      A                      A                      A
 Frequencies --   1516.6756              1517.5532              1523.1929
 Red. masses --      1.1475                 1.0686                 1.0883
 Frc consts  --      1.5552                 1.4499                 1.4877
 IR Inten    --      0.6937                 3.4418                 3.1502

                     67                     68                     69
                      A                      A                      A
 Frequencies --   1532.5824              1534.8602              1538.2128
 Red. masses --      1.0651                 1.1365                 1.0771
 Frc consts  --      1.4740                 1.5774                 1.5015
 IR Inten    --      5.3888                12.4545                 3.3074

                     70                     71                     72
                      A                      A                      A
 Frequencies --   1615.8374              1696.7077              1728.5460
 Red. masses --      6.2722                 1.0832                 4.9774
 Frc consts  --      9.6486                 1.8372                 8.7622
 IR Inten    --      0.6249                16.7791                14.1684

                     73                     74                     75
                      A                      A                      A
 Frequencies --   3045.8643              3052.3185              3052.4812
 Red. masses --      1.0573                 1.0361                 1.0407
 Frc consts  --      5.7792                 5.6876                 5.7134
 IR Inten    --      8.0998                26.9188                36.2267

                     76                     77                     78
                      A                      A                      A
 Frequencies --   3055.0900              3092.4115              3098.1967
 Red. masses --      1.0614                 1.1007                 1.0894
 Frc consts  --      5.8368                 6.2017                 6.1608
 IR Inten    --     14.5750                 3.6726                 8.4991

                     79                     80                     81
                      A                      A                      A
 Frequencies --   3110.4135              3111.6539              3119.1563
 Red. masses --      1.0945                 1.1010                 1.1018
 Frc consts  --      6.2388                 6.2810                 6.3160
 IR Inten    --     21.5724                 8.1105                32.5221

                     82                     83                     84
                      A                      A                      A
 Frequencies --   3124.2430              3128.5948              3152.3084
 Red. masses --      1.1033                 1.1020                 1.0598
 Frc consts  --      6.3451                 6.3552                 6.2051
 IR Inten    --     49.8411                18.6451                 9.6837

                     85                     86                     87
                      A                      A                      A
 Frequencies --   3210.9073              3228.5043              3272.0631
 Red. masses --      1.0911                 1.1159                 1.0965
 Frc consts  --      6.6276                 6.8527                 6.9169
 IR Inten    --     10.4568                18.4369                 1.0305

                     88                     89                     90
                      A                      A                      A
 Frequencies --   3368.4300              3404.4315              3551.0921
 Red. masses --      1.0731                 1.0550                 1.0879
 Frc consts  --      7.1737                 7.2042                 8.0828
 IR Inten    --     16.2157                11.3145                 0.1816

 - Thermochemistry -
 -------------------
 Temperature   298.150 Kelvin.  Pressure   1.00000 Atm.
 Atom     1 has atomic number  6 and mass  12.00000

 Molecular mass:   210.11907 amu.
 Principal axes and moments of inertia in atomic units:
                           1         2         3
     Eigenvalues --  2639.655763454.279334047.93606
           X            0.99886   0.04293   0.02091
           Y           -0.04277   0.99905  -0.00805
           Z           -0.02123   0.00715   0.99975
 This molecule is an asymmetric top.
 Rotational symmetry number  1.
 Warning -- assumption of classical behavior for rotation
           may cause significant error
 Rotational temperatures (Kelvin)      0.03281     0.02507     0.02140
 Rotational constants (GHZ):           0.68370     0.52247     0.44584
 Zero-point vibrational energy     727826.6 (Joules/Mol)
                                  173.95474 (Kcal/Mol)
 Warning -- explicit consideration of  23 degrees of freedom as
           vibrations may cause significant error
 Vibrational temperatures:     29.47    61.75    64.96   106.36   128.87
          (Kelvin)            145.83   179.06   213.46   252.42   292.85
                              307.47   371.22   371.47   433.06   479.46
                              497.73   592.82   637.62   668.49   696.99
                              776.74   813.94   878.88   899.45   971.07
                              999.56  1031.83  1072.33  1152.15  1162.40
                             1198.01  1224.57  1274.51  1326.68  1331.85
                             1380.53  1383.64  1405.96  1482.30  1499.90
                             1513.42  1547.82  1569.76  1601.45  1610.69
                             1623.32  1692.17  1723.74  1750.71  1817.06
                             1855.27  1876.92  1904.09  1926.82  1968.69
                             1980.04  1984.42  2033.91  2066.09  2074.28
                             2120.98  2155.56  2176.73  2182.16  2183.42
                             2191.53  2205.04  2208.32  2213.15  2324.83
                             2441.18  2486.99  4382.32  4391.61  4391.84
                             4395.59  4449.29  4457.61  4475.19  4476.98
                             4487.77  4495.09  4501.35  4535.47  4619.78
                             4645.10  4707.77  4846.42  4898.22  5109.23

 Zero-point correction=                           0.277215 (Hartree/Particle)
 Thermal correction to Energy=                    0.293216
 Thermal correction to Enthalpy=                  0.294160
 Thermal correction to Gibbs Free Energy=         0.232398
 Sum of electronic and zero-point Energies=           -937.417525
 Sum of electronic and thermal Energies=              -937.401524
 Sum of electronic and thermal Enthalpies=            -937.400580
 Sum of electronic and thermal Free Energies=         -937.462341

                     E (Thermal)             CV                S
                      KCal/Mol        Cal/Mol-Kelvin    Cal/Mol-Kelvin
 Total                  183.996             58.735            129.989
 Electronic               0.000              0.000              0.000
 Translational            0.889              2.981             41.931
 Rotational               0.889              2.981             31.979
 Vibrational            182.218             52.773             56.079
 Vibration     1          0.593              1.986              6.587
 Vibration     2          0.595              1.980              5.120
 Vibration     3          0.595              1.979              5.019
 Vibration     4          0.599              1.966              4.046
 Vibration     5          0.602              1.957              3.669
 Vibration     6          0.604              1.948              3.428
 Vibration     7          0.610              1.929              3.030
 Vibration     8          0.618              1.904              2.693
 Vibration     9          0.627              1.873              2.376
 Vibration    10          0.639              1.835              2.101
 Vibration    11          0.644              1.820              2.012
 Vibration    12          0.667              1.749              1.675
 Vibration    13          0.667              1.749              1.674
 Vibration    14          0.693              1.672              1.411
 Vibration    15          0.715              1.609              1.244
 Vibration    16          0.724              1.584              1.185
 Vibration    17          0.776              1.444              0.919
 Vibration    18          0.803              1.376              0.817
 Vibration    19          0.822              1.329              0.753
 Vibration    20          0.841              1.285              0.698
 Vibration    21          0.895              1.162              0.566
 Vibration    22          0.922              1.105              0.513
 Vibration    23          0.970              1.009              0.431

 Optimization completed.
    -- Stationary point found.
 Normal termination of Gaussian 16 at Thu Dec 10 10:16:13 2020.

 ----------------------------------------------------------------------
 # B3LYP/6-311++G(d,p) empiricaldispersion=gd3bj scf=xqc pop=npa geom=c
 heck
 ----------------------------------------------------------------------

 ---------------------------------------
 CID_105320410_JID_4326_Energie_neutraal
 ---------------------------------------
 Structure from the checkpoint file:  "JID_4326.chk"
 Charge =  0 Multiplicity = 1

 SCF Done:  E(RB3LYP) =  -937.880968580     A.U. after   17 cycles
 Normal termination of Gaussian 16 at Thu Dec 10 10:22:30 2020.

 ----------------------------------------------------------------------
 # B3LYP/6-311++G(d,p) empiricaldispersion=gd3bj scf=xqc pop=npa geom=c
 heck
 ----------------------------------------------------------------------

 -------------------------------------
 CID_105320410_JID_4326_Energie_kation
 -------------------------------------
 Structure from the checkpoint file:  "JID_4326.chk"
 Charge =  1 Multiplicity = 2

 SCF Done:  E(UB3LYP) =  -937.590978431     A.U. after   30 cycles
 Normal termination of Gaussian 16 at Thu Dec 10 10:38:48 2020.
 Gaussian 16:  ES64L-G16RevA.03 25-Dec-2016

 ----------------------------------------------------------------------
 # B3LYP/6-311++G(d,p) empiricaldispersion=gd3bj scf=xqc pop=npa geom=c
 heck
 ----------------------------------------------------------------------

 ------------------------------------
 CID_105320410_JID_4326_Energie_anion
 ------------------------------------
 Structure from the checkpoint file:  "JID_4326.chk"
 Charge = -1 Multiplicity = 2

                         Standard orientation:
 ---------------------------------------------------------------------
 Center     Atomic      Atomic             Coordinates (Angstroms)
 Number     Number       Type             X           Y           Z
 ---------------------------------------------------------------------
      1          6           0       -3.077948   -1.203663   -1.356300
      2          6           0       -2.368401   -0.970822   -0.013101
      3          6           0       -2.179619    0.493902    0.317366
      4          6           0       -2.809176    1.060104    1.352439
      5          6           0       -1.249804    1.319515   -0.552652
      6          6           0        0.197996    1.354967   -0.016637
      7          6           0        0.809707   -0.020935    0.090165
      8          6           0        1.082497   -0.751217    1.219859
      9          6           0        1.615451   -2.047969    0.911802
     10          6           0        1.748852   -2.282236   -0.426082
     11         16           0        1.218878   -0.917572   -1.360618
     12          6           0        0.832405   -0.259587    2.622651
     13          7           0        0.977147    2.293080   -0.832765
     14          7           0        2.294722    2.425049   -0.289528
     15          1           0       -4.062348   -0.722756   -1.368143
     16          1           0       -3.217853   -2.275197   -1.536163
     17          1           0       -2.497370   -0.803599   -2.194606
     18          1           0       -2.950167   -1.441909    0.788073
     19          1           0       -1.395408   -1.474986   -0.033781
     20          1           0       -2.695557    2.117063    1.582890
     21          1           0       -3.462949    0.487404    2.005637
     22          1           0       -1.238809    0.930541   -1.579090
     23          1           0       -1.597313    2.355997   -0.606202
     24          1           0        0.179819    1.779339    0.990799
     25          1           0        1.892043   -2.769827    1.673620
     26          1           0        2.135700   -3.162329   -0.920873
     27          1           0        1.192668   -0.985083    3.358283
     28          1           0        1.347276    0.690088    2.806551
     29          1           0       -0.235667   -0.095242    2.803226
     30          1           0        1.006866    1.939573   -1.794702
     31          1           0        2.895156    1.648906   -0.580248
     32          1           0        2.687018    3.283907   -0.666401
 ---------------------------------------------------------------------

 SCF Done:  E(UB3LYP) =  -937.865016507     A.U. after   33 cycles
 SCF Done:  E(UB3LYP) =  -937.865016507     a.u. after    1 cycles

 The electronic state is 2-A.
 Alpha  occ. eigenvalues --  -88.77471 -14.23131 -14.22217 -10.11484 -10.09901
 Alpha  occ. eigenvalues --  -10.09620 -10.09093 -10.08407 -10.08078 -10.07598
 Alpha  occ. eigenvalues --  -10.07399 -10.07150 -10.06848 -10.06655  -7.86102
 Alpha  occ. eigenvalues --   -5.82380  -5.82017  -5.81708  -0.87100  -0.78449
 Alpha  occ. eigenvalues --   -0.73642  -0.70086  -0.66959  -0.64493  -0.63064
 Alpha  occ. eigenvalues --   -0.60233  -0.57758  -0.53599  -0.52741  -0.46308
 Alpha  occ. eigenvalues --   -0.44229  -0.43696  -0.40255  -0.39609  -0.39163
 Alpha  occ. eigenvalues --   -0.37638  -0.36705  -0.34148  -0.33894  -0.33172
 Alpha  occ. eigenvalues --   -0.32199  -0.31060  -0.29906  -0.28825  -0.28171
 Alpha  occ. eigenvalues --   -0.27635  -0.27109  -0.26261  -0.26144  -0.24319
 Alpha  occ. eigenvalues --   -0.23746  -0.23519  -0.17060  -0.16488  -0.15170
 Alpha  occ. eigenvalues --   -0.14601  -0.12844   0.04423
 Alpha virt. eigenvalues --    0.06276   0.06653   0.06900   0.07314   0.07984
 Alpha virt. eigenvalues --    0.08310   0.08759   0.09120   0.09818   0.10330
 Alpha virt. eigenvalues --    0.10793   0.11353   0.11804   0.12165   0.12309

  Beta  occ. eigenvalues --  -88.77465 -14.23111 -14.22182 -10.11482 -10.09880
  Beta  occ. eigenvalues --  -10.09609 -10.09094 -10.08408 -10.08069 -10.07580
  Beta  occ. eigenvalues --  -10.07387 -10.07134 -10.06828 -10.06642  -7.86094
  Beta  occ. eigenvalues --   -5.82374  -5.82009  -5.81702  -0.87061  -0.78425
  Beta  occ. eigenvalues --   -0.73622  -0.70046  -0.66937  -0.64465  -0.63015
  Beta  occ. eigenvalues --   -0.60198  -0.57724  -0.53555  -0.52702  -0.46262
  Beta  occ. eigenvalues --   -0.44199  -0.43653  -0.40214  -0.39564  -0.39111
  Beta  occ. eigenvalues --   -0.37617  -0.36679  -0.34119  -0.33862  -0.33149
  Beta  occ. eigenvalues --   -0.32179  -0.31031  -0.29883  -0.28794  -0.28145
  Beta  occ. eigenvalues --   -0.27601  -0.27073  -0.26239  -0.26119  -0.24298
  Beta  occ. eigenvalues --   -0.23726  -0.23494  -0.17017  -0.16466  -0.15146
  Beta  occ. eigenvalues --   -0.14572  -0.12799
  Beta virt. eigenvalues --    0.06429   0.07138   0.07284   0.07383   0.07498
  Beta virt. eigenvalues --    0.08345   0.08764   0.09026   0.09431   0.10118
  Beta virt. eigenvalues --    0.10596   0.11144   0.11626   0.12077   0.12411

 Mulliken charges and spin densities:
               1          2
     1  C    0.205337  -0.842892
     2  C   -1.154709   0.564291
     3  C    0.070909   0.925787
     4  C    0.991260  -1.455181
     5  C   -0.564764   0.108718
     6  C   -0.062882  -1.663343
     7  C   -0.900461   2.697228
     8  C   -1.626823   1.134845
     9  C    0.016249  -0.196077
    10  C    0.076272  -0.368592
    11  S    1.846167  -2.083100
    12  C    1.970039  -2.538277
    13  N    0.050860  -0.005409
    14  N   -0.406270   0.012665
    15  H    0.037077   0.107534
    16  H   -0.192518   0.333836
    17  H   -0.126864   0.250382
    18  H   -0.314353   0.452309
    19  H    0.495572  -0.344625
    20  H    0.029807   0.088803
    21  H    0.001556   0.122919
    22  H    0.278122  -0.124876
    23  H    0.039578   0.174811
    24  H    0.350293  -0.140628
    25  H   -0.804323   0.968582
    26  H   -1.022712   1.271447
    27  H   -0.207608   0.354979
    28  H    0.073762   0.102721
    29  H    0.056156   0.136617
    30  H   -0.121128   0.379369
    31  H   -0.014355   0.236242
    32  H   -0.069246   0.338913
 Sum of Mulliken charges =  -1.00000   1.00000

 Dipole moment (field-independent basis, Debye):
    X=             -3.2281    Y=              3.0145    Z=              0.2163  Tot=              4.4221
 Quadrupole moment (field-independent basis, Debye-Ang):
   XX=           -152.2977   YY=           -155.7676   ZZ=           -135.4952
   XY=              0.4105   XZ=             -0.1923   YZ=              3.4978

 Summary of Natural Population Analysis:

                                       Natural Population
                Natural  -----------------------------------------------
    Atom  No    Charge         Core      Valence    Rydberg      Total
 -----------------------------------------------------------------------
      C    1   -0.27963      0.99966     2.27598    0.00399     3.27963
      C    2   -0.20827      0.99957     2.19905    0.00964     3.20827
      C    3    0.00806      0.99952     1.97971    0.01272     2.99194
      C    4   -0.20021      0.99947     2.19321    0.00753     3.20021
      C    5   -0.20574      0.99955     2.19565    0.01054     3.20574
      C    6   -0.02286      0.99951     2.00796    0.01539     3.02286
      C    7   -0.10497      0.99940     2.08905    0.01652     3.10497
      C    8   -0.04349      0.99940     2.03214    0.01194     3.04349
      C    9   -0.11993      0.99948     2.10890    0.01155     3.11993
      C   10   -0.18705      0.99953     2.17570    0.01182     3.18705
      S   11    0.19341      4.99940     2.78690    0.02029     7.80659
      C   12   -0.29425      0.99962     2.28893    0.00570     3.29425
      N   13   -0.24932      0.99974     2.73416    0.01543     3.74932
      N   14   -0.32969      0.99977     2.81751    0.01241     3.82969
      H   15    0.09450      0.00000     0.40438    0.00111     0.40550
      H   16    0.10053      0.00000     0.39840    0.00107     0.39947
      H   17    0.09639      0.00000     0.40240    0.00121     0.40361
      H   18    0.09714      0.00000     0.40154    0.00132     0.40286
      H   19    0.10925      0.00000     0.38831    0.00244     0.39075
      H   20    0.09168      0.00000     0.40733    0.00099     0.40832
      H   21    0.09330      0.00000     0.40566    0.00105     0.40670
      H   22    0.10101      0.00000     0.39731    0.00169     0.39899
      H   23    0.10815      0.00000     0.39047    0.00139     0.39185
      H   24    0.10745      0.00000     0.39002    0.00253     0.39255
      H   25    0.10843      0.00000     0.38962    0.00195     0.39157
      H   26    0.11256      0.00000     0.38520    0.00224     0.38744
      H   27    0.10357      0.00000     0.39557    0.00086     0.39643
      H   28    0.10713      0.00000     0.39186    0.00101     0.39287
      H   29    0.10832      0.00000     0.39051    0.00117     0.39168
      H   30    0.16036      0.00000     0.33532    0.00431     0.33964
      H   31    0.16887      0.00000     0.32880    0.00233     0.33113
      H   32    0.17531      0.00000     0.32252    0.00218     0.32469
 =======================================================================
   * Total *   -0.00000     17.99362    38.81006    0.19632    57.00000

 Normal termination of Gaussian 16 at Thu Dec 10 10:56:50 2020.
