 Gaussian 16, Revision A.03,

 -----------------------------------------------------------
 # opt freq B3LYP/6-31G(d) empiricaldispersion=gd3bj scf=xqc
 -----------------------------------------------------------

 -------------------------------
 CID_80844171_JID_10612_neutraal
 -------------------------------
 Symbolic Z-matrix:
 Charge =  0 Multiplicity = 1

 SCF Done:  E(RB3LYP) =  -949.584376774     A.U. after   13 cycles
 SCF Done:  E(RB3LYP) =  -949.586978334     A.U. after   13 cycles
 SCF Done:  E(RB3LYP) =  -949.594438398     A.U. after   12 cycles
 SCF Done:  E(RB3LYP) =  -949.595714709     A.U. after   12 cycles
 SCF Done:  E(RB3LYP) =  -949.597147252     A.U. after   11 cycles
 SCF Done:  E(RB3LYP) =  -949.599127558     A.U. after   12 cycles
 SCF Done:  E(RB3LYP) =  -949.599562658     A.U. after   11 cycles
 SCF Done:  E(RB3LYP) =  -949.599866353     A.U. after   11 cycles
 SCF Done:  E(RB3LYP) =  -949.599983913     A.U. after   10 cycles
 SCF Done:  E(RB3LYP) =  -949.600077053     A.U. after   10 cycles
 SCF Done:  E(RB3LYP) =  -949.600204653     A.U. after    7 cycles
 SCF Done:  E(RB3LYP) =  -949.600204949     A.U. after    7 cycles
 SCF Done:  E(RB3LYP) =  -949.600205048     A.U. after    7 cycles
 SCF Done:  E(RB3LYP) =  -949.600205093     A.U. after    6 cycles
 SCF Done:  E(RB3LYP) =  -949.600205113     A.U. after    6 cycles
 Optimization completed.
    -- Stationary point found.
 Normal termination of Gaussian 16 at Sun Dec 13 17:01:18 2020.

 --------------------------------------------------------------------
 #N Geom=AllCheck Guess=TCheck SCRF=Check GenChk RB3LYP/6-31G(d) Freq
 --------------------------------------------------------------------

 Structure from the checkpoint file:  "JID_10612.chk"
 -------------------------------
 CID_80844171_JID_10612_neutraal
 -------------------------------
 Charge =  0 Multiplicity = 1

 SCF Done:  E(RB3LYP) =  -949.600205113     A.U. after    1 cycles

  Exact polarizability: 235.592   0.737 180.261  10.717   4.301 122.516
 Approx polarizability: 297.196  -4.772 275.138  21.258  10.332 177.011

                      1                      2                      3
                      A                      A                      A
 Frequencies --     17.0139                32.9767                36.5966
 Red. masses --      5.0487                 4.0433                 3.9224
 Frc consts  --      0.0009                 0.0026                 0.0031
 IR Inten    --      0.1900                 0.8004                 0.7012

                      4                      5                      6
                      A                      A                      A
 Frequencies --     56.6559                95.4622               102.1875
 Red. masses --      3.5444                 3.8285                 2.0739
 Frc consts  --      0.0067                 0.0206                 0.0128
 IR Inten    --      0.3233                 0.1516                 1.2477

                      7                      8                      9
                      A                      A                      A
 Frequencies --    156.2967               158.2820               164.3447
 Red. masses --      4.0146                 4.9321                 5.8812
 Frc consts  --      0.0578                 0.0728                 0.0936
 IR Inten    --      0.7234                 0.8483                 2.6069

                     10                     11                     12
                      A                      A                      A
 Frequencies --    190.1611               199.7188               221.7199
 Red. masses --      3.5628                 6.4812                 2.3553
 Frc consts  --      0.0759                 0.1523                 0.0682
 IR Inten    --      3.7524                 5.7586                 0.4225

                     13                     14                     15
                      A                      A                      A
 Frequencies --    229.7505               245.8536               261.8192
 Red. masses --      1.6067                 2.0521                 2.6579
 Frc consts  --      0.0500                 0.0731                 0.1073
 IR Inten    --      0.2142                 1.3258                 5.3722

                     16                     17                     18
                      A                      A                      A
 Frequencies --    279.2597               293.4967               300.5021
 Red. masses --      1.4385                 2.2761                 2.7432
 Frc consts  --      0.0661                 0.1155                 0.1460
 IR Inten    --      0.0803                 2.1776                 2.2679

                     19                     20                     21
                      A                      A                      A
 Frequencies --    318.5725               324.4475               358.6061
 Red. masses --      2.6234                 1.2685                 4.0268
 Frc consts  --      0.1569                 0.0787                 0.3051
 IR Inten    --      1.1065               294.3153                 3.9187

                     22                     23                     24
                      A                      A                      A
 Frequencies --    370.0709               407.9697               425.0986
 Red. masses --      3.0619                 3.0096                 1.8935
 Frc consts  --      0.2471                 0.2951                 0.2016
 IR Inten    --      4.1505                 4.6673                 1.6395

                     25                     26                     27
                      A                      A                      A
 Frequencies --    463.9889               477.9201               490.9838
 Red. masses --      2.7437                 3.0539                 2.6697
 Frc consts  --      0.3480                 0.4110                 0.3792
 IR Inten    --      1.1944                12.4919                 2.9870

                     28                     29                     30
                      A                      A                      A
 Frequencies --    520.2013               550.9883               561.6833
 Red. masses --      1.1492                 4.1546                 1.9972
 Frc consts  --      0.1832                 0.7431                 0.3712
 IR Inten    --      8.7108                16.4285                38.9969

                     31                     32                     33
                      A                      A                      A
 Frequencies --    581.1929               603.6466               616.6450
 Red. masses --      1.8017                 3.3089                 5.4378
 Frc consts  --      0.3586                 0.7104                 1.2183
 IR Inten    --     32.9546                 6.7174                10.3265

                     34                     35                     36
                      A                      A                      A
 Frequencies --    639.2587               721.7020               729.7043
 Red. masses --      2.0507                 2.8805                10.0074
 Frc consts  --      0.4937                 0.8840                 3.1395
 IR Inten    --      8.9679                18.3112                 0.2463

                     37                     38                     39
                      A                      A                      A
 Frequencies --    734.8679               738.9743               760.2727
 Red. masses --      3.6881                 1.6236                 2.6144
 Frc consts  --      1.1735                 0.5224                 0.8903
 IR Inten    --      7.0061                70.3703                12.5708

                     40                     41                     42
                      A                      A                      A
 Frequencies --    798.8696               817.7099               854.4515
 Red. masses --      1.3548                 8.2292                 3.8432
 Frc consts  --      0.5094                 3.2420                 1.6532
 IR Inten    --     19.2667                63.4011                 1.8896

                     43                     44                     45
                      A                      A                      A
 Frequencies --    870.4145               881.5097               910.8001
 Red. masses --      1.6261                 2.8263                 2.3366
 Frc consts  --      0.7259                 1.2939                 1.1420
 IR Inten    --      0.1867                10.4209                23.0146

                     46                     47                     48
                      A                      A                      A
 Frequencies --    934.4985               968.2823               989.5323
 Red. masses --      2.2769                 2.3958                 1.5086
 Frc consts  --      1.1715                 1.3234                 0.8703
 IR Inten    --      1.0721                12.0502                 1.1145

                     49                     50                     51
                      A                      A                      A
 Frequencies --   1000.8641              1023.7222              1029.8161
 Red. masses --     10.0678                 1.7800                 2.4480
 Frc consts  --      5.9420                 1.0991                 1.5296
 IR Inten    --      4.7799                 2.0066                11.1792

                     52                     53                     54
                      A                      A                      A
 Frequencies --   1047.4257              1051.5940              1078.5472
 Red. masses --      1.7382                 2.3402                 1.8895
 Frc consts  --      1.1236                 1.5247                 1.2950
 IR Inten    --      7.5676                66.0803                 3.0343

                     55                     56                     57
                      A                      A                      A
 Frequencies --   1090.2898              1106.3192              1128.9726
 Red. masses --      2.1253                 1.7425                 4.1994
 Frc consts  --      1.4885                 1.2565                 3.1536
 IR Inten    --     10.9260                 7.4471                31.9041

                     58                     59                     60
                      A                      A                      A
 Frequencies --   1136.7646              1150.8900              1160.7615
 Red. masses --      3.0297                 6.0251                 2.9527
 Frc consts  --      2.3067                 4.7020                 2.3440
 IR Inten    --     40.8114                91.2276                 4.9206

                     61                     62                     63
                      A                      A                      A
 Frequencies --   1200.8866              1207.5505              1217.8116
 Red. masses --      2.1263                 2.0632                 2.6551
 Frc consts  --      1.8066                 1.7725                 2.3201
 IR Inten    --      7.6445                36.8158                18.5674

                     64                     65                     66
                      A                      A                      A
 Frequencies --   1232.5086              1239.5347              1257.4651
 Red. masses --      2.3916                 1.7791                 1.4018
 Frc consts  --      2.1405                 1.6105                 1.3060
 IR Inten    --     82.8898                17.7653                 1.4372

                     67                     68                     69
                      A                      A                      A
 Frequencies --   1303.2364              1308.5220              1322.3023
 Red. masses --      1.2882                 1.5182                 2.3663
 Frc consts  --      1.2890                 1.5316                 2.4378
 IR Inten    --      5.2236                43.0294                31.4146

                     70                     71                     72
                      A                      A                      A
 Frequencies --   1335.4822              1342.3504              1354.4789
 Red. masses --      1.3703                 1.3422                 2.1875
 Frc consts  --      1.4399                 1.4249                 2.3645
 IR Inten    --     99.0655               112.5424                86.3519

                     73                     74                     75
                      A                      A                      A
 Frequencies --   1374.0239              1390.5180              1405.8345
 Red. masses --      1.2435                 1.4457                 1.3288
 Frc consts  --      1.3832                 1.6469                 1.5473
 IR Inten    --      0.1276                 8.8841                31.5332

                     76                     77                     78
                      A                      A                      A
 Frequencies --   1410.5919              1418.5690              1435.7543
 Red. masses --      1.3779                 1.4820                 1.6260
 Frc consts  --      1.6154                 1.7571                 1.9748
 IR Inten    --     25.6777                48.0762                14.7078

                     79                     80                     81
                      A                      A                      A
 Frequencies --   1438.8015              1440.6218              1444.5163
 Red. masses --      1.4197                 1.3617                 1.3417
 Frc consts  --      1.7317                 1.6650                 1.6495
 IR Inten    --     21.9829                 2.5378                50.3094

                     82                     83                     84
                      A                      A                      A
 Frequencies --   1503.4107              1507.0007              1509.7757
 Red. masses --      1.6625                 1.0811                 1.0787
 Frc consts  --      2.2139                 1.4466                 1.4487
 IR Inten    --    200.5321                 3.4504                20.5012

                     85                     86                     87
                      A                      A                      A
 Frequencies --   1512.4581              1512.9955              1520.5378
 Red. masses --      1.2777                 1.0904                 1.1303
 Frc consts  --      1.7220                 1.4706                 1.5397
 IR Inten    --     96.9859                 5.6489                20.4190

                     88                     89                     90
                      A                      A                      A
 Frequencies --   1526.3755              1530.4982              1531.9632
 Red. masses --      1.1152                 1.1209                 1.1056
 Frc consts  --      1.5308                 1.5470                 1.5288
 IR Inten    --     16.5102                38.5286                10.6903

                     91                     92                     93
                      A                      A                      A
 Frequencies --   1538.4826              1542.8096              1546.4713
 Red. masses --      1.1343                 1.1662                 1.7100
 Frc consts  --      1.5818                 1.6354                 2.4095
 IR Inten    --     81.3001                88.3043               389.7308

                     94                     95                     96
                      A                      A                      A
 Frequencies --   1560.8527              1602.5696              1614.0103
 Red. masses --      1.5746                 5.6601                 3.0453
 Frc consts  --      2.2601                 8.5647                 4.6740
 IR Inten    --     93.2569               754.7569               477.2876

                     97                     98                     99
                      A                      A                      A
 Frequencies --   1638.1078              1684.8502              2979.5430
 Red. masses --      3.0663                 2.1812                 1.0703
 Frc consts  --      4.8478                 3.6481                 5.5984
 IR Inten    --    937.7239               283.5164                74.0365

                    100                    101                    102
                      A                      A                      A
 Frequencies --   2993.1452              2999.5003              3027.8830
 Red. masses --      1.0705                 1.0708                 1.0717
 Frc consts  --      5.6508                 5.6764                 5.7887
 IR Inten    --     27.8755                56.7499                 5.8979

                    103                    104                    105
                      A                      A                      A
 Frequencies --   3031.9708              3049.4789              3054.5619
 Red. masses --      1.0723                 1.0365                 1.0402
 Frc consts  --      5.8080                 5.6790                 5.7181
 IR Inten    --    122.1508                14.8723                30.2066

                    106                    107                    108
                      A                      A                      A
 Frequencies --   3057.2994              3077.5313              3106.8167
 Red. masses --      1.0668                 1.0923                 1.0991
 Frc consts  --      5.8751                 6.0954                 6.2505
 IR Inten    --     10.6677                75.2152                20.0935

                    109                    110                    111
                      A                      A                      A
 Frequencies --   3114.5891              3116.2526              3116.8979
 Red. masses --      1.0941                 1.0960                 1.1014
 Frc consts  --      6.2532                 6.2706                 6.3046
 IR Inten    --     44.4064                54.9199                29.5663

                    112                    113                    114
                      A                      A                      A
 Frequencies --   3118.7929              3133.8084              3139.4079
 Red. masses --      1.1014                 1.0960                 1.1013
 Frc consts  --      6.3121                 6.3417                 6.3950
 IR Inten    --     29.1855                34.4394                30.2948

                    115                    116                    117
                      A                      A                      A
 Frequencies --   3174.2182              3174.9967              3439.2744
 Red. masses --      1.0921                 1.0911                 1.0664
 Frc consts  --      6.4833                 6.4807                 7.4320
 IR Inten    --      5.3721                 4.8440               733.2649

                    118                    119                    120
                      A                      A                      A
 Frequencies --   3606.9373              3608.6445              3732.3614
 Red. masses --      1.0738                 1.0472                 1.1044
 Frc consts  --      8.2308                 8.0343                 9.0644
 IR Inten    --     47.0746                52.4490                42.6320

 - Thermochemistry -
 -------------------
 Temperature   298.150 Kelvin.  Pressure   1.00000 Atm.
 Atom     1 has atomic number  6 and mass  12.00000

 Molecular mass:   282.18042 amu.
 Principal axes and moments of inertia in atomic units:
                           1         2         3
     Eigenvalues --  2795.89832********************
           X            0.99991   0.01330  -0.00340
           Y           -0.01332   0.99990  -0.00427
           Z            0.00334   0.00432   0.99999
 This molecule is an asymmetric top.
 Rotational symmetry number  1.
 Warning -- assumption of classical behavior for rotation
           may cause significant error
 Rotational temperatures (Kelvin)      0.03098     0.00841     0.00736
 Rotational constants (GHZ):           0.64550     0.17518     0.15329
 Zero-point vibrational energy     955752.7 (Joules/Mol)
                                  228.43037 (Kcal/Mol)
 Warning -- explicit consideration of  33 degrees of freedom as
           vibrations may cause significant error
 Vibrational temperatures:     24.48    47.45    52.65    81.52   137.35
          (Kelvin)            147.02   224.88   227.73   236.46   273.60
                              287.35   319.01   330.56   353.73   376.70
                              401.79   422.28   432.36   458.35   466.81
                              515.95   532.45   586.98   611.62   667.58
                              687.62   706.42   748.45   792.75   808.14
                              836.21   868.51   887.21   919.75  1038.37
                             1049.88  1057.31  1063.22  1093.86  1149.40
                             1176.50  1229.37  1252.33  1268.30  1310.44
                             1344.53  1393.14  1423.72  1440.02  1472.91
                             1481.68  1507.01  1513.01  1551.79  1568.68
                             1591.75  1624.34  1635.55  1655.87  1670.08
                             1727.81  1737.40  1752.16  1773.30  1783.41
                             1809.21  1875.07  1882.67  1902.50  1921.46
                             1931.34  1948.79  1976.91  2000.65  2022.68
                             2029.53  2041.00  2065.73  2070.11  2072.73
                             2078.34  2163.07  2168.24  2172.23  2176.09
                             2176.86  2187.71  2196.11  2202.05  2204.15
                             2213.53  2219.76  2225.03  2245.72  2305.74
                             2322.20  2356.87  2424.12  4286.90  4306.47
                             4315.61  4356.45  4362.33  4387.52  4394.83
                             4398.77  4427.88  4470.02  4481.20  4483.59
                             4484.52  4487.25  4508.85  4516.91  4566.99
                             4568.11  4948.35  5189.58  5192.03  5370.04

 Zero-point correction=                           0.364027 (Hartree/Particle)
 Thermal correction to Energy=                    0.383718
 Thermal correction to Enthalpy=                  0.384662
 Thermal correction to Gibbs Free Energy=         0.315025
 Sum of electronic and zero-point Energies=           -949.236178
 Sum of electronic and thermal Energies=              -949.216487
 Sum of electronic and thermal Enthalpies=            -949.215543
 Sum of electronic and thermal Free Energies=         -949.285180

                     E (Thermal)             CV                S
                      KCal/Mol        Cal/Mol-Kelvin    Cal/Mol-Kelvin
 Total                  240.787             75.903            146.563
 Electronic               0.000              0.000              0.000
 Translational            0.889              2.981             42.810
 Rotational               0.889              2.981             34.183
 Vibrational            239.009             69.941             69.570
 Vibration     1          0.593              1.986              6.955
 Vibration     2          0.594              1.983              5.642
 Vibration     3          0.594              1.982              5.435
 Vibration     4          0.596              1.975              4.570
 Vibration     5          0.603              1.952              3.545
 Vibration     6          0.604              1.947              3.412
 Vibration     7          0.620              1.896              2.594
 Vibration     8          0.621              1.893              2.570
 Vibration     9          0.623              1.886              2.499
 Vibration    10          0.633              1.853              2.226
 Vibration    11          0.638              1.840              2.136
 Vibration    12          0.648              1.808              1.945
 Vibration    13          0.652              1.796              1.881
 Vibration    14          0.660              1.770              1.760
 Vibration    15          0.669              1.743              1.650
 Vibration    16          0.680              1.712              1.538
 Vibration    17          0.688              1.686              1.454
 Vibration    18          0.693              1.673              1.414
 Vibration    19          0.705              1.638              1.317
 Vibration    20          0.709              1.627              1.288
 Vibration    21          0.733              1.558              1.128
 Vibration    22          0.742              1.534              1.079
 Vibration    23          0.773              1.453              0.934
 Vibration    24          0.787              1.416              0.875
 Vibration    25          0.822              1.330              0.755
 Vibration    26          0.834              1.299              0.716
 Vibration    27          0.847              1.270              0.681
 Vibration    28          0.875              1.205              0.609
 Vibration    29          0.906              1.138              0.542
 Vibration    30          0.917              1.114              0.520
 Vibration    31          0.938              1.072              0.483
 Vibration    32          0.962              1.024              0.443
 Vibration    33          0.976              0.997              0.422

                           ! Non-Optimized Parameters !
 Normal termination of Gaussian 16 at Sun Dec 13 17:22:51 2020.

 ----------------------------------------------------------------------
 # B3LYP/6-311++G(d,p) empiricaldispersion=gd3bj scf=xqc pop=npa geom=c
 heck
 ----------------------------------------------------------------------

 ---------------------------------------
 CID_80844171_JID_10612_Energie_neutraal
 ---------------------------------------
 Structure from the checkpoint file:  "JID_10612.chk"
 Charge =  0 Multiplicity = 1

 SCF Done:  E(RB3LYP) =  -949.879542231     A.U. after   14 cycles
 Normal termination of Gaussian 16 at Sun Dec 13 17:31:07 2020.

 ----------------------------------------------------------------------
 # B3LYP/6-311++G(d,p) empiricaldispersion=gd3bj scf=xqc pop=npa geom=c
 heck
 ----------------------------------------------------------------------

 -------------------------------------
 CID_80844171_JID_10612_Energie_kation
 -------------------------------------
 Structure from the checkpoint file:  "JID_10612.chk"
 Charge =  1 Multiplicity = 2

 SCF Done:  E(UB3LYP) =  -949.590996217     A.U. after   28 cycles
 Normal termination of Gaussian 16 at Sun Dec 13 17:54:11 2020.
 Gaussian 16:  ES64L-G16RevA.03 25-Dec-2016

 ----------------------------------------------------------------------
 # B3LYP/6-311++G(d,p) empiricaldispersion=gd3bj scf=xqc pop=npa geom=c
 heck
 ----------------------------------------------------------------------

 ------------------------------------
 CID_80844171_JID_10612_Energie_anion
 ------------------------------------
 Structure from the checkpoint file:  "JID_10612.chk"
 Charge = -1 Multiplicity = 2

                         Standard orientation:
 ---------------------------------------------------------------------
 Center     Atomic      Atomic             Coordinates (Angstroms)
 Number     Number       Type             X           Y           Z
 ---------------------------------------------------------------------
      1          6           0       -3.187136   -1.423095    2.173618
      2          6           0       -3.672691   -0.446012    1.101463
      3          6           0       -3.262224   -0.808867   -0.342430
      4          6           0       -3.841307   -2.165132   -0.771210
      5          6           0       -3.806684    0.254443   -1.337971
      6          8           0       -3.715948    1.590080   -0.909797
      7          7           0       -1.793801   -0.965459   -0.457467
      8          6           0       -0.813532   -0.071192   -0.172053
      9          7           0        0.413381   -0.596641   -0.003445
     10          6           0        1.387329    0.299707    0.234134
     11          7           0        1.210049    1.635447    0.333756
     12          6           0       -0.053221    2.034564    0.164592
     13          7           0       -1.109228    1.241556   -0.103455
     14          7           0       -0.306270    3.363805    0.295472
     15          7           0        2.652756   -0.173723    0.392696
     16          6           0        3.794907    0.692523    0.656741
     17          6           0        4.883180    0.419737   -0.380771
     18          8           0        5.233408   -0.957894   -0.413933
     19          6           0        4.108056   -1.764667   -0.736812
     20          6           0        2.984869   -1.588751    0.284496
     21          1           0       -3.611573   -2.425556    2.046770
     22          1           0       -3.475961   -1.070148    3.169356
     23          1           0       -2.095303   -1.515508    2.160902
     24          1           0       -4.767283   -0.370043    1.125995
     25          1           0       -3.297333    0.556943    1.318025
     26          1           0       -4.924433   -2.177598   -0.620776
     27          1           0       -3.636869   -2.354294   -1.831224
     28          1           0       -3.414095   -2.989719   -0.189985
     29          1           0       -3.298681    0.089212   -2.303641
     30          1           0       -4.873384    0.051634   -1.488451
     31          1           0       -2.774906    1.707624   -0.642941
     32          1           0       -1.446431   -1.914439   -0.416656
     33          1           0        0.486595    3.986931    0.297529
     34          1           0       -1.195223    3.716294   -0.025714
     35          1           0        4.187801    0.474235    1.660281
     36          1           0        3.461806    1.728993    0.624400
     37          1           0        4.531651    0.744926   -1.373940
     38          1           0        5.798233    0.965841   -0.133765
     39          1           0        4.462012   -2.799638   -0.747434
     40          1           0        3.732946   -1.506589   -1.740986
     41          1           0        3.323883   -1.955398    1.264145
     42          1           0        2.089389   -2.135641   -0.007724
 ---------------------------------------------------------------------

 SCF Done:  E(UB3LYP) =  -949.868032041     A.U. after   33 cycles
 SCF Done:  E(UB3LYP) =  -949.868032041     a.u. after    1 cycles

 The electronic state is 2-A.
 Alpha  occ. eigenvalues --  -19.04827 -19.00608 -14.25634 -14.24160 -14.24048
 Alpha  occ. eigenvalues --  -14.21234 -14.20372 -14.20333 -10.19266 -10.19052
 Alpha  occ. eigenvalues --  -10.18893 -10.13834 -10.13781 -10.13344 -10.12012
 Alpha  occ. eigenvalues --  -10.11751 -10.11730 -10.08056 -10.07455 -10.06915
 Alpha  occ. eigenvalues --   -0.96591  -0.94343  -0.91698  -0.88284  -0.87165
 Alpha  occ. eigenvalues --   -0.81871  -0.78477  -0.77003  -0.70913  -0.69723
 Alpha  occ. eigenvalues --   -0.65170  -0.64515  -0.59064  -0.58851  -0.56361
 Alpha  occ. eigenvalues --   -0.56173  -0.54338  -0.51228  -0.49783  -0.47123
 Alpha  occ. eigenvalues --   -0.45422  -0.43694  -0.41076  -0.40830  -0.40160
 Alpha  occ. eigenvalues --   -0.39574  -0.39010  -0.38080  -0.37803  -0.37016
 Alpha  occ. eigenvalues --   -0.36348  -0.35801  -0.34892  -0.34065  -0.33693
 Alpha  occ. eigenvalues --   -0.31900  -0.30935  -0.30371  -0.29744  -0.29369
 Alpha  occ. eigenvalues --   -0.28841  -0.28261  -0.28170  -0.27236  -0.26697
 Alpha  occ. eigenvalues --   -0.25191  -0.24646  -0.23864  -0.23203  -0.19528
 Alpha  occ. eigenvalues --   -0.18086  -0.17571  -0.17247  -0.16777  -0.14918
 Alpha  occ. eigenvalues --   -0.14039   0.03900
 Alpha virt. eigenvalues --    0.05360   0.06075   0.06979   0.07126   0.07762
 Alpha virt. eigenvalues --    0.07818   0.08393   0.08712   0.08974   0.09390
 Alpha virt. eigenvalues --    0.09826   0.09977   0.10315   0.10812   0.11305

  Beta  occ. eigenvalues --  -19.04822 -19.00605 -14.25637 -14.24144 -14.24001
  Beta  occ. eigenvalues --  -14.21224 -14.20358 -14.20328 -10.19265 -10.19047
  Beta  occ. eigenvalues --  -10.18884 -10.13821 -10.13766 -10.13343 -10.12007
  Beta  occ. eigenvalues --  -10.11738 -10.11718 -10.08023 -10.07447 -10.06892
  Beta  occ. eigenvalues --   -0.96580  -0.94327  -0.91692  -0.88271  -0.87135
  Beta  occ. eigenvalues --   -0.81840  -0.78458  -0.76967  -0.70893  -0.69701
  Beta  occ. eigenvalues --   -0.65144  -0.64496  -0.59026  -0.58809  -0.56324
  Beta  occ. eigenvalues --   -0.56135  -0.54300  -0.51189  -0.49757  -0.47090
  Beta  occ. eigenvalues --   -0.45380  -0.43664  -0.41055  -0.40798  -0.40138
  Beta  occ. eigenvalues --   -0.39549  -0.38984  -0.38048  -0.37768  -0.36998
  Beta  occ. eigenvalues --   -0.36328  -0.35782  -0.34874  -0.34047  -0.33667
  Beta  occ. eigenvalues --   -0.31871  -0.30905  -0.30342  -0.29714  -0.29339
  Beta  occ. eigenvalues --   -0.28819  -0.28232  -0.28146  -0.27202  -0.26668
  Beta  occ. eigenvalues --   -0.25173  -0.24627  -0.23845  -0.23185  -0.19504
  Beta  occ. eigenvalues --   -0.18068  -0.17546  -0.17235  -0.16745  -0.14892
  Beta  occ. eigenvalues --   -0.14032
  Beta virt. eigenvalues --    0.05865   0.06328   0.06832   0.07204   0.07532
  Beta virt. eigenvalues --    0.07873   0.08190   0.08435   0.08953   0.09174
  Beta virt. eigenvalues --    0.09784   0.10127   0.10257   0.10510   0.10875

 Mulliken charges and spin densities:
               1          2
     1  C    0.184736  -0.908326
     2  C   -0.657877   0.632496
     3  C   -0.749415   0.685668
     4  C    1.162116  -1.592384
     5  C   -0.184075  -0.157917
     6  O   -0.270975   0.015495
     7  N   -0.037755   0.033448
     8  C   -0.162135  -0.167783
     9  N   -0.220110   0.087952
    10  C    0.511519  -0.868978
    11  N   -0.253927   0.047540
    12  C   -0.028791   0.344150
    13  N   -0.214906  -0.143479
    14  N   -0.480048   0.182065
    15  N    0.060253  -0.008630
    16  C    0.211015  -0.356161
    17  C    0.136347  -0.410321
    18  O   -0.179496   0.045210
    19  C    0.191232  -0.561308
    20  C    0.218327  -0.294061
    21  H   -0.022126   0.166018
    22  H    0.022088   0.121283
    23  H   -0.164079   0.330875
    24  H   -0.001740   0.169030
    25  H    0.144556   0.013971
    26  H   -0.068700   0.221841
    27  H   -0.042148   0.204727
    28  H   -0.484957   0.626786
    29  H    0.063866   0.087655
    30  H    0.099691   0.068691
    31  H    0.404744  -0.048244
    32  H    0.391273  -0.041448
    33  H   -0.389220   0.679986
    34  H    0.008294   0.271531
    35  H    0.004265   0.159008
    36  H   -0.000834   0.198054
    37  H   -0.001491   0.139377
    38  H   -0.046738   0.222466
    39  H   -0.026904   0.202290
    40  H    0.057585   0.085185
    41  H    0.000753   0.159548
    42  H   -0.184212   0.356695
 Sum of Mulliken charges =  -1.00000   1.00000

 Dipole moment (field-independent basis, Debye):
    X=              0.7530    Y=             -1.1221    Z=             -0.5094  Tot=              1.4442
 Quadrupole moment (field-independent basis, Debye-Ang):
   XX=           -210.0844   YY=           -188.9569   ZZ=           -150.6417
   XY=             -6.2243   XZ=             -1.0881   YZ=              0.9883

 Summary of Natural Population Analysis:

                                       Natural Population
                Natural  -----------------------------------------------
    Atom  No    Charge         Core      Valence    Rydberg      Total
 -----------------------------------------------------------------------
      C    1   -0.28972      0.99966     2.28479    0.00527     3.28972
      C    2   -0.19986      0.99958     2.19017    0.01011     3.19986
      C    3    0.05254      0.99956     1.93337    0.01453     2.94746
      C    4   -0.29017      0.99962     2.28276    0.00779     3.29017
      C    5   -0.00696      0.99953     1.99498    0.01246     3.00696
      O    6   -0.38905      0.99989     3.38167    0.00749     4.38905
      N    7   -0.31201      0.99963     2.80041    0.01196     3.81201
      C    8    0.33016      0.99960     1.65222    0.01802     2.66984
      N    9   -0.32087      0.99964     2.81240    0.00884     3.82087
      C   10    0.32822      0.99957     1.65521    0.01700     2.67178
      N   11   -0.31968      0.99963     2.81027    0.00978     3.81968
      C   12    0.32177      0.99962     1.66033    0.01829     2.67823
      N   13   -0.34466      0.99961     2.83411    0.01095     3.84466
      N   14   -0.38157      0.99969     2.87344    0.00843     3.88157
      N   15   -0.24225      0.99963     2.73107    0.01155     3.74225
      C   16   -0.10196      0.99961     2.09107    0.01128     3.10196
      C   17   -0.01357      0.99958     2.00291    0.01109     3.01357
      O   18   -0.30004      0.99989     3.29055    0.00959     4.30004
      C   19   -0.01365      0.99958     2.00306    0.01101     3.01365
      C   20   -0.10193      0.99961     2.09106    0.01127     3.10193
      H   21    0.09620      0.00000     0.40278    0.00102     0.40380
      H   22    0.09944      0.00000     0.39992    0.00064     0.40056
      H   23    0.10096      0.00000     0.39798    0.00106     0.39904
      H   24    0.09839      0.00000     0.40069    0.00092     0.40161
      H   25    0.11007      0.00000     0.38841    0.00152     0.38993
      H   26    0.10425      0.00000     0.39470    0.00105     0.39575
      H   27    0.10386      0.00000     0.39502    0.00112     0.39614
      H   28    0.10426      0.00000     0.39432    0.00142     0.39574
      H   29    0.07856      0.00000     0.42025    0.00119     0.42144
      H   30    0.08461      0.00000     0.41416    0.00124     0.41539
      H   31    0.24396      0.00000     0.25184    0.00420     0.25604
      H   32    0.19827      0.00000     0.29850    0.00323     0.30173
      H   33    0.20103      0.00000     0.29324    0.00573     0.29897
      H   34    0.19602      0.00000     0.30200    0.00199     0.30398
      H   35    0.09173      0.00000     0.40701    0.00126     0.40827
      H   36    0.12324      0.00000     0.37468    0.00209     0.37676
      H   37    0.08010      0.00000     0.41830    0.00160     0.41990
      H   38    0.09280      0.00000     0.40586    0.00134     0.40720
      H   39    0.09278      0.00000     0.40593    0.00129     0.40722
      H   40    0.07980      0.00000     0.41864    0.00156     0.42020
      H   41    0.09224      0.00000     0.40646    0.00131     0.40776
      H   42    0.12268      0.00000     0.37540    0.00193     0.37732
 =======================================================================
   * Total *    0.00000     19.99272    55.74189    0.26539    76.00000

 Normal termination of Gaussian 16 at Sun Dec 13 18:21:34 2020.
