 Gaussian 16, Revision A.03,

 -----------------------------------------------------------
 # opt freq B3LYP/6-31G(d) empiricaldispersion=gd3bj scf=xqc
 -----------------------------------------------------------

 ------------------------------
 CID_83025617_JID_3602_neutraal
 ------------------------------
 Symbolic Z-matrix:
 Charge =  0 Multiplicity = 1

 SCF Done:  E(RB3LYP) =  -1005.82831383     A.U. after   15 cycles
 SCF Done:  E(RB3LYP) =  -1005.83682613     A.U. after   12 cycles
 SCF Done:  E(RB3LYP) =  -1005.83942407     A.U. after   12 cycles
 SCF Done:  E(RB3LYP) =  -1005.84348377     A.U. after   14 cycles
 SCF Done:  E(RB3LYP) =  -1005.84474572     A.U. after   12 cycles
 SCF Done:  E(RB3LYP) =  -1005.84492279     A.U. after   12 cycles
 SCF Done:  E(RB3LYP) =  -1005.84561948     A.U. after   12 cycles
 SCF Done:  E(RB3LYP) =  -1005.84571797     A.U. after   11 cycles
 SCF Done:  E(RB3LYP) =  -1005.84573303     A.U. after   10 cycles
 SCF Done:  E(RB3LYP) =  -1005.84573484     A.U. after    8 cycles
 SCF Done:  E(RB3LYP) =  -1005.84573494     A.U. after    7 cycles
 SCF Done:  E(RB3LYP) =  -1005.84573491     A.U. after    7 cycles
 Optimization completed.
    -- Stationary point found.
 Normal termination of Gaussian 16 at Wed Dec  9 23:45:00 2020.

 --------------------------------------------------------------------
 #N Geom=AllCheck Guess=TCheck SCRF=Check GenChk RB3LYP/6-31G(d) Freq
 --------------------------------------------------------------------

 Structure from the checkpoint file:  "JID_3602.chk"
 ------------------------------
 CID_83025617_JID_3602_neutraal
 ------------------------------
 Charge =  0 Multiplicity = 1

 SCF Done:  E(RB3LYP) =  -1005.84573491     A.U. after    1 cycles

  Exact polarizability: 128.750   1.309 103.546   1.704  -1.380 101.659
 Approx polarizability: 154.941   3.232 157.207  -0.056  -0.967 163.364

                      1                      2                      3
                      A                      A                      A
 Frequencies --     34.6692                52.9920                70.7991
 Red. masses --      3.9571                 4.1609                 2.7583
 Frc consts  --      0.0028                 0.0069                 0.0081
 IR Inten    --      0.6910                 0.9850                 0.6462

                      4                      5                      6
                      A                      A                      A
 Frequencies --    102.6126               158.9778               180.1164
 Red. masses --      4.8189                 4.5162                 3.0706
 Frc consts  --      0.0299                 0.0673                 0.0587
 IR Inten    --      0.8229                 1.1711                 0.4118

                      7                      8                      9
                      A                      A                      A
 Frequencies --    231.3713               247.5697               260.6691
 Red. masses --      1.8720                 1.3152                 1.5668
 Frc consts  --      0.0590                 0.0475                 0.0627
 IR Inten    --      1.9605                 2.6335                 5.3666

                     10                     11                     12
                      A                      A                      A
 Frequencies --    273.4287               303.8957               334.1375
 Red. masses --      2.0738                 3.2376                 3.3212
 Frc consts  --      0.0913                 0.1762                 0.2185
 IR Inten    --      4.1010                 4.8494                 3.4287

                     13                     14                     15
                      A                      A                      A
 Frequencies --    343.1596               380.6525               419.1648
 Red. masses --      2.9641                 3.0928                 2.5452
 Frc consts  --      0.2057                 0.2640                 0.2635
 IR Inten    --      5.7229                 1.1199                 4.0137

                     16                     17                     18
                      A                      A                      A
 Frequencies --    447.7140               466.2302               475.4625
 Red. masses --      3.0584                 3.4192                 2.8808
 Frc consts  --      0.3612                 0.4379                 0.3837
 IR Inten    --      4.7676                 8.2106                17.1234

                     19                     20                     21
                      A                      A                      A
 Frequencies --    506.3622               524.6229               563.4797
 Red. masses --      2.9878                 3.3560                 5.6200
 Frc consts  --      0.4514                 0.5442                 1.0513
 IR Inten    --     25.7427                 2.3592                57.0126

                     22                     23                     24
                      A                      A                      A
 Frequencies --    592.3147               648.0293               676.1408
 Red. masses --      1.9307                 4.0067                 2.9619
 Frc consts  --      0.3991                 0.9914                 0.7978
 IR Inten    --     20.8925                80.9166                62.9701

                     25                     26                     27
                      A                      A                      A
 Frequencies --    805.9565               842.9388               864.8912
 Red. masses --      2.1222                 1.6063                 2.0669
 Frc consts  --      0.8122                 0.6725                 0.9110
 IR Inten    --    159.3404                 0.1822                79.4108

                     28                     29                     30
                      A                      A                      A
 Frequencies --    879.2767               906.0898               922.0075
 Red. masses --      4.7425                 2.5152                 2.0755
 Frc consts  --      2.1603                 1.2166                 1.0395
 IR Inten    --    100.0915                 4.2243                73.9831

                     31                     32                     33
                      A                      A                      A
 Frequencies --    959.7886              1020.1629              1036.0307
 Red. masses --      2.4412                 2.4957                 1.5535
 Frc consts  --      1.3250                 1.5303                 0.9824
 IR Inten    --    105.3033                15.7008                12.5944

                     34                     35                     36
                      A                      A                      A
 Frequencies --   1049.6071              1058.7806              1071.4198
 Red. masses --      1.6555                 2.3117                 2.6797
 Frc consts  --      1.0745                 1.5268                 1.8124
 IR Inten    --      9.0962                34.1788                 2.4721

                     37                     38                     39
                      A                      A                      A
 Frequencies --   1118.7897              1134.8724              1145.9030
 Red. masses --     10.0374                 1.2366                 3.9530
 Frc consts  --      7.4023                 0.9383                 3.0583
 IR Inten    --    134.7216                 2.3351                36.2243

                     40                     41                     42
                      A                      A                      A
 Frequencies --   1180.3584              1187.4872              1195.4496
 Red. masses --      4.1667                 2.0970                 1.4558
 Frc consts  --      3.4203                 1.7423                 1.2258
 IR Inten    --      2.8810                32.3674                11.2401

                     43                     44                     45
                      A                      A                      A
 Frequencies --   1224.7266              1271.7235              1290.9941
 Red. masses --      1.1966                 2.8709                 1.3050
 Frc consts  --      1.0575                 2.7356                 1.2815
 IR Inten    --      5.3772                 2.4574                24.7028

                     46                     47                     48
                      A                      A                      A
 Frequencies --   1294.8383              1315.7718              1356.3324
 Red. masses --      2.2201                10.7216                 1.3080
 Frc consts  --      2.1931                10.9363                 1.4177
 IR Inten    --      0.5437               174.3092                 1.9910

                     49                     50                     51
                      A                      A                      A
 Frequencies --   1368.0696              1368.5920              1392.7422
 Red. masses --      1.2782                 1.3815                 1.2664
 Frc consts  --      1.4095                 1.5246                 1.4473
 IR Inten    --      1.5579                 6.8299                 9.3805

                     52                     53                     54
                      A                      A                      A
 Frequencies --   1413.9327              1418.0524              1431.0983
 Red. masses --      1.3433                 1.2804                 1.2411
 Frc consts  --      1.5823                 1.5170                 1.4976
 IR Inten    --     22.7355                 0.1709                 9.3912

                     55                     56                     57
                      A                      A                      A
 Frequencies --   1461.0603              1490.9645              1499.1835
 Red. masses --      1.1623                 1.1713                 1.1010
 Frc consts  --      1.4618                 1.5341                 1.4580
 IR Inten    --      0.8294                 0.6053                 5.3006

                     58                     59                     60
                      A                      A                      A
 Frequencies --   1505.6004              1512.7520              1513.8168
 Red. masses --      1.0970                 1.1082                 1.1240
 Frc consts  --      1.4651                 1.4942                 1.5176
 IR Inten    --      7.0143                10.0971                 3.5542

                     61                     62                     63
                      A                      A                      A
 Frequencies --   1513.8641              1518.5977              1519.1701
 Red. masses --      1.0628                 1.1044                 1.0526
 Frc consts  --      1.4351                 1.5005                 1.4313
 IR Inten    --     13.2579                 0.2681                 3.5965

                     64                     65                     66
                      A                      A                      A
 Frequencies --   1532.1658              1536.7045              2950.4151
 Red. masses --      1.0565                 1.0548                 1.0603
 Frc consts  --      1.4612                 1.4675                 5.4382
 IR Inten    --      5.0907                13.3809                71.4471

                     67                     68                     69
                      A                      A                      A
 Frequencies --   2973.8831              3035.0135              3040.1364
 Red. masses --      1.0588                 1.0712                 1.0725
 Frc consts  --      5.5173                 5.8134                 5.8404
 IR Inten    --    106.7969                13.2192                48.5949

                     70                     71                     72
                      A                      A                      A
 Frequencies --   3051.6555              3064.2467              3098.9600
 Red. masses --      1.0602                 1.0616                 1.1056
 Frc consts  --      5.8173                 5.8730                 6.2557
 IR Inten    --     36.8660                35.1485                39.1729

                     73                     74                     75
                      A                      A                      A
 Frequencies --   3101.6294              3110.4343              3115.9825
 Red. masses --      1.0767                 1.0741                 1.1039
 Frc consts  --      6.1029                 6.1228                 6.3149
 IR Inten    --     16.3028                35.0172                20.7478

                     76                     77                     78
                      A                      A                      A
 Frequencies --   3135.2481              3160.1647              3160.2844
 Red. masses --      1.0956                 1.1009                 1.0944
 Frc consts  --      6.3455                 6.4776                 6.4397
 IR Inten    --     11.4701                13.1042                 8.4540

                     79                     80                     81
                      A                      A                      A
 Frequencies --   3169.2660              3388.7504              3457.6550
 Red. masses --      1.1026                 1.0740                 1.0735
 Frc consts  --      6.5253                 7.2668                 7.5618
 IR Inten    --      6.5608                 8.2356                 3.9644

 - Thermochemistry -
 -------------------
 Temperature   298.150 Kelvin.  Pressure   1.00000 Atm.
 Atom     1 has atomic number  6 and mass  12.00000

 Molecular mass:   208.09940 amu.
 Principal axes and moments of inertia in atomic units:
                           1         2         3
     Eigenvalues --  1309.923773880.487334109.04656
           X            0.99998  -0.00580   0.00067
           Y            0.00583   0.99818  -0.05996
           Z           -0.00032   0.05996   0.99820
 This molecule is an asymmetric top.
 Rotational symmetry number  1.
 Warning -- assumption of classical behavior for rotation
           may cause significant error
 Rotational temperatures (Kelvin)      0.06612     0.02232     0.02108
 Rotational constants (GHZ):           1.37775     0.46508     0.43921
 Zero-point vibrational energy     654589.8 (Joules/Mol)
                                  156.45071 (Kcal/Mol)
 Warning -- explicit consideration of  22 degrees of freedom as
           vibrations may cause significant error
 Vibrational temperatures:     49.88    76.24   101.86   147.64   228.73
          (Kelvin)            259.15   332.89   356.20   375.04   393.40
                              437.24   480.75   493.73   547.67   603.08
                              644.16   670.80   684.08   728.54   754.82
                              810.72   852.21   932.37   972.82  1159.59
                             1212.80  1244.39  1265.08  1303.66  1326.56
                             1380.92  1467.79  1490.62  1510.15  1523.35
                             1541.53  1609.69  1632.83  1648.70  1698.27
                             1708.53  1719.99  1762.11  1829.73  1857.45
                             1862.98  1893.10  1951.46  1968.35  1969.10
                             2003.85  2034.33  2040.26  2059.03  2102.14
                             2145.17  2156.99  2166.22  2176.51  2178.04
                             2178.11  2184.92  2185.75  2204.44  2210.98
                             4244.99  4278.75  4366.71  4374.08  4390.65
                             4408.77  4458.71  4462.55  4475.22  4483.20
                             4510.92  4546.77  4546.94  4559.87  4875.66
                             4974.79

 Zero-point correction=                           0.249320 (Hartree/Particle)
 Thermal correction to Energy=                    0.262940
 Thermal correction to Enthalpy=                  0.263884
 Thermal correction to Gibbs Free Energy=         0.208792
 Sum of electronic and zero-point Energies=          -1005.596415
 Sum of electronic and thermal Energies=             -1005.582795
 Sum of electronic and thermal Enthalpies=           -1005.581850
 Sum of electronic and thermal Free Energies=        -1005.636943

                     E (Thermal)             CV                S
                      KCal/Mol        Cal/Mol-Kelvin    Cal/Mol-Kelvin
 Total                  164.997             51.906            115.952
 Electronic               0.000              0.000              0.000
 Translational            0.889              2.981             41.902
 Rotational               0.889              2.981             31.413
 Vibrational            163.220             45.944             42.637
 Vibration     1          0.594              1.983              5.543
 Vibration     2          0.596              1.976              4.702
 Vibration     3          0.598              1.968              4.131
 Vibration     4          0.605              1.947              3.404
 Vibration     5          0.621              1.893              2.562
 Vibration     6          0.629              1.867              2.327
 Vibration     7          0.653              1.793              1.868
 Vibration     8          0.661              1.767              1.748
 Vibration     9          0.669              1.745              1.657
 Vibration    10          0.676              1.722              1.574
 Vibration    11          0.695              1.666              1.395
 Vibration    12          0.716              1.607              1.240
 Vibration    13          0.722              1.589              1.197
 Vibration    14          0.750              1.511              1.037
 Vibration    15          0.782              1.429              0.895
 Vibration    16          0.807              1.366              0.803
 Vibration    17          0.824              1.325              0.748
 Vibration    18          0.832              1.304              0.722
 Vibration    19          0.862              1.236              0.642
 Vibration    20          0.880              1.195              0.599
 Vibration    21          0.919              1.110              0.517
 Vibration    22          0.950              1.048              0.463

 Optimization completed.
    -- Stationary point found.
 Normal termination of Gaussian 16 at Wed Dec  9 23:52:58 2020.

 ----------------------------------------------------------------------
 # B3LYP/6-311++G(d,p) empiricaldispersion=gd3bj scf=xqc pop=npa geom=c
 heck
 ----------------------------------------------------------------------

 --------------------------------------
 CID_83025617_JID_3602_Energie_neutraal
 --------------------------------------
 Structure from the checkpoint file:  "JID_3602.chk"
 Charge =  0 Multiplicity = 1

 SCF Done:  E(RB3LYP) =  -1006.05424916     A.U. after   14 cycles
 Normal termination of Gaussian 16 at Wed Dec  9 23:56:34 2020.

 ----------------------------------------------------------------------
 # B3LYP/6-311++G(d,p) empiricaldispersion=gd3bj scf=xqc pop=npa geom=c
 heck
 ----------------------------------------------------------------------

 ------------------------------------
 CID_83025617_JID_3602_Energie_kation
 ------------------------------------
 Structure from the checkpoint file:  "JID_3602.chk"
 Charge =  1 Multiplicity = 2

 SCF Done:  E(UB3LYP) =  -1005.76189347     A.U. after   21 cycles
 Normal termination of Gaussian 16 at Thu Dec 10 00:04:17 2020.
 Gaussian 16:  ES64L-G16RevA.03 25-Dec-2016

 ----------------------------------------------------------------------
 # B3LYP/6-311++G(d,p) empiricaldispersion=gd3bj scf=xqc pop=npa geom=c
 heck
 ----------------------------------------------------------------------

 -----------------------------------
 CID_83025617_JID_3602_Energie_anion
 -----------------------------------
 Structure from the checkpoint file:  "JID_3602.chk"
 Charge = -1 Multiplicity = 2

                         Standard orientation:
 ---------------------------------------------------------------------
 Center     Atomic      Atomic             Coordinates (Angstroms)
 Number     Number       Type             X           Y           Z
 ---------------------------------------------------------------------
      1          6           0       -2.937847    1.828151    0.433881
      2          7           0       -2.482708    0.444562    0.389375
      3          6           0       -3.562077   -0.534379    0.455198
      4          7           0       -1.654909    0.257794   -0.734353
      5         16           0       -0.310234   -0.744393   -0.452094
      6          8           0       -0.612991   -1.869346    0.435107
      7          8           0        0.194394   -0.995332   -1.807409
      8          7           0        0.630621    0.321263    0.419697
      9          6           0        1.493490   -0.243764    1.472769
     10          6           0        2.863754   -0.650691    0.916073
     11          7           0        3.526389    0.418952    0.163262
     12          6           0        2.652562    0.959606   -0.882901
     13          6           0        1.275796    1.394623   -0.361226
     14          1           0       -3.480929    1.987142    1.370658
     15          1           0       -3.605286    2.090647   -0.406543
     16          1           0       -2.066460    2.485118    0.411444
     17          1           0       -4.250730   -0.461755   -0.408542
     18          1           0       -3.130021   -1.535673    0.493575
     19          1           0       -4.138970   -0.365839    1.369102
     20          1           0       -2.131132   -0.080710   -1.578528
     21          1           0        1.611650    0.546479    2.226832
     22          1           0        0.969591   -1.079941    1.936883
     23          1           0        2.736814   -1.508064    0.242660
     24          1           0        3.522492   -0.969068    1.732344
     25          1           0        3.777208    1.169088    0.808404
     26          1           0        2.509287    0.182410   -1.641114
     27          1           0        3.157638    1.806547   -1.361554
     28          1           0        0.604712    1.690180   -1.170964
     29          1           0        1.376827    2.251866    0.318615
 ---------------------------------------------------------------------

 SCF Done:  E(UB3LYP) =  -1006.04327097     A.U. after   25 cycles

 The electronic state is 2-A.
 Alpha  occ. eigenvalues --  -88.98040 -19.02565 -19.02330 -14.27110 -14.25401
 Alpha  occ. eigenvalues --  -14.25122 -14.20567 -10.11050 -10.10952 -10.10232
 Alpha  occ. eigenvalues --  -10.09735 -10.09698 -10.09124  -8.04031  -6.00287
 Alpha  occ. eigenvalues --   -6.00261  -6.00215  -1.03548  -0.91749  -0.90782
 Alpha  occ. eigenvalues --   -0.86012  -0.80313  -0.74067  -0.67708  -0.62228
 Alpha  occ. eigenvalues --   -0.62049  -0.55970  -0.54958  -0.53300  -0.48797
 Alpha  occ. eigenvalues --   -0.44194  -0.43332  -0.41454  -0.38900  -0.37905
 Alpha  occ. eigenvalues --   -0.37385  -0.36594  -0.36077  -0.35066  -0.34315
 Alpha  occ. eigenvalues --   -0.33285  -0.31528  -0.30627  -0.30258  -0.28071
 Alpha  occ. eigenvalues --   -0.27259  -0.26874  -0.26195  -0.25628  -0.24604
 Alpha  occ. eigenvalues --   -0.23134  -0.21664  -0.19723  -0.17550  -0.14734
 Alpha  occ. eigenvalues --   -0.12372   0.04199
 Alpha virt. eigenvalues --    0.05948   0.07623   0.07924   0.08634   0.09052
 Alpha virt. eigenvalues --    0.09591   0.10553   0.10946   0.11522   0.11833
 Alpha virt. eigenvalues --    0.12114   0.12436   0.13748   0.14415   0.14575

  Beta  occ. eigenvalues --  -88.98037 -19.02558 -19.02325 -14.27091 -14.25390
  Beta  occ. eigenvalues --  -14.25120 -14.20543 -10.11031 -10.10924 -10.10224
  Beta  occ. eigenvalues --  -10.09724 -10.09664 -10.09076  -8.04027  -6.00285
  Beta  occ. eigenvalues --   -6.00258  -6.00208  -1.03535  -0.91737  -0.90757
  Beta  occ. eigenvalues --   -0.85991  -0.80272  -0.74029  -0.67674  -0.62178
  Beta  occ. eigenvalues --   -0.61998  -0.55927  -0.54900  -0.53242  -0.48739
  Beta  occ. eigenvalues --   -0.44150  -0.43300  -0.41423  -0.38863  -0.37857
  Beta  occ. eigenvalues --   -0.37325  -0.36556  -0.36048  -0.35032  -0.34293
  Beta  occ. eigenvalues --   -0.33244  -0.31485  -0.30591  -0.30213  -0.28027
  Beta  occ. eigenvalues --   -0.27233  -0.26830  -0.26168  -0.25610  -0.24579
  Beta  occ. eigenvalues --   -0.23111  -0.21652  -0.19698  -0.17525  -0.14665
  Beta  occ. eigenvalues --   -0.12336
  Beta virt. eigenvalues --    0.06630   0.07138   0.08190   0.08555   0.09174
  Beta virt. eigenvalues --    0.09638   0.10006   0.11008   0.11308   0.11855
  Beta virt. eigenvalues --    0.12096   0.12439   0.12741   0.13989   0.14534

 Mulliken charges and spin densities:
               1          2
     1  C    0.864183  -1.224330
     2  N   -0.196695   0.220481
     3  C    0.491585  -0.875621
     4  N   -0.463333  -0.006100
     5  S    0.461116   0.005653
     6  O   -0.224861   0.001306
     7  O   -0.155302  -0.013378
     8  N   -0.390805   0.148321
     9  C    0.038433  -0.340103
    10  C    0.078847  -0.467282
    11  N   -0.258098   0.133476
    12  C    0.420495  -1.070495
    13  C   -0.062736  -0.088649
    14  H   -0.303975   0.463830
    15  H   -0.333712   0.468707
    16  H   -0.452273   0.605675
    17  H   -0.281347   0.411432
    18  H    0.093601   0.062174
    19  H   -0.176155   0.334471
    20  H    0.132702   0.143810
    21  H   -0.317916   0.504109
    22  H    0.232541  -0.026077
    23  H    0.176250   0.010227
    24  H   -0.067661   0.255864
    25  H   -0.076977   0.314659
    26  H    0.197251   0.020762
    27  H   -0.193967   0.377018
    28  H    0.196435  -0.002593
    29  H   -0.427626   0.632655
 Sum of Mulliken charges =  -1.00000   1.00000

 Dipole moment (field-independent basis, Debye):
    X=              1.2927    Y=             -4.2357    Z=             -1.6066  Tot=              4.7109
 Quadrupole moment (field-independent basis, Debye-Ang):
   XX=           -161.9508   YY=           -131.8219   ZZ=           -122.0870
   XY=              0.8555   XZ=             -0.4598   YZ=             -7.0093

 Summary of Natural Population Analysis:

                                       Natural Population
                Natural  -----------------------------------------------
    Atom  No    Charge         Core      Valence    Rydberg      Total
 -----------------------------------------------------------------------
      C    1   -0.17449      0.99964     2.16560    0.00924     3.17449
      N    2   -0.18229      0.99973     2.66723    0.01533     3.68229
      C    3   -0.18532      0.99964     2.17705    0.00864     3.18532
      N    4   -0.33639      0.99975     2.82078    0.01586     3.83639
      S    5    1.16340      4.99927     1.73350    0.10383     6.83660
      O    6   -0.45957      0.99990     3.45436    0.00531     4.45957
      O    7   -0.46687      0.99990     3.46180    0.00516     4.46687
      N    8   -0.36650      0.99973     2.85051    0.01625     3.86650
      C    9   -0.09817      0.99960     2.08615    0.01242     3.09817
      C   10   -0.09863      0.99962     2.08739    0.01161     3.09863
      N   11   -0.33631      0.99976     2.82311    0.01344     3.83631
      C   12   -0.10047      0.99962     2.08920    0.01165     3.10047
      C   13   -0.09908      0.99960     2.08647    0.01301     3.09908
      H   14    0.09825      0.00000     0.39995    0.00179     0.40175
      H   15    0.08325      0.00000     0.41455    0.00220     0.41675
      H   16    0.10392      0.00000     0.39407    0.00200     0.39608
      H   17    0.08119      0.00000     0.41693    0.00188     0.41881
      H   18    0.10629      0.00000     0.39251    0.00120     0.39371
      H   19    0.10052      0.00000     0.39839    0.00109     0.39948
      H   20    0.18467      0.00000     0.31327    0.00206     0.31533
      H   21    0.09822      0.00000     0.39986    0.00192     0.40178
      H   22    0.11491      0.00000     0.38395    0.00114     0.38509
      H   23    0.09287      0.00000     0.40594    0.00119     0.40713
      H   24    0.09674      0.00000     0.40237    0.00089     0.40326
      H   25    0.17213      0.00000     0.32414    0.00373     0.32787
      H   26    0.09989      0.00000     0.39880    0.00131     0.40011
      H   27    0.09739      0.00000     0.40171    0.00090     0.40261
      H   28    0.11021      0.00000     0.38826    0.00153     0.38979
      H   29    0.10024      0.00000     0.39708    0.00268     0.39976
 =======================================================================
   * Total *    0.00000     16.99576    38.73497    0.26927    56.00000

 Normal termination of Gaussian 16 at Thu Dec 10 00:13:25 2020.
