 Gaussian 16, Revision A.03,

 -----------------------------------------------------------
 # opt freq B3LYP/6-31G(d) empiricaldispersion=gd3bj scf=xqc
 -----------------------------------------------------------

 -----------------------------
 CID_5312604_JID_4007_neutraal
 -----------------------------
 Symbolic Z-matrix:
 Charge =  0 Multiplicity = 1

 SCF Done:  E(RB3LYP) =  -617.257014666     A.U. after   15 cycles
 SCF Done:  E(RB3LYP) =  -617.295712314     A.U. after   13 cycles
 SCF Done:  E(RB3LYP) =  -617.298067116     A.U. after   14 cycles
 SCF Done:  E(RB3LYP) =  -617.283190891     A.U. after   15 cycles
 SCF Done:  E(RB3LYP) =  -617.295498655     A.U. after   13 cycles
 SCF Done:  E(RB3LYP) =  -617.299187716     A.U. after   11 cycles
 SCF Done:  E(RB3LYP) =  -617.300117650     A.U. after   13 cycles
 SCF Done:  E(RB3LYP) =  -617.299850747     A.U. after   13 cycles
 SCF Done:  E(RB3LYP) =  -617.300853914     A.U. after   12 cycles
 SCF Done:  E(RB3LYP) =  -617.300867952     A.U. after   12 cycles
 SCF Done:  E(RB3LYP) =  -617.301976197     A.U. after    9 cycles
 SCF Done:  E(RB3LYP) =  -617.301976412     A.U. after    8 cycles
 SCF Done:  E(RB3LYP) =  -617.301976369     A.U. after    8 cycles
 SCF Done:  E(RB3LYP) =  -617.301976412     A.U. after    7 cycles
 Optimization completed.
    -- Stationary point found.
 Normal termination of Gaussian 16 at Thu Dec 10 09:20:44 2020.

 --------------------------------------------------------------------
 #N Geom=AllCheck Guess=TCheck SCRF=Check GenChk RB3LYP/6-31G(d) Freq
 --------------------------------------------------------------------

 Structure from the checkpoint file:  "JID_4007.chk"
 -----------------------------
 CID_5312604_JID_4007_neutraal
 -----------------------------
 Charge =  0 Multiplicity = 1

 SCF Done:  E(RB3LYP) =  -617.301976412     A.U. after    1 cycles

  Exact polarizability: 167.308  -4.607 104.864  -5.140  -0.585  97.365
 Approx polarizability: 249.256  -2.738 138.660 -18.963  -0.724 143.337

                      1                      2                      3
                      A                      A                      A
 Frequencies --     27.9409                37.7206                44.8336
 Red. masses --      4.8861                 6.4419                 4.8104
 Frc consts  --      0.0022                 0.0054                 0.0057
 IR Inten    --      0.4204                 0.8556                 0.0321

                      4                      5                      6
                      A                      A                      A
 Frequencies --     48.7389                64.1890                90.8975
 Red. masses --      3.6916                 7.0622                 4.6041
 Frc consts  --      0.0052                 0.0171                 0.0224
 IR Inten    --      0.0327                 0.2973                 0.2649

                      7                      8                      9
                      A                      A                      A
 Frequencies --    103.7315               152.5308               187.8650
 Red. masses --      3.2888                 3.8567                 3.0182
 Frc consts  --      0.0209                 0.0529                 0.0628
 IR Inten    --      1.2150                 0.3856                 1.8390

                     10                     11                     12
                      A                      A                      A
 Frequencies --    209.4800               242.2918               276.9618
 Red. masses --      3.0040                 2.5869                 2.7666
 Frc consts  --      0.0777                 0.0895                 0.1250
 IR Inten    --      1.0195                 3.4491                 5.4373

                     13                     14                     15
                      A                      A                      A
 Frequencies --    301.7444               333.9983               358.9490
 Red. masses --      2.6722                 2.4420                 3.1643
 Frc consts  --      0.1433                 0.1605                 0.2402
 IR Inten    --      4.3825                 2.4279                 4.0421

                     16                     17                     18
                      A                      A                      A
 Frequencies --    367.7981               417.7598               464.5604
 Red. masses --      2.6366                 2.8320                 4.2250
 Frc consts  --      0.2101                 0.2912                 0.5372
 IR Inten    --      0.8042                 0.3261                 9.8345

                     19                     20                     21
                      A                      A                      A
 Frequencies --    508.3900               523.3348               545.8020
 Red. masses --      3.0962                 2.2243                 2.8566
 Frc consts  --      0.4715                 0.3589                 0.5014
 IR Inten    --      6.8033                18.7783                10.2628

                     22                     23                     24
                      A                      A                      A
 Frequencies --    587.0278               601.2566               610.7005
 Red. masses --      3.1156                 1.2118                 1.2170
 Frc consts  --      0.6326                 0.2581                 0.2674
 IR Inten    --     10.3416                42.8466                43.0106

                     25                     26                     27
                      A                      A                      A
 Frequencies --    630.7389               682.7897               706.5267
 Red. masses --      3.3179                 1.3707                 2.1233
 Frc consts  --      0.7777                 0.3765                 0.6245
 IR Inten    --     12.9735                98.2909                 9.0538

                     28                     29                     30
                      A                      A                      A
 Frequencies --    760.8352               792.4526               817.2177
 Red. masses --      1.6839                 2.3149                 2.4475
 Frc consts  --      0.5743                 0.8565                 0.9630
 IR Inten    --     10.3632                13.6005                 2.4846

                     31                     32                     33
                      A                      A                      A
 Frequencies --    857.0806               886.9343               898.6071
 Red. masses --      2.5151                 2.2327                 2.4484
 Frc consts  --      1.0885                 1.0348                 1.1649
 IR Inten    --      7.0546                 1.9905                 0.1952

                     34                     35                     36
                      A                      A                      A
 Frequencies --    934.8303               977.0157              1015.2055
 Red. masses --      2.0406                 2.1033                 2.0337
 Frc consts  --      1.0507                 1.1829                 1.2349
 IR Inten    --      1.8388                 0.6261                 5.4740

                     37                     38                     39
                      A                      A                      A
 Frequencies --   1039.4371              1056.6563              1076.9339
 Red. masses --      1.7469                 1.7349                 2.0260
 Frc consts  --      1.1120                 1.1413                 1.3845
 IR Inten    --      6.4817                 2.5997                 0.6196

                     40                     41                     42
                      A                      A                      A
 Frequencies --   1091.6668              1108.3433              1161.4497
 Red. masses --      2.9136                 2.9703                 2.0743
 Frc consts  --      2.0458                 2.1498                 1.6487
 IR Inten    --     25.6506                 0.4307               111.0175

                     43                     44                     45
                      A                      A                      A
 Frequencies --   1171.3666              1199.8794              1208.1243
 Red. masses --      2.5300                 1.1462                 1.1887
 Frc consts  --      2.0453                 0.9722                 1.0222
 IR Inten    --     74.2539                 0.2979                 2.6176

                     46                     47                     48
                      A                      A                      A
 Frequencies --   1219.1280              1234.5812              1270.6828
 Red. masses --      1.2230                 1.3040                 1.2010
 Frc consts  --      1.0709                 1.1710                 1.1426
 IR Inten    --      2.6468                29.3478                 1.3091

                     49                     50                     51
                      A                      A                      A
 Frequencies --   1308.8195              1324.4890              1330.7718
 Red. masses --      1.2069                 1.2825                 1.3978
 Frc consts  --      1.2181                 1.3256                 1.4585
 IR Inten    --      2.7444                 0.4993                 4.6934

                     52                     53                     54
                      A                      A                      A
 Frequencies --   1361.4403              1373.0547              1377.7473
 Red. masses --      1.3574                 1.3703                 1.4848
 Frc consts  --      1.4824                 1.5221                 1.6605
 IR Inten    --      0.8850                 5.3217                46.9010

                     55                     56                     57
                      A                      A                      A
 Frequencies --   1400.2080              1401.9402              1416.5277
 Red. masses --      1.3600                 1.4048                 1.4478
 Frc consts  --      1.5709                 1.6268                 1.7116
 IR Inten    --      9.8924                 8.5243                 2.3492

                     58                     59                     60
                      A                      A                      A
 Frequencies --   1435.8810              1486.2692              1499.8604
 Red. masses --      1.8549                 1.1048                 1.0846
 Frc consts  --      2.2532                 1.4379                 1.4375
 IR Inten    --     31.1235                12.3226                 1.4190

                     61                     62                     63
                      A                      A                      A
 Frequencies --   1509.5204              1514.2234              1515.7205
 Red. masses --      1.0863                 1.0830                 1.0943
 Frc consts  --      1.4585                 1.4630                 1.4813
 IR Inten    --     10.0622                 4.8411                 8.9523

                     64                     65                     66
                      A                      A                      A
 Frequencies --   1519.3809              1521.5216              1844.3170
 Red. masses --      1.0821                 1.0972                 9.3617
 Frc consts  --      1.4718                 1.4965                18.7618
 IR Inten    --      9.5468                 1.5361               239.0795

                     67                     68                     69
                      A                      A                      A
 Frequencies --   2238.1267              2363.3250              3036.6401
 Red. masses --      5.9874                11.8201                 1.0601
 Frc consts  --     17.6709                38.8972                 5.7596
 IR Inten    --      3.0502                 0.0697                29.1784

                     70                     71                     72
                      A                      A                      A
 Frequencies --   3045.5666              3046.8480              3052.9828
 Red. masses --      1.0637                 1.0630                 1.0661
 Frc consts  --      5.8131                 5.8141                 5.8546
 IR Inten    --     18.4277                23.0346                 3.7804

                     73                     74                     75
                      A                      A                      A
 Frequencies --   3056.1089              3062.2123              3069.1938
 Red. masses --      1.0679                 1.0710                 1.0814
 Frc consts  --      5.8765                 5.9172                 6.0021
 IR Inten    --     11.2415                20.6577                58.6390

                     76                     77                     78
                      A                      A                      A
 Frequencies --   3069.4920              3082.6847              3087.7363
 Red. masses --      1.0717                 1.0945                 1.0956
 Frc consts  --      5.9492                 6.1282                 6.1543
 IR Inten    --      9.3603                18.2140                15.4261

                     79                     80                     81
                      A                      A                      A
 Frequencies --   3097.9810              3111.4929              3114.6693
 Red. masses --      1.1045                 1.1018                 1.1016
 Frc consts  --      6.2455                 6.2845                 6.2966
 IR Inten    --     21.8680                10.5579                51.4803

                     82                     83                     84
                      A                      A                      A
 Frequencies --   3126.4311              3496.5469              3682.3175
 Red. masses --      1.0951                 1.1594                 1.0640
 Frc consts  --      6.3067                 8.3515                 8.5001
 IR Inten    --     15.9591                59.4595                45.9995

 - Thermochemistry -
 -------------------
 Temperature   298.150 Kelvin.  Pressure   1.00000 Atm.
 Atom     1 has atomic number  6 and mass  12.00000

 Molecular mass:   192.11503 amu.
 Principal axes and moments of inertia in atomic units:
                           1         2         3
     Eigenvalues --  1920.834964528.018515527.03597
           X            0.99988  -0.00582   0.01445
           Y            0.00577   0.99998   0.00394
           Z           -0.01448  -0.00386   0.99989
 This molecule is an asymmetric top.
 Rotational symmetry number  1.
 Warning -- assumption of classical behavior for rotation
           may cause significant error
 Rotational temperatures (Kelvin)      0.04509     0.01913     0.01567
 Rotational constants (GHZ):           0.93956     0.39857     0.32653
 Zero-point vibrational energy     669245.1 (Joules/Mol)
                                  159.95341 (Kcal/Mol)
 Warning -- explicit consideration of  24 degrees of freedom as
           vibrations may cause significant error
 Vibrational temperatures:     40.20    54.27    64.51    70.12    92.35
          (Kelvin)            130.78   149.25   219.46   270.30   301.40
                              348.60   398.49   434.14   480.55   516.45
                              529.18   601.06   668.40   731.46   752.96
                              785.29   844.60   865.07   878.66   907.49
                              982.38  1016.53  1094.67  1140.16  1175.79
                             1233.15  1276.10  1292.90  1345.01  1405.71
                             1460.65  1495.52  1520.29  1549.47  1570.67
                             1594.66  1671.07  1685.34  1726.36  1738.22
                             1754.05  1776.29  1828.23  1883.10  1905.64
                             1914.68  1958.81  1975.52  1982.27  2014.59
                             2017.08  2038.07  2065.91  2138.41  2157.96
                             2171.86  2178.63  2180.78  2186.05  2189.13
                             2653.56  3220.17  3400.30  4369.05  4381.89
                             4383.73  4392.56  4397.06  4405.84  4415.89
                             4416.31  4435.30  4442.56  4457.30  4476.74
                             4481.31  4498.24  5030.75  5298.03

 Zero-point correction=                           0.254902 (Hartree/Particle)
 Thermal correction to Energy=                    0.270578
 Thermal correction to Enthalpy=                  0.271522
 Thermal correction to Gibbs Free Energy=         0.209854
 Sum of electronic and zero-point Energies=           -617.047074
 Sum of electronic and thermal Energies=              -617.031399
 Sum of electronic and thermal Enthalpies=            -617.030455
 Sum of electronic and thermal Free Energies=         -617.092123

                     E (Thermal)             CV                S
                      KCal/Mol        Cal/Mol-Kelvin    Cal/Mol-Kelvin
 Total                  169.790             56.715            129.791
 Electronic               0.000              0.000              0.000
 Translational            0.889              2.981             41.664
 Rotational               0.889              2.981             32.241
 Vibrational            168.012             50.753             55.885
 Vibration     1          0.593              1.984              5.970
 Vibration     2          0.594              1.982              5.375
 Vibration     3          0.595              1.979              5.033
 Vibration     4          0.595              1.978              4.868
 Vibration     5          0.597              1.971              4.324
 Vibration     6          0.602              1.956              3.641
 Vibration     7          0.605              1.946              3.383
 Vibration     8          0.619              1.900              2.640
 Vibration     9          0.633              1.857              2.249
 Vibration    10          0.642              1.826              2.048
 Vibration    11          0.658              1.775              1.786
 Vibration    12          0.678              1.716              1.552
 Vibration    13          0.694              1.670              1.407
 Vibration    14          0.716              1.608              1.241
 Vibration    15          0.734              1.557              1.127
 Vibration    16          0.740              1.538              1.089
 Vibration    17          0.781              1.432              0.900
 Vibration    18          0.822              1.329              0.753
 Vibration    19          0.864              1.231              0.637
 Vibration    20          0.878              1.198              0.602
 Vibration    21          0.901              1.149              0.553
 Vibration    22          0.944              1.059              0.473
 Vibration    23          0.959              1.029              0.447
 Vibration    24          0.970              1.009              0.432

                           ! Non-Optimized Parameters !
 Normal termination of Gaussian 16 at Thu Dec 10 09:28:25 2020.

 ----------------------------------------------------------------------
 # B3LYP/6-311++G(d,p) empiricaldispersion=gd3bj scf=xqc pop=npa geom=c
 heck
 ----------------------------------------------------------------------

 -------------------------------------
 CID_5312604_JID_4007_Energie_neutraal
 -------------------------------------
 Structure from the checkpoint file:  "JID_4007.chk"
 Charge =  0 Multiplicity = 1

 SCF Done:  E(RB3LYP) =  -617.490280240     A.U. after   15 cycles
 Normal termination of Gaussian 16 at Thu Dec 10 09:31:28 2020.

 ----------------------------------------------------------------------
 # B3LYP/6-311++G(d,p) empiricaldispersion=gd3bj scf=xqc pop=npa geom=c
 heck
 ----------------------------------------------------------------------

 -----------------------------------
 CID_5312604_JID_4007_Energie_kation
 -----------------------------------
 Structure from the checkpoint file:  "JID_4007.chk"
 Charge =  1 Multiplicity = 2

 SCF Done:  E(UB3LYP) =  -617.166836716     A.U. after   33 cycles
 SCF Done:  E(UB3LYP) =  -617.166836716     a.u. after    1 cycles
 Normal termination of Gaussian 16 at Thu Dec 10 09:40:25 2020.
 Gaussian 16:  ES64L-G16RevA.03 25-Dec-2016

 ----------------------------------------------------------------------
 # B3LYP/6-311++G(d,p) empiricaldispersion=gd3bj scf=xqc pop=npa geom=c
 heck
 ----------------------------------------------------------------------

 ----------------------------------
 CID_5312604_JID_4007_Energie_anion
 ----------------------------------
 Structure from the checkpoint file:  "JID_4007.chk"
 Charge = -1 Multiplicity = 2

                         Standard orientation:
 ---------------------------------------------------------------------
 Center     Atomic      Atomic             Coordinates (Angstroms)
 Number     Number       Type             X           Y           Z
 ---------------------------------------------------------------------
      1          6           0        4.519591   -0.996965   -1.024058
      2          6           0        3.357117   -1.023568   -0.696439
      3          6           0        1.957323   -1.020604   -0.273622
      4          6           0        1.737473   -0.349655    1.098504
      5          6           0        2.248312    1.092296    1.182767
      6          6           0        1.681611    2.027686    0.090559
      7          6           0        0.220772    1.990765    0.011846
      8          6           0       -0.986128    1.901297   -0.013935
      9          6           0       -2.435164    1.702791   -0.060780
     10          6           0       -2.867598    0.683724   -1.140143
     11          6           0       -2.075667   -0.624008   -1.095902
     12          6           0       -2.211998   -1.359943    0.216199
     13          8           0       -3.079288   -1.192451    1.045484
     14          8           0       -1.229393   -2.285527    0.376431
     15          1           0        5.542920   -0.989752   -1.322246
     16          1           0        1.352736   -0.503379   -1.030182
     17          1           0        1.571393   -2.046396   -0.236117
     18          1           0        0.662972   -0.373498    1.307005
     19          1           0        2.233777   -0.947933    1.871749
     20          1           0        1.992638    1.498463    2.168449
     21          1           0        3.341175    1.101123    1.099514
     22          1           0        2.022780    3.052915    0.284697
     23          1           0        2.109266    1.748849   -0.881784
     24          1           0       -2.783637    1.346855    0.915705
     25          1           0       -2.946227    2.656280   -0.246325
     26          1           0       -3.934519    0.476465   -1.008516
     27          1           0       -2.735690    1.127159   -2.133219
     28          1           0       -2.415009   -1.306426   -1.886659
     29          1           0       -1.013344   -0.440608   -1.280106
     30          1           0       -1.405657   -2.719193    1.232745
 ---------------------------------------------------------------------

 SCF Done:  E(UB3LYP) =  -617.477264891     A.U. after   33 cycles
 SCF Done:  E(UB3LYP) =  -617.477264891     a.u. after    1 cycles

 The electronic state is 2-A.
 Alpha  occ. eigenvalues --  -19.06809 -19.01746 -10.20732 -10.09853 -10.09537
 Alpha  occ. eigenvalues --  -10.09471 -10.08558 -10.08290 -10.08255 -10.07905
 Alpha  occ. eigenvalues --  -10.07528 -10.06839 -10.06771 -10.06545  -1.00949
 Alpha  occ. eigenvalues --   -0.92150  -0.73249  -0.72149  -0.68956  -0.65903
 Alpha  occ. eigenvalues --   -0.63721  -0.61011  -0.57353  -0.54485  -0.49654
 Alpha  occ. eigenvalues --   -0.48043  -0.43690  -0.41196  -0.39752  -0.39189
 Alpha  occ. eigenvalues --   -0.38675  -0.38397  -0.37478  -0.35712  -0.35034
 Alpha  occ. eigenvalues --   -0.32961  -0.32226  -0.31832  -0.31158  -0.30321
 Alpha  occ. eigenvalues --   -0.26948  -0.26701  -0.26091  -0.25507  -0.25282
 Alpha  occ. eigenvalues --   -0.24852  -0.22722  -0.18796  -0.18112  -0.18015
 Alpha  occ. eigenvalues --   -0.16252  -0.15988   0.04355
 Alpha virt. eigenvalues --    0.06117   0.06583   0.07073   0.08130   0.08753
 Alpha virt. eigenvalues --    0.09314   0.09584   0.09987   0.10608   0.10749
 Alpha virt. eigenvalues --    0.10903   0.11759   0.12019   0.12928   0.13142

  Beta  occ. eigenvalues --  -19.06757 -19.01727 -10.20716 -10.09840 -10.09526
  Beta  occ. eigenvalues --  -10.09454 -10.08524 -10.08292 -10.08233 -10.07895
  Beta  occ. eigenvalues --  -10.07512 -10.06819 -10.06767 -10.06541  -1.00874
  Beta  occ. eigenvalues --   -0.92086  -0.73225  -0.72113  -0.68931  -0.65858
  Beta  occ. eigenvalues --   -0.63686  -0.60972  -0.57308  -0.54413  -0.49607
  Beta  occ. eigenvalues --   -0.47942  -0.43646  -0.41157  -0.39716  -0.39127
  Beta  occ. eigenvalues --   -0.38639  -0.38363  -0.37448  -0.35678  -0.35003
  Beta  occ. eigenvalues --   -0.32928  -0.32188  -0.31797  -0.31137  -0.30276
  Beta  occ. eigenvalues --   -0.26894  -0.26650  -0.26056  -0.25478  -0.25252
  Beta  occ. eigenvalues --   -0.24833  -0.22661  -0.18757  -0.18089  -0.17993
  Beta  occ. eigenvalues --   -0.16232  -0.15970
  Beta virt. eigenvalues --    0.06340   0.06925   0.07484   0.07756   0.08517
  Beta virt. eigenvalues --    0.08918   0.09730   0.09912   0.10232   0.10891
  Beta virt. eigenvalues --    0.10977   0.11133   0.11956   0.12175   0.12944

 Mulliken charges and spin densities:
               1          2
     1  C   -1.321708   0.899355
     2  C    3.098467  -2.870489
     3  C   -0.893683   0.559232
     4  C   -0.260928   0.259762
     5  C   -0.300054  -0.183321
     6  C   -0.546098   0.115934
     7  C    0.443954  -0.420603
     8  C    0.863890  -0.671410
     9  C   -1.360711   0.917945
    10  C    0.404129  -1.028666
    11  C    0.331076  -0.078973
    12  C    0.641616  -0.995384
    13  O   -0.279446   0.038254
    14  O   -0.208853   0.083541
    15  H   -0.656710   0.826726
    16  H    0.098191  -0.079653
    17  H    0.083353   0.151260
    18  H    0.100878   0.040802
    19  H   -0.224769   0.403614
    20  H   -0.040809   0.194673
    21  H    0.142870  -0.018709
    22  H    0.013892   0.157512
    23  H    0.023279   0.164399
    24  H    0.145298   0.075562
    25  H   -0.092195   0.248629
    26  H   -0.059006   0.229773
    27  H   -0.131393   0.301602
    28  H   -0.650282   0.875752
    29  H   -0.020513   0.160640
    30  H   -0.343736   0.642241
 Sum of Mulliken charges =  -1.00000   1.00000

 Dipole moment (field-independent basis, Debye):
    X=              0.8021    Y=              4.2504    Z=              0.9617  Tot=              4.4310
 Quadrupole moment (field-independent basis, Debye-Ang):
   XX=           -155.2333   YY=           -132.2920   ZZ=           -122.1278
   XY=             -0.3203   XZ=              1.5796   YZ=              2.8368

 Summary of Natural Population Analysis:

                                       Natural Population
                Natural  -----------------------------------------------
    Atom  No    Charge         Core      Valence    Rydberg      Total
 -----------------------------------------------------------------------
      C    1   -0.13442      0.99927     2.13132    0.00384     3.13442
      C    2    0.00722      0.99938     1.98545    0.00795     2.99278
      C    3   -0.23705      0.99956     2.22798    0.00951     3.23705
      C    4   -0.18442      0.99962     2.17597    0.00883     3.18442
      C    5   -0.18224      0.99962     2.17549    0.00712     3.18224
      C    6   -0.22662      0.99957     2.21898    0.00807     3.22662
      C    7   -0.01436      0.99926     2.00810    0.00701     3.01436
      C    8   -0.00995      0.99924     2.00386    0.00685     3.00995
      C    9   -0.22795      0.99957     2.22060    0.00778     3.22795
      C   10   -0.18036      0.99963     2.17159    0.00914     3.18036
      C   11   -0.24410      0.99957     2.23515    0.00939     3.24410
      C   12    0.41046      0.99972     1.56424    0.02558     2.58954
      O   13   -0.31029      0.99987     3.30418    0.00624     4.31029
      O   14   -0.34617      0.99988     3.33861    0.00768     4.34617
      H   15    0.11025      0.00000     0.38831    0.00144     0.38975
      H   16    0.11127      0.00000     0.38644    0.00229     0.38873
      H   17    0.12255      0.00000     0.37570    0.00175     0.37745
      H   18    0.10634      0.00000     0.39176    0.00190     0.39366
      H   19    0.09949      0.00000     0.39926    0.00125     0.40051
      H   20    0.09811      0.00000     0.40070    0.00119     0.40189
      H   21    0.10046      0.00000     0.39831    0.00124     0.39954
      H   22    0.10974      0.00000     0.38906    0.00120     0.39026
      H   23    0.11106      0.00000     0.38743    0.00151     0.38894
      H   24    0.11798      0.00000     0.38064    0.00138     0.38202
      H   25    0.10964      0.00000     0.38912    0.00124     0.39036
      H   26    0.10365      0.00000     0.39514    0.00121     0.39635
      H   27    0.10005      0.00000     0.39859    0.00136     0.39995
      H   28    0.12105      0.00000     0.37639    0.00255     0.37895
      H   29    0.11465      0.00000     0.38310    0.00226     0.38535
      H   30    0.24399      0.00000     0.24291    0.01311     0.25601
 =======================================================================
   * Total *    0.00000     13.99375    37.84438    0.16187    52.00000

 Normal termination of Gaussian 16 at Thu Dec 10 09:49:25 2020.
