 Gaussian 16, Revision A.03,

 -----------------------------------------------------------
 # opt freq B3LYP/6-31G(d) empiricaldispersion=gd3bj scf=xqc
 -----------------------------------------------------------

 -------------------------------
 CID_151064517_JID_9655_neutraal
 -------------------------------
 Symbolic Z-matrix:
 Charge =  0 Multiplicity = 1

 SCF Done:  E(RB3LYP) =  -858.241547848     A.U. after   16 cycles
 SCF Done:  E(RB3LYP) =  -858.246158450     A.U. after   14 cycles
 SCF Done:  E(RB3LYP) =  -858.248408603     A.U. after   15 cycles
 SCF Done:  E(RB3LYP) =  -858.249002339     A.U. after   14 cycles
 SCF Done:  E(RB3LYP) =  -858.249131055     A.U. after   16 cycles
 SCF Done:  E(RB3LYP) =  -858.248792570     A.U. after   16 cycles
 SCF Done:  E(RB3LYP) =  -858.250262845     A.U. after   13 cycles
 SCF Done:  E(RB3LYP) =  -858.250625224     A.U. after   13 cycles
 SCF Done:  E(RB3LYP) =  -858.242483995     A.U. after   16 cycles
 SCF Done:  E(RB3LYP) =  -858.248768959     A.U. after   14 cycles
 SCF Done:  E(RB3LYP) =  -858.251061846     A.U. after   10 cycles
 SCF Done:  E(RB3LYP) =  -858.251062780     A.U. after    8 cycles
 SCF Done:  E(RB3LYP) =  -858.251063196     A.U. after    8 cycles
 SCF Done:  E(RB3LYP) =  -858.251063345     A.U. after    8 cycles
 Optimization completed.
    -- Stationary point found.
 Normal termination of Gaussian 16 at Sun Dec 13 16:42:14 2020.

 --------------------------------------------------------------------
 #N Geom=AllCheck Guess=TCheck SCRF=Check GenChk RB3LYP/6-31G(d) Freq
 --------------------------------------------------------------------

 Structure from the checkpoint file:  "JID_9655.chk"
 -------------------------------
 CID_151064517_JID_9655_neutraal
 -------------------------------
 Charge =  0 Multiplicity = 1

 SCF Done:  E(RB3LYP) =  -858.251063345     A.U. after    1 cycles

  Exact polarizability: 165.188  -7.428 185.346   2.115  -5.885 140.450
 Approx polarizability: 228.636   1.452 290.858   5.441 -34.391 225.906

                      1                      2                      3
                      A                      A                      A
 Frequencies --     22.9384                38.4259                51.0795
 Red. masses --      5.0779                 6.6549                 4.3745
 Frc consts  --      0.0016                 0.0058                 0.0067
 IR Inten    --      1.3272                 0.6574                 1.3706

                      4                      5                      6
                      A                      A                      A
 Frequencies --     56.0081                75.3075                86.1158
 Red. masses --      4.8822                 3.6391                 3.4837
 Frc consts  --      0.0090                 0.0122                 0.0152
 IR Inten    --      2.0699                 0.4336                 1.0106

                      7                      8                      9
                      A                      A                      A
 Frequencies --    104.8173               116.2230               148.4576
 Red. masses --      4.7433                 3.5964                 5.1983
 Frc consts  --      0.0307                 0.0286                 0.0675
 IR Inten    --      0.9012                 1.8160                 0.8404

                     10                     11                     12
                      A                      A                      A
 Frequencies --    188.7179               219.5429               228.7893
 Red. masses --      3.3352                 2.4917                 2.8901
 Frc consts  --      0.0700                 0.0708                 0.0891
 IR Inten    --      1.6676                 4.5725                 2.1541

                     13                     14                     15
                      A                      A                      A
 Frequencies --    248.9451               262.1954               270.1322
 Red. masses --      2.1405                 2.4826                 1.8650
 Frc consts  --      0.0782                 0.1006                 0.0802
 IR Inten    --      1.5133                 1.8245                 0.4713

                     16                     17                     18
                      A                      A                      A
 Frequencies --    295.7456               317.1423               360.7932
 Red. masses --      2.9031                 3.5367                 4.1590
 Frc consts  --      0.1496                 0.2096                 0.3190
 IR Inten    --      8.8659                 6.8128                 1.8052

                     19                     20                     21
                      A                      A                      A
 Frequencies --    373.8639               383.5587               395.6045
 Red. masses --      3.1298                 2.8898                 2.1261
 Frc consts  --      0.2577                 0.2505                 0.1960
 IR Inten    --      3.3579                 1.1427                 5.0542

                     22                     23                     24
                      A                      A                      A
 Frequencies --    465.3240               496.3182               516.9550
 Red. masses --      2.4208                 3.1091                 3.8222
 Frc consts  --      0.3088                 0.4512                 0.6018
 IR Inten    --      1.4857                 0.4103                 3.8960

                     25                     26                     27
                      A                      A                      A
 Frequencies --    527.5739               575.6112               581.2585
 Red. masses --      3.7113                 2.2856                10.6430
 Frc consts  --      0.6086                 0.4462                 2.1186
 IR Inten    --      2.1648                 3.0705                10.0665

                     28                     29                     30
                      A                      A                      A
 Frequencies --    585.6448               609.9831               713.7609
 Red. masses --      2.2772                 3.0654                 2.3447
 Frc consts  --      0.4602                 0.6720                 0.7038
 IR Inten    --      2.0427                 2.9963                 0.6464

                     31                     32                     33
                      A                      A                      A
 Frequencies --    743.3640               762.1134               796.0655
 Red. masses --      6.8184                 2.2031                 2.7747
 Frc consts  --      2.2199                 0.7539                 1.0360
 IR Inten    --     16.6700                16.5383                13.3058

                     34                     35                     36
                      A                      A                      A
 Frequencies --    826.1315               832.0361               856.8297
 Red. masses --      2.0914                 1.4680                 2.2091
 Frc consts  --      0.8410                 0.5988                 0.9556
 IR Inten    --      1.7314                 0.6274                 3.7705

                     37                     38                     39
                      A                      A                      A
 Frequencies --    877.7419               887.6912               895.2763
 Red. masses --      1.9024                 2.1480                 2.4871
 Frc consts  --      0.8636                 0.9973                 1.1745
 IR Inten    --      2.4453                 0.7069                 0.8379

                     40                     41                     42
                      A                      A                      A
 Frequencies --    929.6571               939.1506               944.2121
 Red. masses --      2.4893                 3.5214                 1.6304
 Frc consts  --      1.2676                 1.8299                 0.8564
 IR Inten    --      2.1655                18.4621                 1.2856

                     43                     44                     45
                      A                      A                      A
 Frequencies --    953.7040               974.7921               994.2552
 Red. masses --      1.8952                 1.7661                 2.1959
 Frc consts  --      1.0156                 0.9887                 1.2790
 IR Inten    --      2.4182                 1.9776                16.3232

                     46                     47                     48
                      A                      A                      A
 Frequencies --   1006.2489              1013.6426              1042.2153
 Red. masses --      1.9945                 1.4842                 2.1370
 Frc consts  --      1.1899                 0.8985                 1.3676
 IR Inten    --      1.9088                 1.1166                16.9183

                     49                     50                     51
                      A                      A                      A
 Frequencies --   1049.8835              1058.0196              1072.4717
 Red. masses --      2.2416                 1.8528                 1.8057
 Frc consts  --      1.4558                 1.2220                 1.2237
 IR Inten    --     13.9974                 0.3740                 7.1467

                     52                     53                     54
                      A                      A                      A
 Frequencies --   1102.8909              1129.2728              1150.8860
 Red. masses --      2.4247                 2.7172                 2.4777
 Frc consts  --      1.7377                 2.0416                 1.9336
 IR Inten    --      5.5791                 0.0389                24.1915

                     55                     56                     57
                      A                      A                      A
 Frequencies --   1156.0286              1169.8184              1180.0429
 Red. masses --      1.6751                 2.2439                 1.8699
 Frc consts  --      1.3189                 1.8092                 1.5342
 IR Inten    --      6.6592                22.8596                13.3714

                     58                     59                     60
                      A                      A                      A
 Frequencies --   1198.6703              1199.7438              1211.9332
 Red. masses --      1.4414                 1.3234                 1.4715
 Frc consts  --      1.2202                 1.1224                 1.2734
 IR Inten    --      1.0402                10.7220                13.4317

                     61                     62                     63
                      A                      A                      A
 Frequencies --   1224.6568              1231.9428              1254.2667
 Red. masses --      2.7877                 1.3600                 1.2504
 Frc consts  --      2.4634                 1.2161                 1.1590
 IR Inten    --     14.5617                 1.9881                 0.5163

                     64                     65                     66
                      A                      A                      A
 Frequencies --   1267.1848              1290.3291              1291.6719
 Red. masses --      1.2622                 1.4011                 2.1281
 Frc consts  --      1.1941                 1.3744                 2.0920
 IR Inten    --     13.4608                16.4476                72.7576

                     67                     68                     69
                      A                      A                      A
 Frequencies --   1304.8509              1307.5676              1328.2151
 Red. masses --      1.4123                 1.5790                 1.2909
 Frc consts  --      1.4167                 1.5906                 1.3418
 IR Inten    --      8.4433                11.7231                32.5683

                     70                     71                     72
                      A                      A                      A
 Frequencies --   1336.3769              1341.9023              1355.1511
 Red. masses --      1.3429                 1.6478                 1.2963
 Frc consts  --      1.4130                 1.7482                 1.4026
 IR Inten    --      0.8840                12.9617                 1.5054

                     73                     74                     75
                      A                      A                      A
 Frequencies --   1365.5108              1371.4101              1379.8410
 Red. masses --      1.2717                 1.5477                 1.4684
 Frc consts  --      1.3971                 1.7150                 1.6472
 IR Inten    --      9.4823                27.5827                11.9007

                     76                     77                     78
                      A                      A                      A
 Frequencies --   1383.1555              1390.4198              1392.0987
 Red. masses --      1.4506                 1.3903                 1.4489
 Frc consts  --      1.6351                 1.5836                 1.6543
 IR Inten    --      6.3634                 9.6525                17.5008

                     79                     80                     81
                      A                      A                      A
 Frequencies --   1400.5960              1403.2674              1421.4573
 Red. masses --      1.3931                 1.3844                 1.4751
 Frc consts  --      1.6101                 1.6062                 1.7561
 IR Inten    --     23.5664                 2.9995                 2.1190

                     82                     83                     84
                      A                      A                      A
 Frequencies --   1429.0546              1451.5304              1463.2948
 Red. masses --      1.4229                 1.4661                 2.9609
 Frc consts  --      1.7121                 1.8199                 3.7355
 IR Inten    --     39.9988                 6.2769               172.9543

                     85                     86                     87
                      A                      A                      A
 Frequencies --   1504.6113              1506.6125              1518.3130
 Red. masses --      1.1187                 1.0983                 1.0927
 Frc consts  --      1.4922                 1.4688                 1.4841
 IR Inten    --      3.3893                 4.0762                11.0378

                     88                     89                     90
                      A                      A                      A
 Frequencies --   1520.7303              1521.0549              1523.1491
 Red. masses --      1.0950                 1.1274                 1.0903
 Frc consts  --      1.4920                 1.5368                 1.4903
 IR Inten    --      7.4520                18.7174                 4.4001

                     91                     92                     93
                      A                      A                      A
 Frequencies --   1529.2231              1531.5814              1545.8298
 Red. masses --      1.1020                 1.0884                 1.1016
 Frc consts  --      1.5184                 1.5043                 1.5509
 IR Inten    --      2.6667                 4.7835                 7.3599

                     94                     95                     96
                      A                      A                      A
 Frequencies --   1549.7964              1562.4833              1740.9928
 Red. masses --      1.0868                 1.1045                 9.7590
 Frc consts  --      1.5379                 1.5888                17.4281
 IR Inten    --      3.5108                 7.1074               256.4495

                     97                     98                     99
                      A                      A                      A
 Frequencies --   2247.6630              2908.7091              2915.6492
 Red. masses --     13.8804                 1.0744                 1.0729
 Frc consts  --     41.3156                 5.3558                 5.3740
 IR Inten    --    411.8651                24.7751               103.1526

                    100                    101                    102
                      A                      A                      A
 Frequencies --   2944.5274              3034.8082              3054.0666
 Red. masses --      1.0737                 1.0735                 1.0624
 Frc consts  --      5.4849                 5.8250                 5.8382
 IR Inten    --    132.1750                47.3913                 4.1641

                    103                    104                    105
                      A                      A                      A
 Frequencies --   3055.9077              3057.3991              3058.2105
 Red. masses --      1.0652                 1.0647                 1.0626
 Frc consts  --      5.8607                 5.8639                 5.8553
 IR Inten    --     25.1315                26.3090                15.2051

                    106                    107                    108
                      A                      A                      A
 Frequencies --   3062.3978              3066.7229              3067.1671
 Red. masses --      1.0619                 1.0691                 1.0662
 Frc consts  --      5.8673                 5.9242                 5.9095
 IR Inten    --     16.7027                21.5587                43.1805

                    109                    110                    111
                      A                      A                      A
 Frequencies --   3086.9114              3090.2639              3098.5664
 Red. masses --      1.0880                 1.0870                 1.1037
 Frc consts  --      6.1083                 6.1159                 6.2434
 IR Inten    --      6.2929                20.2242                27.2796

                    112                    113                    114
                      A                      A                      A
 Frequencies --   3103.5441              3105.3806              3105.4723
 Red. masses --      1.0865                 1.1023                 1.0894
 Frc consts  --      6.1661                 6.2629                 6.1901
 IR Inten    --     31.0675                18.6900                 5.0375

                    115                    116                    117
                      A                      A                      A
 Frequencies --   3113.4274              3116.8662              3120.0207
 Red. masses --      1.1011                 1.0944                 1.0968
 Frc consts  --      6.2885                 6.2643                 6.2907
 IR Inten    --     61.6367                21.0304                28.3170

                    118                    119                    120
                      A                      A                      A
 Frequencies --   3127.6902              3136.2651              3144.1321
 Red. masses --      1.1026                 1.0947                 1.0932
 Frc consts  --      6.3552                 6.3444                 6.3673
 IR Inten    --     32.3100                16.2708                33.2765

 - Thermochemistry -
 -------------------
 Temperature   298.150 Kelvin.  Pressure   1.00000 Atm.
 Atom     1 has atomic number  6 and mass  12.00000

 Molecular mass:   265.19026 amu.
 Principal axes and moments of inertia in atomic units:
                           1         2         3
     Eigenvalues --  3621.102485773.984207913.02664
           X            0.99975   0.02123  -0.00684
           Y           -0.02114   0.99971   0.01190
           Z            0.00709  -0.01175   0.99991
 This molecule is an asymmetric top.
 Rotational symmetry number  1.
 Warning -- assumption of classical behavior for rotation
           may cause significant error
 Rotational temperatures (Kelvin)      0.02392     0.01500     0.01095
 Rotational constants (GHZ):           0.49840     0.31256     0.22807
 Zero-point vibrational energy     975157.0 (Joules/Mol)
                                  233.06812 (Kcal/Mol)
 Warning -- explicit consideration of  29 degrees of freedom as
           vibrations may cause significant error
 Vibrational temperatures:     33.00    55.29    73.49    80.58   108.35
          (Kelvin)            123.90   150.81   167.22   213.60   271.52
                              315.87   329.18   358.18   377.24   388.66
                              425.51   456.30   519.10   537.91   551.86
                              569.19   669.50   714.09   743.78   759.06
                              828.18   836.30   842.61   877.63  1026.94
                             1069.54  1096.51  1145.36  1188.62  1197.11
                             1232.79  1262.87  1277.19  1288.10  1337.57
                             1351.23  1358.51  1372.17  1402.51  1430.51
                             1447.77  1458.41  1499.52  1510.55  1522.25
                             1543.05  1586.81  1624.77  1655.87  1663.27
                             1683.11  1697.82  1724.62  1726.16  1743.70
                             1762.01  1772.49  1804.61  1823.20  1856.50
                             1858.43  1877.39  1881.30  1911.01  1922.75
                             1930.70  1949.76  1964.67  1973.15  1985.28
                             1990.05  2000.50  2002.92  2015.15  2018.99
                             2045.16  2056.09  2088.43  2105.35  2164.80
                             2167.68  2184.51  2187.99  2188.46  2191.47
                             2200.21  2203.60  2224.10  2229.81  2248.06
                             2504.90  3233.89  4184.98  4194.97  4236.52
                             4366.41  4394.12  4396.77  4398.92  4400.08
                             4406.11  4412.33  4412.97  4441.38  4446.20
                             4458.15  4465.31  4467.95  4468.08  4479.53
                             4484.48  4489.01  4500.05  4512.39  4523.70

 Zero-point correction=                           0.371418 (Hartree/Particle)
 Thermal correction to Energy=                    0.389683
 Thermal correction to Enthalpy=                  0.390627
 Thermal correction to Gibbs Free Energy=         0.323678
 Sum of electronic and zero-point Energies=           -857.879646
 Sum of electronic and thermal Energies=              -857.861381
 Sum of electronic and thermal Enthalpies=            -857.860437
 Sum of electronic and thermal Free Energies=         -857.927386

                     E (Thermal)             CV                S
                      KCal/Mol        Cal/Mol-Kelvin    Cal/Mol-Kelvin
 Total                  244.529             69.653            140.906
 Electronic               0.000              0.000              0.000
 Translational            0.889              2.981             42.625
 Rotational               0.889              2.981             33.470
 Vibrational            242.752             63.691             64.811
 Vibration     1          0.593              1.985              6.362
 Vibration     2          0.594              1.982              5.339
 Vibration     3          0.595              1.977              4.775
 Vibration     4          0.596              1.975              4.593
 Vibration     5          0.599              1.965              4.010
 Vibration     6          0.601              1.959              3.746
 Vibration     7          0.605              1.945              3.363
 Vibration     8          0.608              1.936              3.162
 Vibration     9          0.618              1.904              2.692
 Vibration    10          0.633              1.855              2.240
 Vibration    11          0.647              1.811              1.963
 Vibration    12          0.651              1.797              1.888
 Vibration    13          0.662              1.765              1.738
 Vibration    14          0.669              1.742              1.647
 Vibration    15          0.674              1.728              1.595
 Vibration    16          0.690              1.682              1.441
 Vibration    17          0.704              1.641              1.325
 Vibration    18          0.735              1.553              1.119
 Vibration    19          0.745              1.526              1.064
 Vibration    20          0.753              1.505              1.025
 Vibration    21          0.762              1.480              0.979
 Vibration    22          0.823              1.327              0.751
 Vibration    23          0.852              1.258              0.667
 Vibration    24          0.872              1.212              0.617
 Vibration    25          0.883              1.189              0.593
 Vibration    26          0.932              1.084              0.494
 Vibration    27          0.938              1.072              0.483
 Vibration    28          0.943              1.062              0.475
 Vibration    29          0.969              1.011              0.433

 Optimization completed.
    -- Stationary point found.
 Normal termination of Gaussian 16 at Sun Dec 13 17:11:02 2020.

 ----------------------------------------------------------------------
 # B3LYP/6-311++G(d,p) empiricaldispersion=gd3bj scf=xqc pop=npa geom=c
 heck
 ----------------------------------------------------------------------

 ---------------------------------------
 CID_151064517_JID_9655_Energie_neutraal
 ---------------------------------------
 Structure from the checkpoint file:  "JID_9655.chk"
 Charge =  0 Multiplicity = 1

 SCF Done:  E(RB3LYP) =  -858.484785539     A.U. after   17 cycles
 Normal termination of Gaussian 16 at Sun Dec 13 17:25:54 2020.

 ----------------------------------------------------------------------
 # B3LYP/6-311++G(d,p) empiricaldispersion=gd3bj scf=xqc pop=npa geom=c
 heck
 ----------------------------------------------------------------------

 -------------------------------------
 CID_151064517_JID_9655_Energie_kation
 -------------------------------------
 Structure from the checkpoint file:  "JID_9655.chk"
 Charge =  1 Multiplicity = 2

 SCF Done:  E(UB3LYP) =  -858.183295940     A.U. after   33 cycles
 SCF Done:  E(UB3LYP) =  -858.186797730     a.u. after   16 cycles
 Normal termination of Gaussian 16 at Mon Dec 14 01:03:18 2020.
 Gaussian 16:  ES64L-G16RevA.03 25-Dec-2016

 ----------------------------------------------------------------------
 # B3LYP/6-311++G(d,p) empiricaldispersion=gd3bj scf=xqc pop=npa geom=c
 heck
 ----------------------------------------------------------------------

 ------------------------------------
 CID_151064517_JID_9655_Energie_anion
 ------------------------------------
 Structure from the checkpoint file:  "JID_9655.chk"
 Charge = -1 Multiplicity = 2

                         Standard orientation:
 ---------------------------------------------------------------------
 Center     Atomic      Atomic             Coordinates (Angstroms)
 Number     Number       Type             X           Y           Z
 ---------------------------------------------------------------------
      1          6           0        0.856669    2.893753    0.956671
      2          6           0        0.325638    2.904270   -0.485521
      3          6           0        0.797025    1.554863   -1.051977
      4          7           0        2.000914    1.242894   -0.266640
      5          6           0        2.220205    2.209927    0.815480
      6          6           0        2.708395    0.079799   -0.296896
      7          8           0        3.628592   -0.138712    0.493663
      8          6           0        2.317179   -0.964843   -1.336652
      9          6           0        2.182031   -2.351370   -0.686294
     10          6           0        1.278949   -2.338456    0.553204
     11          7           0        0.027791   -1.605301    0.351504
     12          6           0       -0.908600   -2.307104   -0.520695
     13          6           0       -2.105901   -1.416896   -0.862126
     14          6           0       -2.799742   -0.923805    0.412096
     15          6           0       -1.788807   -0.303322    1.381444
     16          6           0       -0.607085   -1.245819    1.615511
     17          7           0       -3.920428    0.010923    0.107716
     18          7           0       -3.583813    1.066956   -0.432791
     19          7           0       -3.388527    2.076947   -0.933798
     20          1           0        0.926433    3.892486    1.396842
     21          1           0        0.202619    2.288344    1.596305
     22          1           0        0.784666    3.727705   -1.044722
     23          1           0       -0.760040    3.018889   -0.552396
     24          1           0        0.048275    0.771068   -0.897259
     25          1           0        1.019572    1.614176   -2.122810
     26          1           0        3.003149    2.928628    0.536968
     27          1           0        2.559207    1.682233    1.709037
     28          1           0        1.392136   -0.699799   -1.850387
     29          1           0        3.112547   -0.996230   -2.091757
     30          1           0        1.819070   -3.063374   -1.437275
     31          1           0        3.169396   -2.699016   -0.367826
     32          1           0        1.092543   -3.375269    0.893079
     33          1           0        1.823506   -1.830506    1.353936
     34          1           0       -1.263524   -3.248190   -0.051608
     35          1           0       -0.392031   -2.588185   -1.443022
     36          1           0       -2.820681   -1.961432   -1.488395
     37          1           0       -1.752625   -0.552907   -1.438896
     38          1           0       -3.292549   -1.769678    0.900807
     39          1           0       -1.412036    0.635705    0.958515
     40          1           0       -2.281000   -0.064816    2.330486
     41          1           0        0.137901   -0.749162    2.245656
     42          1           0       -0.952561   -2.143896    2.168015
 ---------------------------------------------------------------------

 SCF Done:  E(UB3LYP) =  -858.478171471     A.U. after   33 cycles
 SCF Done:  E(UB3LYP) =  -858.478171471     a.u. after    1 cycles

 The electronic state is 2-A.
 Alpha  occ. eigenvalues --  -18.98667 -14.34404 -14.24602 -14.24568 -14.23498
 Alpha  occ. eigenvalues --  -14.21253 -10.17154 -10.11397 -10.11167 -10.11144
 Alpha  occ. eigenvalues --  -10.10091 -10.09846 -10.09767 -10.08690 -10.08540
 Alpha  occ. eigenvalues --  -10.08210 -10.07814 -10.07380 -10.07198  -1.01260
 Alpha  occ. eigenvalues --   -0.93911  -0.85770  -0.84993  -0.83914  -0.71847
 Alpha  occ. eigenvalues --   -0.70545  -0.68472  -0.66467  -0.65105  -0.61206
 Alpha  occ. eigenvalues --   -0.56854  -0.54449  -0.54067  -0.51073  -0.49577
 Alpha  occ. eigenvalues --   -0.47359  -0.45626  -0.43420  -0.41399  -0.40908
 Alpha  occ. eigenvalues --   -0.40062  -0.38776  -0.37945  -0.37362  -0.36966
 Alpha  occ. eigenvalues --   -0.35284  -0.34912  -0.34286  -0.33818  -0.33578
 Alpha  occ. eigenvalues --   -0.33085  -0.32178  -0.31576  -0.31235  -0.29638
 Alpha  occ. eigenvalues --   -0.29114  -0.27990  -0.27507  -0.26607  -0.26208
 Alpha  occ. eigenvalues --   -0.26052  -0.25618  -0.25147  -0.24681  -0.24137
 Alpha  occ. eigenvalues --   -0.23987  -0.22982  -0.18136  -0.15866  -0.14974
 Alpha  occ. eigenvalues --   -0.13546  -0.13172   0.04172
 Alpha virt. eigenvalues --    0.05851   0.06274   0.07060   0.07820   0.08115
 Alpha virt. eigenvalues --    0.08275   0.09172   0.09301   0.10167   0.10264
 Alpha virt. eigenvalues --    0.11009   0.11172   0.11353   0.11600   0.12028

  Beta  occ. eigenvalues --  -18.98665 -14.34158 -14.24568 -14.24273 -14.23549
  Beta  occ. eigenvalues --  -14.21243 -10.17155 -10.11392 -10.11158 -10.11065
  Beta  occ. eigenvalues --  -10.10078 -10.09822 -10.09760 -10.08677 -10.08534
  Beta  occ. eigenvalues --  -10.08202 -10.07803 -10.07371 -10.07184  -1.00788
  Beta  occ. eigenvalues --   -0.93907  -0.85555  -0.84988  -0.83880  -0.71795
  Beta  occ. eigenvalues --   -0.70511  -0.68421  -0.66432  -0.65085  -0.61148
  Beta  occ. eigenvalues --   -0.56766  -0.54394  -0.54021  -0.51041  -0.49527
  Beta  occ. eigenvalues --   -0.47277  -0.45608  -0.43248  -0.41347  -0.40808
  Beta  occ. eigenvalues --   -0.39673  -0.38616  -0.37642  -0.37305  -0.36809
  Beta  occ. eigenvalues --   -0.35260  -0.34865  -0.34252  -0.33704  -0.33401
  Beta  occ. eigenvalues --   -0.32803  -0.31909  -0.31310  -0.31193  -0.29609
  Beta  occ. eigenvalues --   -0.29087  -0.27960  -0.27478  -0.26581  -0.26175
  Beta  occ. eigenvalues --   -0.26011  -0.25576  -0.25112  -0.24655  -0.24055
  Beta  occ. eigenvalues --   -0.23959  -0.22935  -0.17576  -0.15859  -0.14968
  Beta  occ. eigenvalues --   -0.13455  -0.13105
  Beta virt. eigenvalues --    0.06041   0.06748   0.07076   0.07976   0.08398
  Beta virt. eigenvalues --    0.08548   0.08986   0.09216   0.09800   0.10496
  Beta virt. eigenvalues --    0.10565   0.11127   0.11403   0.11464   0.11742

 Mulliken charges and spin densities:
               1          2
     1  C   -0.100714  -0.347624
     2  C   -0.698305   0.261790
     3  C   -0.148217  -0.024260
     4  N    0.124332   0.065920
     5  C    0.137841  -0.261231
     6  C   -0.596748  -0.040986
     7  O   -0.310722   0.009112
     8  C    0.098437   0.167543
     9  C    0.045667  -0.674638
    10  C   -0.282594   0.210791
    11  N    0.289838   0.003760
    12  C    0.389907  -1.005739
    13  C   -0.535680   0.435885
    14  C    0.761134  -1.478466
    15  C   -0.204865   0.052472
    16  C   -0.246287  -0.214478
    17  N   -0.323854   0.296025
    18  N    0.475677  -0.069751
    19  N   -0.281157   0.091985
    20  H   -0.137873   0.314344
    21  H    0.042764   0.088720
    22  H    0.055622   0.112104
    23  H    0.111825   0.097427
    24  H    1.155992  -1.047095
    25  H   -0.023546   0.199786
    26  H    0.051262   0.119719
    27  H    0.110844   0.081907
    28  H    0.004837   0.142693
    29  H   -0.032135   0.239697
    30  H   -0.151961   0.316179
    31  H    0.183762  -0.005803
    32  H   -0.023872   0.138428
    33  H    0.073798   0.088747
    34  H   -0.053436   0.181293
    35  H   -0.183411   0.334462
    36  H   -0.448647   0.650914
    37  H   -0.214904   0.406255
    38  H   -0.235453   0.473860
    39  H    0.354330  -0.121278
    40  H   -0.197480   0.398204
    41  H    0.020611   0.118020
    42  H   -0.056621   0.193308
 Sum of Mulliken charges =  -1.00000   1.00000

 Dipole moment (field-independent basis, Debye):
    X=              3.8779    Y=              1.5757    Z=              0.2612  Tot=              4.1939
 Quadrupole moment (field-independent basis, Debye-Ang):
   XX=           -198.5834   YY=           -166.0985   ZZ=           -150.2097
   XY=             -1.5274   XZ=             -3.8964   YZ=             -2.9142

 Summary of Natural Population Analysis:

                                       Natural Population
                Natural  -----------------------------------------------
    Atom  No    Charge         Core      Valence    Rydberg      Total
 -----------------------------------------------------------------------
      C    1   -0.19618      0.99964     2.18933    0.00721     3.19618
      C    2   -0.19795      0.99963     2.19066    0.00765     3.19795
      C    3   -0.08848      0.99962     2.08018    0.00868     3.08848
      N    4   -0.25507      0.99963     2.74561    0.00983     3.75507
      C    5   -0.08376      0.99963     2.07366    0.01048     3.08376
      C    6    0.34993      0.99964     1.62800    0.02243     2.65007
      O    7   -0.33855      0.99988     3.33376    0.00491     4.33855
      C    8   -0.22901      0.99959     2.22132    0.00810     3.22901
      C    9   -0.19154      0.99963     2.18311    0.00880     3.19154
      C   10   -0.08431      0.99961     2.07440    0.01029     3.08431
      N   11   -0.29391      0.99970     2.78163    0.01258     3.79391
      C   12   -0.08315      0.99960     2.07221    0.01134     3.08315
      C   13   -0.19961      0.99960     2.19008    0.00993     3.19961
      C   14   -0.00784      0.99953     1.99506    0.01326     3.00784
      C   15   -0.20181      0.99960     2.19262    0.00959     3.20181
      C   16   -0.07869      0.99961     2.06877    0.01030     3.07869
      N   17   -0.19880      0.99970     2.68465    0.01444     3.69880
      N   18    0.13224      0.99969     2.35212    0.01595     3.36776
      N   19   -0.02885      0.99982     2.51570    0.01334     3.52885
      H   20    0.10187      0.00000     0.39722    0.00092     0.39813
      H   21    0.09877      0.00000     0.39981    0.00143     0.40123
      H   22    0.09466      0.00000     0.40435    0.00099     0.40534
      H   23    0.11350      0.00000     0.38551    0.00099     0.38650
      H   24    0.10350      0.00000     0.39381    0.00270     0.39650
      H   25    0.09550      0.00000     0.40349    0.00101     0.40450
      H   26    0.09110      0.00000     0.40790    0.00100     0.40890
      H   27    0.10936      0.00000     0.38967    0.00098     0.39064
      H   28    0.10476      0.00000     0.39358    0.00165     0.39524
      H   29    0.10865      0.00000     0.39043    0.00092     0.39135
      H   30    0.09753      0.00000     0.40137    0.00110     0.40247
      H   31    0.10535      0.00000     0.39368    0.00097     0.39465
      H   32    0.08454      0.00000     0.41436    0.00110     0.41546
      H   33    0.10225      0.00000     0.39644    0.00130     0.39775
      H   34    0.08206      0.00000     0.41623    0.00171     0.41794
      H   35    0.09978      0.00000     0.39860    0.00163     0.40022
      H   36    0.10635      0.00000     0.39219    0.00146     0.39365
      H   37    0.09677      0.00000     0.40123    0.00200     0.40323
      H   38    0.09846      0.00000     0.39923    0.00231     0.40154
      H   39    0.09662      0.00000     0.40068    0.00270     0.40338
      H   40    0.10465      0.00000     0.39414    0.00121     0.39535
      H   41    0.09809      0.00000     0.40076    0.00115     0.40191
      H   42    0.08124      0.00000     0.41742    0.00134     0.41876
 =======================================================================
   * Total *    0.00000     18.99335    52.76497    0.24168    72.00000

 Normal termination of Gaussian 16 at Mon Dec 14 01:42:03 2020.
