 Gaussian 16, Revision A.03,

 -----------------------------------------------------------
 # opt freq B3LYP/6-31G(d) empiricaldispersion=gd3bj scf=xqc
 -----------------------------------------------------------

 ------------------------------
 CID_13562759_JID_4427_neutraal
 ------------------------------
 Symbolic Z-matrix:
 Charge =  0 Multiplicity = 1

 SCF Done:  E(RB3LYP) =  -1038.01650135     A.U. after   16 cycles
 SCF Done:  E(RB3LYP) =  -1038.02677672     A.U. after   14 cycles
 SCF Done:  E(RB3LYP) =  -1038.02918263     A.U. after   14 cycles
 SCF Done:  E(RB3LYP) =  -1038.03188107     A.U. after   14 cycles
 SCF Done:  E(RB3LYP) =  -1038.03354306     A.U. after   13 cycles
 SCF Done:  E(RB3LYP) =  -1038.03439467     A.U. after   13 cycles
 SCF Done:  E(RB3LYP) =  -1038.03470590     A.U. after   12 cycles
 SCF Done:  E(RB3LYP) =  -1038.03485186     A.U. after   11 cycles
 SCF Done:  E(RB3LYP) =  -1038.03489038     A.U. after   11 cycles
 SCF Done:  E(RB3LYP) =  -1038.03490191     A.U. after   10 cycles
 SCF Done:  E(RB3LYP) =  -1038.03490405     A.U. after    9 cycles
 SCF Done:  E(RB3LYP) =  -1038.03490433     A.U. after    8 cycles
 Optimization completed.
    -- Stationary point found.
 Normal termination of Gaussian 16 at Thu Dec 10 09:42:45 2020.

 --------------------------------------------------------------------
 #N Geom=AllCheck Guess=TCheck SCRF=Check GenChk RB3LYP/6-31G(d) Freq
 --------------------------------------------------------------------

 Structure from the checkpoint file:  "JID_4427.chk"
 ------------------------------
 CID_13562759_JID_4427_neutraal
 ------------------------------
 Charge =  0 Multiplicity = 1

 SCF Done:  E(RB3LYP) =  -1038.03490433     A.U. after    1 cycles

  Exact polarizability: 170.880  -7.385 161.823  -0.003   0.008  51.940
 Approx polarizability: 245.351 -24.548 329.005  -0.000   0.013  81.696

                      1                      2                      3
                      A                      A                      A
 Frequencies --     58.9869                77.2283                87.2661
 Red. masses --     11.6274                 5.9436                 1.0555
 Frc consts  --      0.0238                 0.0209                 0.0047
 IR Inten    --      0.2816                 1.0822                 0.2323

                      4                      5                      6
                      A                      A                      A
 Frequencies --    118.9187               141.8607               174.4515
 Red. masses --      9.6844                10.2704                 3.8641
 Frc consts  --      0.0807                 0.1218                 0.0693
 IR Inten    --      0.2473                 8.7964                 0.6471

                      7                      8                      9
                      A                      A                      A
 Frequencies --    218.6495               247.9199               289.3013
 Red. masses --      8.0031                 6.7063                 3.8321
 Frc consts  --      0.2254                 0.2429                 0.1890
 IR Inten    --      9.2286                 0.0576                 6.8000

                     10                     11                     12
                      A                      A                      A
 Frequencies --    348.2298               352.3700               444.8653
 Red. masses --      7.4479                 7.8943                11.4202
 Frc consts  --      0.5321                 0.5775                 1.3316
 IR Inten    --      9.8760                 6.2235                 4.8671

                     13                     14                     15
                      A                      A                      A
 Frequencies --    447.9208               469.4025               524.8512
 Red. masses --      1.3931                 6.6511                 5.0245
 Frc consts  --      0.1647                 0.8634                 0.8155
 IR Inten    --     65.1085                 1.3634                20.4261

                     16                     17                     18
                      A                      A                      A
 Frequencies --    568.4635               589.3857               635.8020
 Red. masses --      2.9105                 2.2282                 7.2524
 Frc consts  --      0.5541                 0.4560                 1.7273
 IR Inten    --     39.0925                52.8198                 1.5601

                     19                     20                     21
                      A                      A                      A
 Frequencies --    638.6962               652.6123               686.4302
 Red. masses --      2.5246                 4.9236                 2.5450
 Frc consts  --      0.6068                 1.2355                 0.7065
 IR Inten    --     18.1461                25.5819                40.2426

                     22                     23                     24
                      A                      A                      A
 Frequencies --    722.6103               762.1381               788.2255
 Red. masses --      4.7675                 9.4222                 8.5867
 Frc consts  --      1.4667                 3.2246                 3.1432
 IR Inten    --     82.2804                27.2539                11.0910

                     25                     26                     27
                      A                      A                      A
 Frequencies --    860.3395               867.0190               945.5937
 Red. masses --      5.3510                 1.2903                 6.8032
 Frc consts  --      2.3336                 0.5715                 3.5840
 IR Inten    --     16.3022                12.9104                67.5756

                     28                     29                     30
                      A                      A                      A
 Frequencies --   1008.3072              1029.0426              1073.1561
 Red. masses --      5.8560                 2.4408                 1.5810
 Frc consts  --      3.5078                 1.5228                 1.0728
 IR Inten    --     13.9790                 0.5689                 6.1850

                     31                     32                     33
                      A                      A                      A
 Frequencies --   1074.1635              1134.4729              1181.4842
 Red. masses --      2.3839                 2.2263                 2.8909
 Frc consts  --      1.6206                 1.6882                 2.3776
 IR Inten    --     10.2331                 9.1672                33.3663

                     34                     35                     36
                      A                      A                      A
 Frequencies --   1206.9401              1259.8441              1305.3204
 Red. masses --      2.2501                 2.5096                 4.7702
 Frc consts  --      1.9312                 2.3469                 4.7887
 IR Inten    --    448.1769                64.1920                 0.5773

                     37                     38                     39
                      A                      A                      A
 Frequencies --   1352.9646              1360.1524              1418.0781
 Red. masses --      3.5043                 7.6881                 3.5499
 Frc consts  --      3.7794                 8.3801                 4.2059
 IR Inten    --     38.7095               145.8656               227.4317

                     40                     41                     42
                      A                      A                      A
 Frequencies --   1435.7890              1479.1080              1502.1916
 Red. masses --      1.2822                 3.8848                 1.0447
 Frc consts  --      1.5574                 5.0074                 1.3890
 IR Inten    --     13.1793                20.5044                 7.0588

                     43                     44                     45
                      A                      A                      A
 Frequencies --   1505.2427              1519.8728              1543.3846
 Red. masses --      2.8131                 1.9316                 3.9308
 Frc consts  --      3.7554                 2.6290                 5.5167
 IR Inten    --    133.8564                14.1204                67.1453

                     46                     47                     48
                      A                      A                      A
 Frequencies --   1583.6002              1647.1622              1834.2109
 Red. masses --      6.2791                10.1618                10.8304
 Frc consts  --      9.2777                16.2440                21.4681
 IR Inten    --    275.7124               297.5163               253.7878

                     49                     50                     51
                      A                      A                      A
 Frequencies --   3062.5589              3121.6490              3154.7056
 Red. masses --      1.0365                 1.1005                 1.1031
 Frc consts  --      5.7280                 6.3184                 6.4682
 IR Inten    --      9.8546                 7.2861                13.9025

                     52                     53                     54
                      A                      A                      A
 Frequencies --   3247.1438              3536.5823              3687.9150
 Red. masses --      1.0918                 1.0822                 1.0642
 Frc consts  --      6.7823                 7.9747                 8.5277
 IR Inten    --      0.2320               137.8529               121.6669

 - Thermochemistry -
 -------------------
 Temperature   298.150 Kelvin.  Pressure   1.00000 Atm.
 Atom     1 has atomic number  6 and mass  12.00000

 Molecular mass:   210.02115 amu.
 Principal axes and moments of inertia in atomic units:
                           1         2         3
     Eigenvalues --  1743.571004203.335115935.74650
           X            0.99959  -0.02863  -0.00000
           Y            0.02863   0.99959   0.00000
           Z            0.00000  -0.00000   1.00000
 This molecule is an asymmetric top.
 Rotational symmetry number  1.
 Warning -- assumption of classical behavior for rotation
           may cause significant error
 Rotational temperatures (Kelvin)      0.04968     0.02061     0.01459
 Rotational constants (GHZ):           1.03508     0.42936     0.30405
 Zero-point vibrational energy     364768.8 (Joules/Mol)
                                   87.18184 (Kcal/Mol)
 Warning -- explicit consideration of  17 degrees of freedom as
           vibrations may cause significant error
 Vibrational temperatures:     84.87   111.11   125.56   171.10   204.11
          (Kelvin)            251.00   314.59   356.70   416.24   501.02
                              506.98   640.06   644.46   675.37   755.14
                              817.89   847.99   914.78   918.94   938.96
                              987.62  1039.68  1096.55  1134.08  1237.84
                             1247.45  1360.50  1450.73  1480.56  1544.03
                             1545.48  1632.25  1699.89  1736.52  1812.63
                             1878.06  1946.61  1956.96  2040.30  2065.78
                             2128.11  2161.32  2165.71  2186.76  2220.59
                             2278.45  2369.90  2639.02  4406.34  4491.36
                             4538.92  4671.92  5088.35  5306.09

 Zero-point correction=                           0.138933 (Hartree/Particle)
 Thermal correction to Energy=                    0.150832
 Thermal correction to Enthalpy=                  0.151776
 Thermal correction to Gibbs Free Energy=         0.099852
 Sum of electronic and zero-point Energies=          -1037.895971
 Sum of electronic and thermal Energies=             -1037.884073
 Sum of electronic and thermal Enthalpies=           -1037.883128
 Sum of electronic and thermal Free Energies=        -1037.935053

                     E (Thermal)             CV                S
                      KCal/Mol        Cal/Mol-Kelvin    Cal/Mol-Kelvin
 Total                   94.648             44.034            109.284
 Electronic               0.000              0.000              0.000
 Translational            0.889              2.981             41.930
 Rotational               0.889              2.981             32.142
 Vibrational             92.871             38.072             35.212
 Vibration     1          0.596              1.974              4.491
 Vibration     2          0.599              1.964              3.960
 Vibration     3          0.601              1.958              3.720
 Vibration     4          0.609              1.934              3.118
 Vibration     5          0.615              1.911              2.779
 Vibration     6          0.627              1.874              2.387
 Vibration     7          0.646              1.813              1.970
 Vibration     8          0.662              1.766              1.745
 Vibration     9          0.686              1.694              1.478
 Vibration    10          0.726              1.579              1.174
 Vibration    11          0.729              1.570              1.156
 Vibration    12          0.804              1.372              0.811
 Vibration    13          0.807              1.365              0.802
 Vibration    14          0.827              1.318              0.739
 Vibration    15          0.880              1.195              0.599
 Vibration    16          0.924              1.099              0.507
 Vibration    17          0.947              1.054              0.468

                           ! Non-Optimized Parameters !
 Normal termination of Gaussian 16 at Thu Dec 10 09:47:36 2020.

 ----------------------------------------------------------------------
 # B3LYP/6-311++G(d,p) empiricaldispersion=gd3bj scf=xqc pop=npa geom=c
 heck
 ----------------------------------------------------------------------

 --------------------------------------
 CID_13562759_JID_4427_Energie_neutraal
 --------------------------------------
 Structure from the checkpoint file:  "JID_4427.chk"
 Charge =  0 Multiplicity = 1

 SCF Done:  E(RB3LYP) =  -1038.24277892     A.U. after   17 cycles
 Normal termination of Gaussian 16 at Thu Dec 10 09:50:07 2020.

 ----------------------------------------------------------------------
 # B3LYP/6-311++G(d,p) empiricaldispersion=gd3bj scf=xqc pop=npa geom=c
 heck
 ----------------------------------------------------------------------

 ------------------------------------
 CID_13562759_JID_4427_Energie_kation
 ------------------------------------
 Structure from the checkpoint file:  "JID_4427.chk"
 Charge =  1 Multiplicity = 2

 SCF Done:  E(UB3LYP) =  -1037.92999914     A.U. after   26 cycles
 Normal termination of Gaussian 16 at Thu Dec 10 09:55:35 2020.
 Gaussian 16:  ES64L-G16RevA.03 25-Dec-2016

 ----------------------------------------------------------------------
 # B3LYP/6-311++G(d,p) empiricaldispersion=gd3bj scf=xqc pop=npa geom=c
 heck
 ----------------------------------------------------------------------

 -----------------------------------
 CID_13562759_JID_4427_Energie_anion
 -----------------------------------
 Structure from the checkpoint file:  "JID_4427.chk"
 Charge = -1 Multiplicity = 2

                         Standard orientation:
 ---------------------------------------------------------------------
 Center     Atomic      Atomic             Coordinates (Angstroms)
 Number     Number       Type             X           Y           Z
 ---------------------------------------------------------------------
      1          6           0        3.758206   -1.957429   -0.000009
      2          6           0        2.511765   -1.117597    0.000185
      3          6           0        2.588411    0.275197    0.000217
      4          6           0        1.439439    1.102549   -0.000218
      5         16           0        1.287221    2.772775    0.000192
      6          7           0        0.297231    0.304865   -0.000502
      7          6           0        0.255792   -1.082947   -0.000106
      8          7           0        1.345249   -1.815195    0.000075
      9          7           0       -1.056656   -1.481817    0.000054
     10          6           0       -1.753917   -0.365181   -0.000007
     11          7           0       -0.979826    0.746977   -0.000350
     12          6           0       -3.230658   -0.187285    0.000070
     13          8           0       -3.735388    0.914686   -0.000057
     14          8           0       -3.889132   -1.348965    0.000235
     15          1           0        4.662475   -1.344468    0.004698
     16          1           0        3.770356   -2.605469   -0.883204
     17          1           0        3.765724   -2.612889    0.877662
     18          1           0        3.551381    0.769665    0.000670
     19          1           0       -1.164156    1.748433   -0.000612
     20          1           0       -4.841360   -1.133105    0.000552
 ---------------------------------------------------------------------

 SCF Done:  E(UB3LYP) =  -1038.29393301     A.U. after   23 cycles

 The electronic state is 2-A.
 Alpha  occ. eigenvalues --  -88.67160 -19.04055 -18.96739 -14.29836 -14.26492
 Alpha  occ. eigenvalues --  -14.17947 -14.17331 -10.15380 -10.14876 -10.13391
 Alpha  occ. eigenvalues --  -10.11026 -10.10739 -10.07035 -10.05550  -7.75920
 Alpha  occ. eigenvalues --   -5.72322  -5.71746  -5.71473  -0.99150  -0.97849
 Alpha  occ. eigenvalues --   -0.88866  -0.83837  -0.80867  -0.73689  -0.68620
 Alpha  occ. eigenvalues --   -0.63668  -0.59042  -0.57010  -0.52201  -0.51152
 Alpha  occ. eigenvalues --   -0.49234  -0.43668  -0.40979  -0.39003  -0.38714
 Alpha  occ. eigenvalues --   -0.36925  -0.35144  -0.33083  -0.32588  -0.32173
 Alpha  occ. eigenvalues --   -0.29634  -0.28075  -0.26983  -0.25264  -0.25167
 Alpha  occ. eigenvalues --   -0.24209  -0.20303  -0.18140  -0.16189  -0.15969
 Alpha  occ. eigenvalues --   -0.15439  -0.15108  -0.09806  -0.09135   0.01186
 Alpha virt. eigenvalues --    0.07499   0.07765   0.08770   0.10475   0.11039
 Alpha virt. eigenvalues --    0.11564   0.12284   0.12762   0.14125   0.15369
 Alpha virt. eigenvalues --    0.15447   0.16161   0.16470   0.17076   0.17095

  Beta  occ. eigenvalues --  -88.67158 -19.03939 -18.96327 -14.29807 -14.26230
  Beta  occ. eigenvalues --  -14.17757 -14.17162 -10.15093 -10.14855 -10.13295
  Beta  occ. eigenvalues --  -10.11060 -10.10342 -10.07035 -10.05464  -7.75918
  Beta  occ. eigenvalues --   -5.72325  -5.71736  -5.71473  -0.98825  -0.97485
  Beta  occ. eigenvalues --   -0.88243  -0.83543  -0.80442  -0.73289  -0.68384
  Beta  occ. eigenvalues --   -0.63500  -0.58839  -0.56189  -0.52058  -0.51010
  Beta  occ. eigenvalues --   -0.48944  -0.43541  -0.40748  -0.38781  -0.37873
  Beta  occ. eigenvalues --   -0.36557  -0.34732  -0.32619  -0.32474  -0.30905
  Beta  occ. eigenvalues --   -0.29595  -0.27982  -0.26592  -0.25182  -0.24228
  Beta  occ. eigenvalues --   -0.23238  -0.18614  -0.17865  -0.15698  -0.14991
  Beta  occ. eigenvalues --   -0.14708  -0.14352  -0.09786  -0.08517
  Beta virt. eigenvalues --    0.07231   0.07751   0.08465   0.08787   0.10459
  Beta virt. eigenvalues --    0.11563   0.11661   0.12763   0.13106   0.14138
  Beta virt. eigenvalues --    0.15378   0.15507   0.16145   0.16474   0.17096

 Mulliken charges and spin densities:
               1          2
     1  C   -0.484009   0.000984
     2  C    0.110748  -0.032601
     3  C    0.120318   0.091697
     4  C   -0.126626   0.029229
     5  S   -0.983918   0.017639
     6  N    0.703564  -0.001981
     7  C   -0.114518   0.026674
     8  N   -0.168061   0.094785
     9  N   -0.239871   0.072982
    10  C    0.279885   0.240016
    11  N   -0.600771   0.110497
    12  C   -0.102241   0.197889
    13  O   -0.384491   0.144042
    14  O   -0.195688   0.022322
    15  H    0.140231  -0.000371
    16  H    0.150380   0.000217
    17  H    0.150355   0.000225
    18  H    0.158696  -0.005678
    19  H    0.308123  -0.006752
    20  H    0.277895  -0.001814
 Sum of Mulliken charges =  -1.00000   1.00000

 Dipole moment (field-independent basis, Debye):
    X=              2.0466    Y=             -2.0211    Z=             -0.0010  Tot=              2.8763
 Quadrupole moment (field-independent basis, Debye-Ang):
   XX=           -111.8130   YY=           -124.9130   ZZ=            -93.2442
   XY=             -4.2832   XZ=             -0.0035   YZ=             -0.0009

 Summary of Natural Population Analysis:

                                       Natural Population
                Natural  -----------------------------------------------
    Atom  No    Charge         Core      Valence    Rydberg      Total
 -----------------------------------------------------------------------
      C    1   -0.29548      0.99963     2.29071    0.00514     3.29548
      C    2    0.10747      0.99955     1.88034    0.01264     2.89253
      C    3   -0.14912      0.99945     2.13987    0.00980     3.14912
      C    4    0.04159      0.99956     1.94340    0.01545     2.95841
      S    5   -0.16303      4.99961     3.14855    0.01487     8.16303
      N    6   -0.11425      0.99957     2.60099    0.01369     3.61425
      C    7    0.29168      0.99960     1.69110    0.01762     2.70832
      N    8   -0.24744      0.99963     2.73242    0.01539     3.74744
      N    9   -0.22810      0.99967     2.71928    0.00915     3.72810
      C   10    0.23528      0.99960     1.74847    0.01666     2.76472
      N   11   -0.14294      0.99965     2.63019    0.01310     3.64294
      C   12    0.41301      0.99970     1.56312    0.02418     2.58699
      O   13   -0.28359      0.99987     3.27592    0.00780     4.28359
      O   14   -0.32916      0.99987     3.32280    0.00649     4.32916
      H   15    0.09602      0.00000     0.40318    0.00079     0.40398
      H   16    0.10482      0.00000     0.39412    0.00106     0.39518
      H   17    0.10487      0.00000     0.39407    0.00106     0.39513
      H   18    0.10454      0.00000     0.39441    0.00105     0.39546
      H   19    0.22414      0.00000     0.27408    0.00178     0.27586
      H   20    0.22969      0.00000     0.26729    0.00302     0.27031
 =======================================================================
   * Total *    0.00000     17.99496    35.81430    0.19075    54.00000

 Normal termination of Gaussian 16 at Thu Dec 10 09:59:46 2020.
