 Gaussian 16, Revision A.03,

 -----------------------------------------------------------
 # opt freq B3LYP/6-31G(d) empiricaldispersion=gd3bj scf=xqc
 -----------------------------------------------------------

 -----------------------------
 CID_23568025_JID_856_neutraal
 -----------------------------
 Symbolic Z-matrix:
 Charge =  0 Multiplicity = 1

 SCF Done:  E(RB3LYP) =  -876.919110747     A.U. after   14 cycles
 SCF Done:  E(RB3LYP) =  -876.923898010     A.U. after   12 cycles
 SCF Done:  E(RB3LYP) =  -876.924927042     A.U. after   12 cycles
 SCF Done:  E(RB3LYP) =  -876.925158701     A.U. after   12 cycles
 SCF Done:  E(RB3LYP) =  -876.925234984     A.U. after   12 cycles
 SCF Done:  E(RB3LYP) =  -876.925467642     A.U. after   11 cycles
 SCF Done:  E(RB3LYP) =  -876.925543040     A.U. after   12 cycles
 SCF Done:  E(RB3LYP) =  -876.925566150     A.U. after   11 cycles
 SCF Done:  E(RB3LYP) =  -876.925574434     A.U. after   10 cycles
 SCF Done:  E(RB3LYP) =  -876.925584393     A.U. after   11 cycles
 SCF Done:  E(RB3LYP) =  -876.925825057     A.U. after    8 cycles
 SCF Done:  E(RB3LYP) =  -876.925826121     A.U. after    9 cycles
 SCF Done:  E(RB3LYP) =  -876.925826624     A.U. after    8 cycles
 SCF Done:  E(RB3LYP) =  -876.925826922     A.U. after    8 cycles
 SCF Done:  E(RB3LYP) =  -876.925827096     A.U. after    8 cycles
 SCF Done:  E(RB3LYP) =  -876.925827128     A.U. after    7 cycles
 Optimization completed.
    -- Stationary point found.
 Normal termination of Gaussian 16 at Tue Dec  8 13:23:24 2020.

 --------------------------------------------------------------------
 #N Geom=AllCheck Guess=TCheck SCRF=Check GenChk RB3LYP/6-31G(d) Freq
 --------------------------------------------------------------------

 Structure from the checkpoint file:  "JID_856.chk"
 -----------------------------
 CID_23568025_JID_856_neutraal
 -----------------------------
 Charge =  0 Multiplicity = 1

 SCF Done:  E(RB3LYP) =  -876.925827128     A.U. after    1 cycles

  Exact polarizability: 100.863  -2.174  78.280  -0.767  -1.775  76.828
 Approx polarizability: 121.410  -2.337 114.280   1.564  -2.571 125.459

                      1                      2                      3
                      A                      A                      A
 Frequencies --     22.3564                49.0398                67.5822
 Red. masses --      4.5556                 2.7173                 3.0849
 Frc consts  --      0.0013                 0.0039                 0.0083
 IR Inten    --      2.7651                 2.2932                 2.1434

                      4                      5                      6
                      A                      A                      A
 Frequencies --     87.4937               146.4291               167.0470
 Red. masses --      3.7347                 1.4331                 1.7205
 Frc consts  --      0.0168                 0.0181                 0.0283
 IR Inten    --      1.8957                 1.8631                 2.8157

                      7                      8                      9
                      A                      A                      A
 Frequencies --    196.4311               242.4320               266.1663
 Red. masses --      2.3525                 2.5768                 3.0495
 Frc consts  --      0.0535                 0.0892                 0.1273
 IR Inten    --      3.5383                 2.8870                 2.7999

                     10                     11                     12
                      A                      A                      A
 Frequencies --    304.2449               318.0475               326.9855
 Red. masses --      1.9241                 3.4064                 2.0995
 Frc consts  --      0.1049                 0.2030                 0.1323
 IR Inten    --      1.6015                 0.5807                 1.3575

                     13                     14                     15
                      A                      A                      A
 Frequencies --    418.2542               442.1671               456.9219
 Red. masses --      4.8082                 5.3175                 2.9271
 Frc consts  --      0.4956                 0.6125                 0.3601
 IR Inten    --     32.8666                 8.7035                18.8174

                     16                     17                     18
                      A                      A                      A
 Frequencies --    488.0996               534.0677               624.0417
 Red. masses --      2.4305                 3.8508                 2.5942
 Frc consts  --      0.3412                 0.6471                 0.5952
 IR Inten    --     24.8879                27.7527               143.0025

                     19                     20                     21
                      A                      A                      A
 Frequencies --    671.1688               802.3829               829.7669
 Red. masses --      3.8239                 2.0185                 1.2189
 Frc consts  --      1.0149                 0.7657                 0.4945
 IR Inten    --     29.5500                29.1626                 6.5260

                     22                     23                     24
                      A                      A                      A
 Frequencies --    845.1442               895.3165               976.0964
 Red. masses --      2.2348                 2.1800                 2.0532
 Frc consts  --      0.9405                 1.0296                 1.1526
 IR Inten    --     90.0065                28.5621                 6.8505

                     25                     26                     27
                      A                      A                      A
 Frequencies --   1016.0439              1048.8115              1070.0778
 Red. masses --      2.4828                 2.1739                 3.4731
 Frc consts  --      1.5102                 1.4089                 2.3432
 IR Inten    --     27.0151                13.7149                63.9820

                     28                     29                     30
                      A                      A                      A
 Frequencies --   1100.6190              1116.0391              1151.4573
 Red. masses --      3.9390                 2.9771                 1.3994
 Frc consts  --      2.8113                 2.1848                 1.0932
 IR Inten    --     15.8607                54.2714                 1.1906

                     31                     32                     33
                      A                      A                      A
 Frequencies --   1162.9182              1166.9997              1193.8534
 Red. masses --      1.9771                 2.0118                 1.3071
 Frc consts  --      1.5754                 1.6143                 1.0976
 IR Inten    --     59.1933               123.4834                12.7760

                     34                     35                     36
                      A                      A                      A
 Frequencies --   1224.4884              1304.2176              1315.9068
 Red. masses --      1.8058                 1.4377                 5.1763
 Frc consts  --      1.5952                 1.4409                 5.2810
 IR Inten    --     50.8774                26.3207               138.4000

                     37                     38                     39
                      A                      A                      A
 Frequencies --   1346.0786              1367.1319              1412.2689
 Red. masses --      1.1490                 1.1385                 1.2039
 Frc consts  --      1.2266                 1.2538                 1.4148
 IR Inten    --     12.6562                 2.1516                11.6162

                     40                     41                     42
                      A                      A                      A
 Frequencies --   1429.4313              1437.9384              1449.7676
 Red. masses --      1.2632                 1.2463                 1.2957
 Frc consts  --      1.5207                 1.5183                 1.6045
 IR Inten    --     13.0265                38.0413                14.8924

                     43                     44                     45
                      A                      A                      A
 Frequencies --   1467.9950              1480.0283              1515.1352
 Red. masses --      1.0902                 1.1522                 1.0614
 Frc consts  --      1.3843                 1.4871                 1.4356
 IR Inten    --     11.9998                 1.5575                 5.0981

                     46                     47                     48
                      A                      A                      A
 Frequencies --   1517.2452              1529.0152              1539.3692
 Red. masses --      1.0426                 1.0540                 1.0447
 Frc consts  --      1.4141                 1.4518                 1.4585
 IR Inten    --      6.5587                 1.8649                15.9802

                     49                     50                     51
                      A                      A                      A
 Frequencies --   1540.9805              1554.6071              3052.9990
 Red. masses --      1.0610                 1.0853                 1.0443
 Frc consts  --      1.4844                 1.5453                 5.7350
 IR Inten    --      2.5998                 1.8286                15.5320

                     52                     53                     54
                      A                      A                      A
 Frequencies --   3060.0537              3062.2324              3072.0445
 Red. masses --      1.0509                 1.0342                 1.0596
 Frc consts  --      5.7976                 5.7140                 5.8915
 IR Inten    --     40.7533                31.1546                22.3788

                     55                     56                     57
                      A                      A                      A
 Frequencies --   3094.5258              3106.8620              3111.0510
 Red. masses --      1.0724                 1.0898                 1.1061
 Frc consts  --      6.0505                 6.1978                 6.3077
 IR Inten    --      4.2270                16.7918                 8.9100

                     58                     59                     60
                      A                      A                      A
 Frequencies --   3123.8312              3135.0065              3139.5034
 Red. masses --      1.1013                 1.1038                 1.1042
 Frc consts  --      6.3321                 6.3917                 6.4126
 IR Inten    --     25.6332                17.0696                33.1842

                     61                     62                     63
                      A                      A                      A
 Frequencies --   3153.8409              3162.7807              3525.7752
 Red. masses --      1.1048                 1.1082                 1.0751
 Frc consts  --      6.4748                 6.5313                 7.8745
 IR Inten    --     14.4064                 1.9354                28.5246

 - Thermochemistry -
 -------------------
 Temperature   298.150 Kelvin.  Pressure   1.00000 Atm.
 Atom     1 has atomic number  6 and mass  12.00000

 Molecular mass:   167.06162 amu.
 Principal axes and moments of inertia in atomic units:
                           1         2         3
     Eigenvalues --   851.909992638.936302760.42438
           X            0.99959  -0.02482  -0.01400
           Y            0.02402   0.99819  -0.05520
           Z            0.01534   0.05485   0.99838
 This molecule is an asymmetric top.
 Rotational symmetry number  1.
 Warning -- assumption of classical behavior for rotation
           may cause significant error
 Rotational temperatures (Kelvin)      0.10167     0.03282     0.03138
 Rotational constants (GHZ):           2.11846     0.68389     0.65379
 Zero-point vibrational energy     511024.4 (Joules/Mol)
                                  122.13777 (Kcal/Mol)
 Warning -- explicit consideration of  17 degrees of freedom as
           vibrations may cause significant error
 Vibrational temperatures:     32.17    70.56    97.24   125.88   210.68
          (Kelvin)            240.34   282.62   348.81   382.95   437.74
                              457.60   470.46   601.77   636.18   657.41
                              702.27   768.40   897.86   965.66  1154.45
                             1193.85  1215.97  1288.16  1404.39  1461.86
                             1509.01  1539.60  1583.55  1605.73  1656.69
                             1673.18  1679.05  1717.69  1761.77  1876.48
                             1893.30  1936.71  1967.00  2031.94  2056.63
                             2068.87  2085.89  2112.12  2129.43  2179.94
                             2182.98  2199.91  2214.81  2217.13  2236.73
                             4392.58  4402.73  4405.87  4419.99  4452.33
                             4470.08  4476.11  4494.50  4510.58  4517.05
                             4537.67  4550.54  5072.80

 Zero-point correction=                           0.194639 (Hartree/Particle)
 Thermal correction to Energy=                    0.206922
 Thermal correction to Enthalpy=                  0.207866
 Thermal correction to Gibbs Free Energy=         0.154862
 Sum of electronic and zero-point Energies=           -876.731188
 Sum of electronic and thermal Energies=              -876.718905
 Sum of electronic and thermal Enthalpies=            -876.717961
 Sum of electronic and thermal Free Energies=         -876.770965

                     E (Thermal)             CV                S
                      KCal/Mol        Cal/Mol-Kelvin    Cal/Mol-Kelvin
 Total                  129.846             43.247            111.557
 Electronic               0.000              0.000              0.000
 Translational            0.889              2.981             41.248
 Rotational               0.889              2.981             30.207
 Vibrational            128.068             37.286             40.102
 Vibration     1          0.593              1.985              6.413
 Vibration     2          0.595              1.978              4.856
 Vibration     3          0.598              1.970              4.223
 Vibration     4          0.601              1.958              3.715
 Vibration     5          0.617              1.907              2.718
 Vibration     6          0.624              1.883              2.468
 Vibration     7          0.636              1.845              2.166
 Vibration     8          0.659              1.775              1.785
 Vibration     9          0.672              1.735              1.621
 Vibration    10          0.695              1.666              1.393
 Vibration    11          0.704              1.639              1.320
 Vibration    12          0.711              1.622              1.275
 Vibration    13          0.781              1.431              0.898
 Vibration    14          0.802              1.378              0.820
 Vibration    15          0.815              1.346              0.775
 Vibration    16          0.844              1.276              0.689
 Vibration    17          0.889              1.175              0.578

 Optimization completed.
    -- Stationary point found.
 Normal termination of Gaussian 16 at Tue Dec  8 13:29:14 2020.

 ----------------------------------------------------------------------
 # B3LYP/6-311++G(d,p) empiricaldispersion=gd3bj scf=xqc pop=npa geom=c
 heck
 ----------------------------------------------------------------------

 -------------------------------------
 CID_23568025_JID_856_Energie_neutraal
 -------------------------------------
 Structure from the checkpoint file:  "JID_856.chk"
 Charge =  0 Multiplicity = 1

 SCF Done:  E(RB3LYP) =  -877.101697340     A.U. after   14 cycles
 Normal termination of Gaussian 16 at Tue Dec  8 13:32:31 2020.

 ----------------------------------------------------------------------
 # B3LYP/6-311++G(d,p) empiricaldispersion=gd3bj scf=xqc pop=npa geom=c
 heck
 ----------------------------------------------------------------------

 -----------------------------------
 CID_23568025_JID_856_Energie_kation
 -----------------------------------
 Structure from the checkpoint file:  "JID_856.chk"
 Charge =  1 Multiplicity = 2

 SCF Done:  E(UB3LYP) =  -876.762705649     A.U. after   23 cycles
 Normal termination of Gaussian 16 at Tue Dec  8 13:42:13 2020.
 Gaussian 16:  ES64L-G16RevA.03 25-Dec-2016

 ----------------------------------------------------------------------
 # B3LYP/6-311++G(d,p) empiricaldispersion=gd3bj scf=xqc pop=npa geom=c
 heck
 ----------------------------------------------------------------------

 ----------------------------------
 CID_23568025_JID_856_Energie_anion
 ----------------------------------
 Structure from the checkpoint file:  "JID_856.chk"
 Charge = -1 Multiplicity = 2

                         Standard orientation:
 ---------------------------------------------------------------------
 Center     Atomic      Atomic             Coordinates (Angstroms)
 Number     Number       Type             X           Y           Z
 ---------------------------------------------------------------------
      1          6           0       -2.860587    1.266696    0.192530
      2          6           0       -2.478012    0.281557   -0.907388
      3          8           0       -2.354525   -1.076807   -0.465440
      4          6           0       -1.423885   -1.339977    0.554052
      5          6           0        0.054799   -1.346179    0.120566
      6         16           0        0.893355    0.261822    0.256224
      7          8           0        0.676566    1.042448   -0.969802
      8          8           0        0.574911    0.826025    1.575697
      9          7           0        2.520669   -0.215542    0.345792
     10          6           0        3.299395   -0.131919   -0.897421
     11          1           0       -3.744289    0.915947    0.737082
     12          1           0       -3.095540    2.237218   -0.258599
     13          1           0       -2.046447    1.430065    0.905348
     14          1           0       -3.268265    0.235767   -1.662723
     15          1           0       -1.555536    0.605897   -1.401810
     16          1           0       -1.543658   -0.677360    1.420420
     17          1           0       -1.651075   -2.357715    0.887321
     18          1           0        0.630581   -1.994705    0.785112
     19          1           0        0.163606   -1.692420   -0.910593
     20          1           0        2.929957    0.309788    1.116510
     21          1           0        3.322012    0.873230   -1.332041
     22          1           0        4.316674   -0.460665   -0.669641
     23          1           0        2.877748   -0.819816   -1.634192
 ---------------------------------------------------------------------

 SCF Done:  E(UB3LYP) =  -877.089213671     A.U. after   24 cycles

 The electronic state is 2-A.
 Alpha  occ. eigenvalues --  -88.95727 -19.03052 -19.01649 -19.01592 -14.23686
 Alpha  occ. eigenvalues --  -10.13127 -10.11757 -10.10705 -10.09443 -10.06918
 Alpha  occ. eigenvalues --   -8.01992  -5.98265  -5.98249  -5.98042  -1.01622
 Alpha  occ. eigenvalues --   -0.94208  -0.90792  -0.81726  -0.69874  -0.65852
 Alpha  occ. eigenvalues --   -0.60715  -0.57410  -0.51839  -0.47870  -0.43326
 Alpha  occ. eigenvalues --   -0.40989  -0.40455  -0.38428  -0.38246  -0.35554
 Alpha  occ. eigenvalues --   -0.34549  -0.33520  -0.32607  -0.31152  -0.29877
 Alpha  occ. eigenvalues --   -0.29414  -0.28190  -0.27054  -0.24725  -0.22349
 Alpha  occ. eigenvalues --   -0.21803  -0.21001  -0.20336  -0.17629  -0.16289
 Alpha  occ. eigenvalues --    0.04629
 Alpha virt. eigenvalues --    0.06807   0.07581   0.08576   0.09531   0.09959
 Alpha virt. eigenvalues --    0.10591   0.10779   0.11725   0.12340   0.13449
 Alpha virt. eigenvalues --    0.13825   0.14744   0.15061   0.15712   0.15876

  Beta  occ. eigenvalues --  -88.95724 -19.03050 -19.01638 -19.01574 -14.23658
  Beta  occ. eigenvalues --  -10.13107 -10.11749 -10.10661 -10.09376 -10.06910
  Beta  occ. eigenvalues --   -8.01988  -5.98259  -5.98247  -5.98040  -1.01582
  Beta  occ. eigenvalues --   -0.94200  -0.90753  -0.81672  -0.69822  -0.65826
  Beta  occ. eigenvalues --   -0.60641  -0.57326  -0.51790  -0.47804  -0.43263
  Beta  occ. eigenvalues --   -0.40968  -0.40410  -0.38368  -0.38216  -0.35514
  Beta  occ. eigenvalues --   -0.34505  -0.33491  -0.32538  -0.31110  -0.29848
  Beta  occ. eigenvalues --   -0.29344  -0.28164  -0.27035  -0.24694  -0.22333
  Beta  occ. eigenvalues --   -0.21788  -0.20973  -0.20301  -0.17605  -0.16263
  Beta virt. eigenvalues --    0.06854   0.07886   0.08486   0.09001   0.10117
  Beta virt. eigenvalues --    0.10372   0.11271   0.11414   0.12117   0.12880
  Beta virt. eigenvalues --    0.13443   0.14280   0.14947   0.15224   0.15752

 Mulliken charges and spin densities:
               1          2
     1  C   -0.139345  -0.272819
     2  C   -0.211225  -0.116321
     3  O   -0.092681   0.017867
     4  C    0.151333  -0.522084
     5  C   -0.150235  -0.351377
     6  S    1.053755  -0.851282
     7  O   -0.184893   0.055311
     8  O   -0.284737   0.012533
     9  N   -0.619977   0.346813
    10  C    1.606299  -1.958549
    11  H    0.049849   0.093861
    12  H    0.073448   0.040095
    13  H    0.154411   0.034426
    14  H    0.021815   0.140189
    15  H    0.117836   0.078635
    16  H    0.192094  -0.027607
    17  H   -0.526668   0.731767
    18  H   -0.346967   0.605518
    19  H   -0.056668   0.314212
    20  H   -0.173656   0.475833
    21  H   -0.180521   0.352917
    22  H   -0.989619   1.159339
    23  H   -0.463648   0.640725
 Sum of Mulliken charges =  -1.00000   1.00000

 Dipole moment (field-independent basis, Debye):
    X=             -7.4081    Y=              3.2958    Z=              0.0753  Tot=              8.1085
 Quadrupole moment (field-independent basis, Debye-Ang):
   XX=           -139.3018   YY=           -108.4558   ZZ=            -99.8656
   XY=              1.1402   XZ=              1.5853   YZ=              0.5390

 Summary of Natural Population Analysis:

                                       Natural Population
                Natural  -----------------------------------------------
    Atom  No    Charge         Core      Valence    Rydberg      Total
 -----------------------------------------------------------------------
      C    1   -0.30728      0.99966     2.30347    0.00414     3.30728
      C    2   -0.01806      0.99958     2.00747    0.01101     3.01806
      O    3   -0.30127      0.99989     3.29146    0.00992     4.30127
      C    4   -0.02161      0.99956     2.00610    0.01594     3.02161
      C    5   -0.30235      0.99957     2.28951    0.01327     3.30235
      S    6    1.08509      4.99931     1.81784    0.09776     6.91491
      O    7   -0.46605      0.99990     3.46012    0.00603     4.46605
      O    8   -0.47046      0.99991     3.46457    0.00598     4.47046
      N    9   -0.43359      0.99978     2.91942    0.01439     3.93359
      C   10   -0.18272      0.99965     2.17282    0.01026     3.18272
      H   11    0.09582      0.00000     0.40300    0.00118     0.40418
      H   12    0.10073      0.00000     0.39831    0.00097     0.39927
      H   13    0.10710      0.00000     0.39162    0.00127     0.39290
      H   14    0.08439      0.00000     0.41421    0.00141     0.41561
      H   15    0.09469      0.00000     0.40367    0.00164     0.40531
      H   16    0.09120      0.00000     0.40723    0.00157     0.40880
      H   17    0.09875      0.00000     0.39937    0.00189     0.40125
      H   18    0.12692      0.00000     0.37012    0.00296     0.37308
      H   19    0.11965      0.00000     0.37863    0.00172     0.38035
      H   20    0.19895      0.00000     0.29710    0.00395     0.30105
      H   21    0.09454      0.00000     0.40366    0.00180     0.40546
      H   22    0.10679      0.00000     0.38715    0.00606     0.39321
      H   23    0.09879      0.00000     0.39913    0.00208     0.40121
 =======================================================================
   * Total *    0.00000     13.99681    30.78597    0.21722    45.00000

 Normal termination of Gaussian 16 at Tue Dec  8 13:52:32 2020.
