 Gaussian 16, Revision A.03,

 -----------------------------------------------------------
 # opt freq B3LYP/6-31G(d) empiricaldispersion=gd3bj scf=xqc
 -----------------------------------------------------------

 --------------------------------
 CID_136917670_JID_10820_neutraal
 --------------------------------
 Symbolic Z-matrix:
 Charge =  0 Multiplicity = 1

 SCF Done:  E(RB3LYP) =  -953.593860394     A.U. after   15 cycles
 SCF Done:  E(RB3LYP) =  -953.599404716     A.U. after   13 cycles
 SCF Done:  E(RB3LYP) =  -953.601687111     A.U. after   13 cycles
 SCF Done:  E(RB3LYP) =  -953.604792848     A.U. after   12 cycles
 SCF Done:  E(RB3LYP) =  -953.604100036     A.U. after   12 cycles
 SCF Done:  E(RB3LYP) =  -953.605355481     A.U. after   12 cycles
 SCF Done:  E(RB3LYP) =  -953.605958947     A.U. after   12 cycles
 SCF Done:  E(RB3LYP) =  -953.606338586     A.U. after   12 cycles
 SCF Done:  E(RB3LYP) =  -953.606283606     A.U. after   13 cycles
 SCF Done:  E(RB3LYP) =  -953.607098392     A.U. after   12 cycles
 SCF Done:  E(RB3LYP) =  -953.608048021     A.U. after    8 cycles
 SCF Done:  E(RB3LYP) =  -953.608047587     A.U. after   10 cycles
 SCF Done:  E(RB3LYP) =  -953.608048435     A.U. after   10 cycles
 SCF Done:  E(RB3LYP) =  -953.608048554     A.U. after    7 cycles
 SCF Done:  E(RB3LYP) =  -953.608048588     A.U. after    7 cycles
 Optimization completed.
    -- Stationary point found.
 Normal termination of Gaussian 16 at Sun Dec 13 20:59:05 2020.

 --------------------------------------------------------------------
 #N Geom=AllCheck Guess=TCheck SCRF=Check GenChk RB3LYP/6-31G(d) Freq
 --------------------------------------------------------------------

 Structure from the checkpoint file:  "JID_10820.chk"
 --------------------------------
 CID_136917670_JID_10820_neutraal
 --------------------------------
 Charge =  0 Multiplicity = 1

 SCF Done:  E(RB3LYP) =  -953.608048589     A.U. after    1 cycles

  Exact polarizability: 261.384  18.539 198.448  -6.209  14.025  90.713
 Approx polarizability: 375.907  41.079 318.908 -14.436  31.331 140.127

                      1                      2                      3
                      A                      A                      A
 Frequencies --     27.4784                42.7526                50.1798
 Red. masses --      4.3603                 4.7247                 3.4777
 Frc consts  --      0.0019                 0.0051                 0.0052
 IR Inten    --      0.3876                 4.5871                 0.5787

                      4                      5                      6
                      A                      A                      A
 Frequencies --     68.6528                95.9274               103.1016
 Red. masses --      5.2168                 4.6904                 6.6293
 Frc consts  --      0.0145                 0.0254                 0.0415
 IR Inten    --      0.3495                 0.2707                 1.3132

                      7                      8                      9
                      A                      A                      A
 Frequencies --    112.2263               129.5221               157.7176
 Red. masses --      4.0707                 3.1978                 2.8452
 Frc consts  --      0.0302                 0.0316                 0.0417
 IR Inten    --      2.1749                 1.8012                 1.3377

                     10                     11                     12
                      A                      A                      A
 Frequencies --    219.7532               222.2395               238.2300
 Red. masses --      2.1388                 3.1299                 1.8782
 Frc consts  --      0.0609                 0.0911                 0.0628
 IR Inten    --      2.0998                 4.7461                 6.3336

                     13                     14                     15
                      A                      A                      A
 Frequencies --    255.5735               261.0878               263.4856
 Red. masses --      1.3559                 3.1810                 1.5541
 Frc consts  --      0.0522                 0.1278                 0.0636
 IR Inten    --      3.1421                 5.6936                43.5105

                     16                     17                     18
                      A                      A                      A
 Frequencies --    281.0710               297.5201               342.4387
 Red. masses --      4.6173                 3.1110                 4.3514
 Frc consts  --      0.2149                 0.1622                 0.3006
 IR Inten    --      9.6050                 4.2876                 3.4011

                     19                     20                     21
                      A                      A                      A
 Frequencies --    363.0109               397.3648               414.0594
 Red. masses --      5.6676                 4.6533                 4.0247
 Frc consts  --      0.4400                 0.4329                 0.4065
 IR Inten    --      3.0282                22.2174                 0.0856

                     22                     23                     24
                      A                      A                      A
 Frequencies --    437.5877               450.7584               468.2379
 Red. masses --      5.6705                 3.4978                 3.1751
 Frc consts  --      0.6397                 0.4187                 0.4102
 IR Inten    --     15.7964                 2.7717                 4.7453

                     25                     26                     27
                      A                      A                      A
 Frequencies --    475.3747               516.1011               586.6082
 Red. masses --      5.1780                 4.8545                 4.3116
 Frc consts  --      0.6894                 0.7618                 0.8741
 IR Inten    --      2.7971                20.0506                 2.1461

                     28                     29                     30
                      A                      A                      A
 Frequencies --    591.0512               641.1396               671.6178
 Red. masses --      6.8413                 6.6762                 1.4251
 Frc consts  --      1.4081                 1.6169                 0.3787
 IR Inten    --     16.3002                 0.1050                62.3861

                     31                     32                     33
                      A                      A                      A
 Frequencies --    682.2967               722.8707               731.3937
 Red. masses --      6.6663                 3.5396                 2.6849
 Frc consts  --      1.8285                 1.0897                 0.8462
 IR Inten    --      2.6828                22.1035                50.9703

                     34                     35                     36
                      A                      A                      A
 Frequencies --    756.0788               767.9652               774.9518
 Red. masses --      1.4489                 2.5504                 3.6583
 Frc consts  --      0.4880                 0.8862                 1.2944
 IR Inten    --     21.3952                 3.6003                 4.4918

                     37                     38                     39
                      A                      A                      A
 Frequencies --    786.0473               788.4289               812.4919
 Red. masses --      2.3904                 1.6816                 2.0847
 Frc consts  --      0.8702                 0.6159                 0.8108
 IR Inten    --     92.8258                38.6397                 1.9773

                     40                     41                     42
                      A                      A                      A
 Frequencies --    835.2223               859.0134               880.4297
 Red. masses --      2.3231                 1.4953                 3.0988
 Frc consts  --      0.9548                 0.6501                 1.4153
 IR Inten    --      2.9379                 0.2126                16.8722

                     43                     44                     45
                      A                      A                      A
 Frequencies --    890.1466               917.9993               922.4754
 Red. masses --      3.0858                 5.5010                 1.3514
 Frc consts  --      1.4406                 2.7314                 0.6775
 IR Inten    --     15.1580                 6.5891                 1.2714

                     46                     47                     48
                      A                      A                      A
 Frequencies --    950.0995               965.6015               977.1528
 Red. masses --      4.0290                 1.2230                 3.2222
 Frc consts  --      2.1428                 0.6719                 1.8127
 IR Inten    --      5.5179                 0.0037                 2.1450

                     49                     50                     51
                      A                      A                      A
 Frequencies --   1034.2325              1045.3981              1051.1869
 Red. masses --      2.4092                 2.5018                 2.8013
 Frc consts  --      1.5183                 1.6109                 1.8238
 IR Inten    --      5.2473                 5.7310                15.8242

                     52                     53                     54
                      A                      A                      A
 Frequencies --   1101.1697              1114.2563              1117.7170
 Red. masses --      1.7538                 3.6839                 2.1806
 Frc consts  --      1.2529                 2.6948                 1.6050
 IR Inten    --     27.6772                35.7584               194.4303

                     55                     56                     57
                      A                      A                      A
 Frequencies --   1135.3908              1146.7089              1182.4912
 Red. masses --      2.1046                 1.6011                 1.1357
 Frc consts  --      1.5985                 1.2404                 0.9357
 IR Inten    --     70.4908                37.8913                 3.6294

                     58                     59                     60
                      A                      A                      A
 Frequencies --   1198.2974              1214.7914              1245.2673
 Red. masses --      1.9557                 1.9000                 2.0095
 Frc consts  --      1.6546                 1.6520                 1.8360
 IR Inten    --    201.4550               157.6205               193.4111

                     61                     62                     63
                      A                      A                      A
 Frequencies --   1268.2831              1294.3457              1316.9523
 Red. masses --      2.3963                 1.8139                 2.7789
 Frc consts  --      2.2711                 1.7905                 2.8396
 IR Inten    --     21.6794               165.2329                86.9416

                     64                     65                     66
                      A                      A                      A
 Frequencies --   1325.5674              1343.5236              1347.4133
 Red. masses --      1.5666                 1.1619                 2.2014
 Frc consts  --      1.6218                 1.2357                 2.3548
 IR Inten    --     58.5930                12.4545                32.0635

                     67                     68                     69
                      A                      A                      A
 Frequencies --   1361.9271              1407.2380              1415.1864
 Red. masses --      2.2745                 1.6627                 2.6331
 Frc consts  --      2.4857                 1.9400                 3.1070
 IR Inten    --    107.8001                 7.3390                 5.0898

                     70                     71                     72
                      A                      A                      A
 Frequencies --   1419.5201              1424.6226              1442.2991
 Red. masses --      1.2645                 1.5346                 2.7801
 Frc consts  --      1.5013                 1.8351                 3.4074
 IR Inten    --     16.0828                20.9305                28.7244

                     73                     74                     75
                      A                      A                      A
 Frequencies --   1444.9789              1470.7214              1495.5275
 Red. masses --      1.5669                 2.1043                 2.5618
 Frc consts  --      1.9276                 2.6817                 3.3759
 IR Inten    --     17.9027               173.0846               161.4517

                     76                     77                     78
                      A                      A                      A
 Frequencies --   1514.4582              1515.6383              1518.5133
 Red. masses --      1.0644                 1.0618                 1.0892
 Frc consts  --      1.4384                 1.4370                 1.4797
 IR Inten    --     11.9002                 8.1026                10.0346

                     79                     80                     81
                      A                      A                      A
 Frequencies --   1531.4684              1538.1162              1538.7732
 Red. masses --      2.9543                 1.1014                 1.0584
 Frc consts  --      4.0825                 1.5352                 1.4765
 IR Inten    --     24.9648                 5.9707                 6.2091

                     82                     83                     84
                      A                      A                      A
 Frequencies --   1570.6932              1642.1337              1671.3699
 Red. masses --      4.1397                 6.4345                 5.0036
 Frc consts  --      6.0173                10.2231                 8.2353
 IR Inten    --    256.7803                 7.5927               185.8887

                     85                     86                     87
                      A                      A                      A
 Frequencies --   1679.6990              1739.4873              3044.5153
 Red. masses --      6.0704                 9.0473                 1.0409
 Frc consts  --     10.0909                16.1292                 5.6848
 IR Inten    --     36.7359               288.7035                37.6506

                     88                     89                     90
                      A                      A                      A
 Frequencies --   3061.9248              3096.4958              3108.5723
 Red. masses --      1.0365                 1.0590                 1.1002
 Frc consts  --      5.7255                 5.9825                 6.2640
 IR Inten    --     19.9161                29.3579                18.7780

                     91                     92                     93
                      A                      A                      A
 Frequencies --   3127.9717              3142.2404              3144.2912
 Red. masses --      1.1012                 1.1043                 1.0871
 Frc consts  --      6.3484                 6.4241                 6.3323
 IR Inten    --     29.1276                 6.8229                 4.1206

                     94                     95                     96
                      A                      A                      A
 Frequencies --   3161.7462              3181.9507              3184.8147
 Red. masses --      1.1074                 1.0974                 1.0853
 Frc consts  --      6.5223                 6.5463                 6.4858
 IR Inten    --     27.7939                 0.3518                 0.8402

                     97                     98                     99
                      A                      A                      A
 Frequencies --   3196.0592              3207.0252              3214.0978
 Red. masses --      1.0890                 1.0939                 1.0965
 Frc consts  --      6.5542                 6.6285                 6.6740
 IR Inten    --     10.8724                31.7636                27.2115

                    100                    101                    102
                      A                      A                      A
 Frequencies --   3457.3521              3575.0821              3774.4279
 Red. masses --      1.0634                 1.0813                 1.0667
 Frc consts  --      7.4890                 8.1428                 8.9539
 IR Inten    --    402.3089               254.8839                42.1310

 - Thermochemistry -
 -------------------
 Temperature   298.150 Kelvin.  Pressure   1.00000 Atm.
 Atom     1 has atomic number  6 and mass  12.00000

 Molecular mass:   276.11101 amu.
 Principal axes and moments of inertia in atomic units:
                           1         2         3
     Eigenvalues --  3868.453777806.81723**********
           X            0.99979  -0.01992   0.00529
           Y            0.01989   0.99979   0.00522
           Z           -0.00540  -0.00511   0.99997
 This molecule is an asymmetric top.
 Rotational symmetry number  1.
 Warning -- assumption of classical behavior for rotation
           may cause significant error
 Rotational temperatures (Kelvin)      0.02239     0.01109     0.00784
 Rotational constants (GHZ):           0.46653     0.23118     0.16328
 Zero-point vibrational energy     763854.3 (Joules/Mol)
                                  182.56556 (Kcal/Mol)
 Warning -- explicit consideration of  28 degrees of freedom as
           vibrations may cause significant error
 Vibrational temperatures:     39.54    61.51    72.20    98.78   138.02
          (Kelvin)            148.34   161.47   186.35   226.92   316.18
                              319.75   342.76   367.71   375.65   379.10
                              404.40   428.07   492.69   522.29   571.72
                              595.74   629.59   648.54   673.69   683.96
                              742.55   844.00   850.39   922.46   966.31
                              981.67  1040.05  1052.31  1087.83  1104.93
                             1114.98  1130.95  1134.37  1168.99  1201.70
                             1235.93  1266.74  1280.72  1320.80  1327.24
                             1366.98  1389.29  1405.90  1488.03  1504.09
                             1512.42  1584.34  1603.17  1608.15  1633.57
                             1649.86  1701.34  1724.08  1747.81  1791.66
                             1824.78  1862.27  1894.80  1907.20  1933.03
                             1938.63  1959.51  2024.70  2036.14  2042.37
                             2049.71  2075.15  2079.00  2116.04  2151.73
                             2178.97  2180.67  2184.80  2203.44  2213.01
                             2213.95  2259.88  2362.66  2404.73  2416.71
                             2502.73  4380.38  4405.43  4455.17  4472.54
                             4500.45  4520.98  4523.93  4549.05  4578.12
                             4582.24  4598.42  4614.19  4624.37  4974.36
                             5143.75  5430.56

 Zero-point correction=                           0.290937 (Hartree/Particle)
 Thermal correction to Energy=                    0.309370
 Thermal correction to Enthalpy=                  0.310314
 Thermal correction to Gibbs Free Energy=         0.243567
 Sum of electronic and zero-point Energies=           -953.317112
 Sum of electronic and thermal Energies=              -953.298678
 Sum of electronic and thermal Enthalpies=            -953.297734
 Sum of electronic and thermal Free Energies=         -953.364482

                     E (Thermal)             CV                S
                      KCal/Mol        Cal/Mol-Kelvin    Cal/Mol-Kelvin
 Total                  194.133             70.479            140.482
 Electronic               0.000              0.000              0.000
 Translational            0.889              2.981             42.745
 Rotational               0.889              2.981             34.167
 Vibrational            192.355             64.518             63.570
 Vibration     1          0.593              1.984              6.004
 Vibration     2          0.595              1.980              5.127
 Vibration     3          0.595              1.978              4.810
 Vibration     4          0.598              1.969              4.192
 Vibration     5          0.603              1.952              3.535
 Vibration     6          0.605              1.947              3.395
 Vibration     7          0.607              1.939              3.230
 Vibration     8          0.612              1.924              2.953
 Vibration     9          0.621              1.894              2.577
 Vibration    10          0.647              1.811              1.961
 Vibration    11          0.648              1.807              1.941
 Vibration    12          0.656              1.782              1.816
 Vibration    13          0.666              1.753              1.692
 Vibration    14          0.669              1.744              1.654
 Vibration    15          0.670              1.740              1.639
 Vibration    16          0.681              1.709              1.527
 Vibration    17          0.691              1.678              1.431
 Vibration    18          0.722              1.591              1.201
 Vibration    19          0.737              1.548              1.109
 Vibration    20          0.764              1.476              0.972
 Vibration    21          0.778              1.440              0.912
 Vibration    22          0.798              1.388              0.834
 Vibration    23          0.810              1.359              0.793
 Vibration    24          0.825              1.321              0.743
 Vibration    25          0.832              1.305              0.723
 Vibration    26          0.871              1.214              0.619
 Vibration    27          0.944              1.060              0.473
 Vibration    28          0.948              1.051              0.465

 Optimization completed.
    -- Stationary point found.
 Normal termination of Gaussian 16 at Sun Dec 13 21:15:51 2020.

 ----------------------------------------------------------------------
 # B3LYP/6-311++G(d,p) empiricaldispersion=gd3bj scf=xqc pop=npa geom=c
 heck
 ----------------------------------------------------------------------

 ----------------------------------------
 CID_136917670_JID_10820_Energie_neutraal
 ----------------------------------------
 Structure from the checkpoint file:  "JID_10820.chk"
 Charge =  0 Multiplicity = 1

 SCF Done:  E(RB3LYP) =  -953.886311468     A.U. after   16 cycles
 Normal termination of Gaussian 16 at Sun Dec 13 21:22:42 2020.

 ----------------------------------------------------------------------
 # B3LYP/6-311++G(d,p) empiricaldispersion=gd3bj scf=xqc pop=npa geom=c
 heck
 ----------------------------------------------------------------------

 --------------------------------------
 CID_136917670_JID_10820_Energie_kation
 --------------------------------------
 Structure from the checkpoint file:  "JID_10820.chk"
 Charge =  1 Multiplicity = 2

 SCF Done:  E(UB3LYP) =  -953.615516692     A.U. after   25 cycles
 Normal termination of Gaussian 16 at Sun Dec 13 21:37:01 2020.
 Gaussian 16:  ES64L-G16RevA.03 25-Dec-2016

 ----------------------------------------------------------------------
 # B3LYP/6-311++G(d,p) empiricaldispersion=gd3bj scf=xqc pop=npa geom=c
 heck
 ----------------------------------------------------------------------

 -------------------------------------
 CID_136917670_JID_10820_Energie_anion
 -------------------------------------
 Structure from the checkpoint file:  "JID_10820.chk"
 Charge = -1 Multiplicity = 2

                         Standard orientation:
 ---------------------------------------------------------------------
 Center     Atomic      Atomic             Coordinates (Angstroms)
 Number     Number       Type             X           Y           Z
 ---------------------------------------------------------------------
      1          6           0        3.817480   -2.949709    1.183092
      2          6           0        3.906543   -2.097417   -0.072684
      3          8           0        3.052827   -0.934678    0.022591
      4          6           0        1.763006   -1.108123   -0.299752
      5          8           0        1.317329   -2.207637   -0.620662
      6          6           0        0.946176    0.127871   -0.208548
      7          6           0        1.508977    1.380342   -0.265152
      8          6           0        0.738978    2.695354   -0.172827
      9          6           0        0.507399    3.080886    1.289096
     10          8           0        1.575704    3.669064   -0.837789
     11          8           0        2.823662    1.567486   -0.396013
     12          6           0       -0.509201   -0.045880   -0.114078
     13          7           0       -1.392092    0.886382    0.227175
     14          6           0       -2.629871    0.268310    0.166405
     15          6           0       -3.907223    0.778737    0.425922
     16          6           0       -4.993752   -0.080310    0.293904
     17          6           0       -4.823843   -1.426123   -0.087839
     18          6           0       -3.561879   -1.954774   -0.349084
     19          6           0       -2.476447   -1.088289   -0.216249
     20          7           0       -1.118132   -1.251598   -0.387583
     21          1           0        4.048520   -2.353195    2.071453
     22          1           0        4.536035   -3.775129    1.124567
     23          1           0        2.814550   -3.370916    1.288782
     24          1           0        4.906619   -1.678223   -0.203979
     25          1           0        3.630821   -2.669368   -0.961450
     26          1           0       -0.217492    2.606959   -0.688433
     27          1           0        1.458124    3.120361    1.832765
     28          1           0        0.021801    4.063849    1.342672
     29          1           0       -0.157456    2.352789    1.754220
     30          1           0        1.483981    4.511204   -0.368516
     31          1           0        2.913386    2.532513   -0.583391
     32          1           0       -4.033687    1.815992    0.720469
     33          1           0       -5.995922    0.290758    0.488654
     34          1           0       -5.696476   -2.066208   -0.180529
     35          1           0       -3.432406   -2.992009   -0.643254
     36          1           0       -0.583062   -2.071996   -0.649431
 ---------------------------------------------------------------------

 SCF Done:  E(UB3LYP) =  -953.890540049     A.U. after   33 cycles
 SCF Done:  E(UB3LYP) =  -953.890540049     a.u. after    1 cycles

 The electronic state is 2-A.
 Alpha  occ. eigenvalues --  -19.03298 -19.03064 -19.00902 -18.96548 -14.21936
 Alpha  occ. eigenvalues --  -14.15435 -10.15620 -10.11892 -10.10746 -10.10714
 Alpha  occ. eigenvalues --  -10.08442 -10.08100 -10.06930 -10.06695 -10.05778
 Alpha  occ. eigenvalues --  -10.05474 -10.05381 -10.04895 -10.04693 -10.03795
 Alpha  occ. eigenvalues --   -0.97523  -0.95103  -0.91279  -0.88740  -0.87562
 Alpha  occ. eigenvalues --   -0.74310  -0.72626  -0.67859  -0.66056  -0.63386
 Alpha  occ. eigenvalues --   -0.62390  -0.60015  -0.55377  -0.53384  -0.50686
 Alpha  occ. eigenvalues --   -0.48880  -0.48009  -0.45639  -0.43615  -0.41245
 Alpha  occ. eigenvalues --   -0.41078  -0.40094  -0.37465  -0.36922  -0.36142
 Alpha  occ. eigenvalues --   -0.34822  -0.34381  -0.33931  -0.32528  -0.32168
 Alpha  occ. eigenvalues --   -0.31672  -0.31275  -0.29957  -0.29747  -0.28503
 Alpha  occ. eigenvalues --   -0.27693  -0.27326  -0.26150  -0.25367  -0.25103
 Alpha  occ. eigenvalues --   -0.24221  -0.24045  -0.23295  -0.22660  -0.20307
 Alpha  occ. eigenvalues --   -0.19460  -0.18243  -0.17757  -0.15097  -0.14370
 Alpha  occ. eigenvalues --   -0.13621  -0.11037  -0.08234   0.04360
 Alpha virt. eigenvalues --    0.06744   0.07056   0.07862   0.09263   0.09442
 Alpha virt. eigenvalues --    0.09811   0.09978   0.10147   0.10629   0.11093
 Alpha virt. eigenvalues --    0.12075   0.12368   0.12684   0.13308   0.13581

  Beta  occ. eigenvalues --  -19.03282 -19.03028 -19.00654 -18.96408 -14.21908
  Beta  occ. eigenvalues --  -14.15400 -10.15438 -10.11893 -10.10799 -10.10588
  Beta  occ. eigenvalues --  -10.08463 -10.07323 -10.06938 -10.06685 -10.05719
  Beta  occ. eigenvalues --  -10.05448 -10.05383 -10.04822 -10.04606 -10.03907
  Beta  occ. eigenvalues --   -0.97355  -0.94770  -0.90975  -0.88611  -0.87394
  Beta  occ. eigenvalues --   -0.74232  -0.72534  -0.67587  -0.65830  -0.63251
  Beta  occ. eigenvalues --   -0.62270  -0.59836  -0.55086  -0.53179  -0.50501
  Beta  occ. eigenvalues --   -0.48653  -0.47912  -0.45378  -0.43499  -0.41141
  Beta  occ. eigenvalues --   -0.40959  -0.39922  -0.37307  -0.36791  -0.35889
  Beta  occ. eigenvalues --   -0.34628  -0.34108  -0.33813  -0.32430  -0.32053
  Beta  occ. eigenvalues --   -0.31565  -0.31141  -0.29845  -0.29287  -0.28301
  Beta  occ. eigenvalues --   -0.27407  -0.27068  -0.25970  -0.25073  -0.24548
  Beta  occ. eigenvalues --   -0.24021  -0.23491  -0.23068  -0.22322  -0.20089
  Beta  occ. eigenvalues --   -0.19271  -0.17996  -0.17348  -0.14953  -0.14223
  Beta  occ. eigenvalues --   -0.13134  -0.10709  -0.07205
  Beta virt. eigenvalues --    0.06897   0.07125   0.07824   0.09182   0.09384
  Beta virt. eigenvalues --    0.09676   0.09988   0.10053   0.10628   0.11057
  Beta virt. eigenvalues --    0.11927   0.12173   0.12433   0.12771   0.13340

 Mulliken charges and spin densities:
               1          2
     1  C   -0.258133  -0.107741
     2  C   -0.146318  -0.009654
     3  O    0.050227   0.003300
     4  C   -0.052556   0.031657
     5  O   -0.361197   0.047729
     6  C   -0.200069  -0.085856
     7  C   -0.147425   0.341564
     8  C   -0.461534   0.261569
     9  C    0.021759  -0.487008
    10  O   -0.294245  -0.003205
    11  O   -0.192909   0.061108
    12  C   -0.235192   0.061132
    13  N    0.008570   0.016287
    14  C    0.162278   0.019016
    15  C   -0.426273   0.069481
    16  C   -0.268031  -0.039510
    17  C   -0.191808   0.026441
    18  C   -0.662457   0.061145
    19  C    0.736794  -0.026560
    20  N   -0.196277   0.008197
    21  H    0.120112   0.013459
    22  H    0.033443   0.076028
    23  H    0.138221   0.040845
    24  H    0.115805   0.033064
    25  H    0.168312  -0.008647
    26  H    0.267614   0.010119
    27  H    0.121127   0.032174
    28  H   -0.325285   0.431968
    29  H    0.191055   0.013384
    30  H    0.176529   0.074123
    31  H    0.293277   0.016742
    32  H    0.095236   0.023870
    33  H    0.120234   0.000843
    34  H    0.125019  -0.001622
    35  H    0.103097  -0.001632
    36  H    0.371004  -0.003809
 Sum of Mulliken charges =  -1.00000   1.00000

 Dipole moment (field-independent basis, Debye):
    X=              1.5022    Y=             -1.3781    Z=              0.1205  Tot=              2.0421
 Quadrupole moment (field-independent basis, Debye-Ang):
   XX=           -160.9602   YY=           -144.7204   ZZ=           -133.2634
   XY=              1.1692   XZ=              2.0950   YZ=             -0.9072

 Summary of Natural Population Analysis:

                                       Natural Population
                Natural  -----------------------------------------------
    Atom  No    Charge         Core      Valence    Rydberg      Total
 -----------------------------------------------------------------------
      C    1   -0.29915      0.99966     2.29512    0.00437     3.29915
      C    2   -0.01647      0.99959     2.00554    0.01134     3.01647
      O    3   -0.27135      0.99985     3.26249    0.00901     4.27135
      C    4    0.42658      0.99966     1.54987    0.02389     2.57342
      O    5   -0.34446      0.99987     3.34060    0.00400     4.34446
      C    6   -0.18980      0.99939     2.18089    0.00952     3.18980
      C    7    0.35978      0.99945     1.62580    0.01497     2.64022
      C    8    0.02288      0.99955     1.96342    0.01415     2.97712
      C    9   -0.29344      0.99964     2.28770    0.00610     3.29344
      O   10   -0.38377      0.99989     3.37747    0.00641     4.38377
      O   11   -0.30848      0.99987     3.30222    0.00640     4.30848
      C   12    0.24188      0.99961     1.74341    0.01509     2.75812
      N   13   -0.29294      0.99968     2.78271    0.01056     3.79294
      C   14    0.06069      0.99947     1.92679    0.01305     2.93931
      C   15   -0.09822      0.99953     2.09005    0.00864     3.09822
      C   16   -0.12339      0.99959     2.11456    0.00925     3.12339
      C   17   -0.11551      0.99959     2.10628    0.00964     3.11551
      C   18   -0.11487      0.99954     2.10694    0.00840     3.11487
      C   19    0.06003      0.99947     1.93057    0.00993     2.93997
      N   20   -0.28320      0.99962     2.77641    0.00716     3.78320
      H   21    0.09768      0.00000     0.40099    0.00133     0.40232
      H   22    0.09301      0.00000     0.40556    0.00143     0.40699
      H   23    0.10799      0.00000     0.39059    0.00142     0.39201
      H   24    0.08433      0.00000     0.41418    0.00149     0.41567
      H   25    0.09242      0.00000     0.40583    0.00176     0.40758
      H   26    0.10965      0.00000     0.38870    0.00165     0.39035
      H   27    0.09345      0.00000     0.40538    0.00117     0.40655
      H   28    0.09219      0.00000     0.40552    0.00229     0.40781
      H   29    0.12294      0.00000     0.37583    0.00123     0.37706
      H   30    0.23186      0.00000     0.26556    0.00258     0.26814
      H   31    0.23887      0.00000     0.25778    0.00334     0.26113
      H   32    0.09774      0.00000     0.40055    0.00171     0.40226
      H   33    0.09214      0.00000     0.40687    0.00099     0.40786
      H   34    0.09159      0.00000     0.40740    0.00101     0.40841
      H   35    0.09585      0.00000     0.40269    0.00146     0.40415
      H   36    0.22180      0.00000     0.27671    0.00149     0.27820
 =======================================================================
   * Total *    0.00028     19.99252    52.77897    0.22823    72.99972

 Normal termination of Gaussian 16 at Sun Dec 13 21:55:56 2020.
