 Gaussian 16, Revision A.03,

 -----------------------------------------------------------
 # opt freq B3LYP/6-31G(d) empiricaldispersion=gd3bj scf=xqc
 -----------------------------------------------------------

 ------------------------------
 CID_146372456_JID_845_neutraal
 ------------------------------
 Symbolic Z-matrix:
 Charge =  0 Multiplicity = 1

 SCF Done:  E(RB3LYP) =  -493.396071138     A.U. after   15 cycles
 SCF Done:  E(RB3LYP) =  -493.399498903     A.U. after   12 cycles
 SCF Done:  E(RB3LYP) =  -493.399891376     A.U. after   11 cycles
 SCF Done:  E(RB3LYP) =  -493.399983704     A.U. after   12 cycles
 SCF Done:  E(RB3LYP) =  -493.400174051     A.U. after   11 cycles
 SCF Done:  E(RB3LYP) =  -493.400299590     A.U. after   11 cycles
 SCF Done:  E(RB3LYP) =  -493.400394283     A.U. after   11 cycles
 SCF Done:  E(RB3LYP) =  -493.400450535     A.U. after   11 cycles
 SCF Done:  E(RB3LYP) =  -493.400491929     A.U. after   11 cycles
 SCF Done:  E(RB3LYP) =  -493.400504325     A.U. after   10 cycles
 SCF Done:  E(RB3LYP) =  -493.400507356     A.U. after    9 cycles
 SCF Done:  E(RB3LYP) =  -493.400507616     A.U. after    8 cycles
 SCF Done:  E(RB3LYP) =  -493.400507893     A.U. after    8 cycles
 SCF Done:  E(RB3LYP) =  -493.400507908     A.U. after    7 cycles
 Optimization completed.
    -- Stationary point found.
 Normal termination of Gaussian 16 at Tue Dec  8 12:41:10 2020.

 --------------------------------------------------------------------
 #N Geom=AllCheck Guess=TCheck SCRF=Check GenChk RB3LYP/6-31G(d) Freq
 --------------------------------------------------------------------

 Structure from the checkpoint file:  "JID_845.chk"
 ------------------------------
 CID_146372456_JID_845_neutraal
 ------------------------------
 Charge =  0 Multiplicity = 1

 SCF Done:  E(RB3LYP) =  -493.400507908     A.U. after    1 cycles

  Exact polarizability:  79.114   2.177  70.740   1.040   0.338  70.078
 Approx polarizability: 105.016   6.158 108.357   6.133   2.097 111.058

                      1                      2                      3
                      A                      A                      A
 Frequencies --     57.4542                83.5367               116.3873
 Red. masses --      6.7292                 8.1331                 1.4798
 Frc consts  --      0.0131                 0.0334                 0.0118
 IR Inten    --      2.0993                 2.4960                 1.4367

                      4                      5                      6
                      A                      A                      A
 Frequencies --    128.6546               183.2792               210.0182
 Red. masses --      2.1708                 4.8696                 3.8952
 Frc consts  --      0.0212                 0.0964                 0.1012
 IR Inten    --      1.1119                 1.3203                 8.0305

                      7                      8                      9
                      A                      A                      A
 Frequencies --    227.6081               328.2936               375.6088
 Red. masses --      2.5690                 3.1567                 4.7310
 Frc consts  --      0.0784                 0.2004                 0.3933
 IR Inten    --      1.9122                 3.2336                10.6975

                     10                     11                     12
                      A                      A                      A
 Frequencies --    408.4798               476.5707               560.7092
 Red. masses --      3.7270                 5.9931                 1.2321
 Frc consts  --      0.3664                 0.8020                 0.2282
 IR Inten    --      4.0495                14.8297                96.3472

                     13                     14                     15
                      A                      A                      A
 Frequencies --    570.0594               582.6723               632.9861
 Red. masses --      5.9885                 4.8401                 4.8899
 Frc consts  --      1.1466                 0.9682                 1.1543
 IR Inten    --      8.3812                 5.2334                14.1510

                     16                     17                     18
                      A                      A                      A
 Frequencies --    679.5671               773.7710               777.6479
 Red. masses --      4.1123                 8.8742                 1.1128
 Frc consts  --      1.1189                 3.1304                 0.3965
 IR Inten    --     27.3194                43.4232                 0.7907

                     19                     20                     21
                      A                      A                      A
 Frequencies --    848.2317               934.9406               960.1831
 Red. masses --      2.2418                 6.7127                 2.7062
 Frc consts  --      0.9503                 3.4571                 1.4700
 IR Inten    --      2.5309                 4.0669                 6.9856

                     22                     23                     24
                      A                      A                      A
 Frequencies --    975.6327              1030.0358              1084.1618
 Red. masses --      1.3229                 2.0916                 1.3388
 Frc consts  --      0.7419                 1.3075                 0.9272
 IR Inten    --      4.8443                 5.5754                 9.9525

                     25                     26                     27
                      A                      A                      A
 Frequencies --   1100.7573              1148.5517              1171.4923
 Red. masses --      1.3560                 1.7405                 1.4459
 Frc consts  --      0.9681                 1.3527                 1.1691
 IR Inten    --      3.6435               248.8494                75.8512

                     28                     29                     30
                      A                      A                      A
 Frequencies --   1203.0735              1217.7041              1267.2046
 Red. masses --      1.3400                 3.4758                 2.0402
 Frc consts  --      1.1427                 3.0366                 1.9303
 IR Inten    --      1.0336                66.6254                20.0250

                     31                     32                     33
                      A                      A                      A
 Frequencies --   1311.4516              1354.1788              1442.1365
 Red. masses --      3.1540                 3.3617                 2.3623
 Frc consts  --      3.1960                 3.6321                 2.8947
 IR Inten    --      7.1739                31.7644               161.8538

                     34                     35                     36
                      A                      A                      A
 Frequencies --   1485.9021              1497.2195              1520.7413
 Red. masses --      1.0942                 1.3782                 1.1920
 Frc consts  --      1.4234                 1.8203                 1.6242
 IR Inten    --      3.6938                55.4077                 5.6199

                     37                     38                     39
                      A                      A                      A
 Frequencies --   1523.5772              1546.4478              1833.9229
 Red. masses --      1.1442                 1.1163                 9.3340
 Frc consts  --      1.5648                 1.5728                18.4961
 IR Inten    --      7.4078                52.8021               372.9926

                     40                     41                     42
                      A                      A                      A
 Frequencies --   2356.9555              3052.7402              3128.5312
 Red. masses --     12.6707                 1.0458                 1.0951
 Frc consts  --     41.4719                 5.7421                 6.3153
 IR Inten    --     15.2701                33.4091                19.2938

                     43                     44                     45
                      A                      A                      A
 Frequencies --   3164.8379              3184.0946              3197.9324
 Red. masses --      1.0540                 1.0565                 1.1001
 Frc consts  --      6.2199                 6.3109                 6.6285
 IR Inten    --      4.3333                 1.5192                 4.5409

                     46                     47                     48
                      A                      A                      A
 Frequencies --   3251.6600              3274.9504              3733.1881
 Red. masses --      1.1204                 1.1179                 1.0646
 Frc consts  --      6.9799                 7.0640                 8.7419
 IR Inten    --      1.9751                 1.8671                91.8407

 - Thermochemistry -
 -------------------
 Temperature   298.150 Kelvin.  Pressure   1.00000 Atm.
 Atom     1 has atomic number  6 and mass  12.00000

 Molecular mass:   140.05858 amu.
 Principal axes and moments of inertia in atomic units:
                           1         2         3
     Eigenvalues --   947.614471713.281051758.19259
           X            0.99874  -0.04915  -0.00997
           Y            0.04227   0.93201  -0.35996
           Z            0.02698   0.35908   0.93292
 This molecule is an asymmetric top.
 Rotational symmetry number  1.
 Warning -- assumption of classical behavior for rotation
           may cause significant error
 Rotational temperatures (Kelvin)      0.09140     0.05055     0.04926
 Rotational constants (GHZ):           1.90451     1.05338     1.02648
 Zero-point vibrational energy     370697.3 (Joules/Mol)
                                   88.59877 (Kcal/Mol)
 Warning -- explicit consideration of  14 degrees of freedom as
           vibrations may cause significant error
 Vibrational temperatures:     82.66   120.19   167.46   185.11   263.70
          (Kelvin)            302.17   327.48   472.34   540.42   587.71
                              685.68   806.74   820.19   838.34   910.73
                              977.75  1113.28  1118.86  1220.42  1345.17
                             1381.49  1403.72  1481.99  1559.87  1583.74
                             1652.51  1685.52  1730.95  1752.00  1823.22
                             1886.89  1948.36  2074.91  2137.88  2154.16
                             2188.01  2192.09  2224.99  2638.61  3391.13
                             4392.21  4501.26  4553.50  4581.20  4601.11
                             4678.41  4711.92  5371.22

 Zero-point correction=                           0.141191 (Hartree/Particle)
 Thermal correction to Energy=                    0.151289
 Thermal correction to Enthalpy=                  0.152233
 Thermal correction to Gibbs Free Energy=         0.105394
 Sum of electronic and zero-point Energies=           -493.259317
 Sum of electronic and thermal Energies=              -493.249219
 Sum of electronic and thermal Enthalpies=            -493.248274
 Sum of electronic and thermal Free Energies=         -493.295114

                     E (Thermal)             CV                S
                      KCal/Mol        Cal/Mol-Kelvin    Cal/Mol-Kelvin
 Total                   94.935             36.176             98.582
 Electronic               0.000              0.000              0.000
 Translational            0.889              2.981             40.722
 Rotational               0.889              2.981             29.436
 Vibrational             93.158             30.215             28.425
 Vibration     1          0.596              1.975              4.543
 Vibration     2          0.600              1.961              3.806
 Vibration     3          0.608              1.936              3.159
 Vibration     4          0.611              1.925              2.966
 Vibration     5          0.631              1.863              2.295
 Vibration     6          0.642              1.826              2.044
 Vibration     7          0.651              1.799              1.898
 Vibration     8          0.712              1.619              1.268
 Vibration     9          0.746              1.522              1.057
 Vibration    10          0.773              1.452              0.932
 Vibration    11          0.833              1.302              0.719
 Vibration    12          0.916              1.116              0.522
 Vibration    13          0.926              1.096              0.504
 Vibration    14          0.939              1.069              0.480

 Optimization completed.
    -- Stationary point found.
 Normal termination of Gaussian 16 at Tue Dec  8 12:49:34 2020.

 ----------------------------------------------------------------------
 # B3LYP/6-311++G(d,p) empiricaldispersion=gd3bj scf=xqc pop=npa geom=c
 heck
 ----------------------------------------------------------------------

 --------------------------------------
 CID_146372456_JID_845_Energie_neutraal
 --------------------------------------
 Structure from the checkpoint file:  "JID_845.chk"
 Charge =  0 Multiplicity = 1

 SCF Done:  E(RB3LYP) =  -493.551935006     A.U. after   14 cycles
 Normal termination of Gaussian 16 at Tue Dec  8 12:51:36 2020.

 ----------------------------------------------------------------------
 # B3LYP/6-311++G(d,p) empiricaldispersion=gd3bj scf=xqc pop=npa geom=c
 heck
 ----------------------------------------------------------------------

 ------------------------------------
 CID_146372456_JID_845_Energie_kation
 ------------------------------------
 Structure from the checkpoint file:  "JID_845.chk"
 Charge =  1 Multiplicity = 2

 SCF Done:  E(UB3LYP) =  -493.193350327     A.U. after   27 cycles
 Normal termination of Gaussian 16 at Tue Dec  8 13:04:45 2020.
 Gaussian 16:  ES64L-G16RevA.03 25-Dec-2016

 ----------------------------------------------------------------------
 # B3LYP/6-311++G(d,p) empiricaldispersion=gd3bj scf=xqc pop=npa geom=c
 heck
 ----------------------------------------------------------------------

 -----------------------------------
 CID_146372456_JID_845_Energie_anion
 -----------------------------------
 Structure from the checkpoint file:  "JID_845.chk"
 Charge = -1 Multiplicity = 2

                         Standard orientation:
 ---------------------------------------------------------------------
 Center     Atomic      Atomic             Coordinates (Angstroms)
 Number     Number       Type             X           Y           Z
 ---------------------------------------------------------------------
      1          6           0       -0.668545    1.553747   -1.096994
      2          7           0       -0.469051    0.251919   -0.458347
      3          6           0       -1.459194   -0.354411    0.283751
      4          8           0       -1.305351   -1.308622    1.021043
      5          8           0       -2.672024    0.224404    0.068263
      6          6           0        0.887546   -0.122452   -0.168475
      7          6           0        1.779658   -0.499095   -1.347035
      8          6           0        1.311900   -1.556780   -0.399452
      9          6           0        1.498607    0.609182    0.926302
     10          7           0        1.968065    1.228712    1.789797
     11          1           0       -0.492257    2.378269   -0.394600
     12          1           0       -1.684916    1.620455   -1.480142
     13          1           0        0.035951    1.643236   -1.927577
     14          1           0       -3.291193   -0.294371    0.610601
     15          1           0        1.310363   -0.442174   -2.324220
     16          1           0        2.814248   -0.174541   -1.309013
     17          1           0        2.014442   -1.976377    0.312235
     18          1           0        0.519434   -2.226321   -0.710459
 ---------------------------------------------------------------------

 SCF Done:  E(UB3LYP) =  -493.539893283     A.U. after   30 cycles

 The electronic state is 2-A.
 Alpha  occ. eigenvalues --  -19.06567 -19.00164 -14.26131 -14.21917 -10.22608
 Alpha  occ. eigenvalues --  -10.16484 -10.11801 -10.10167 -10.09940 -10.09770
 Alpha  occ. eigenvalues --   -1.01425  -0.91949  -0.87298  -0.81228  -0.77463
 Alpha  occ. eigenvalues --   -0.61826  -0.59830  -0.52895  -0.52680  -0.44625
 Alpha  occ. eigenvalues --   -0.42427  -0.40549  -0.38606  -0.37368  -0.34862
 Alpha  occ. eigenvalues --   -0.32562  -0.31433  -0.30551  -0.29328  -0.27794
 Alpha  occ. eigenvalues --   -0.27448  -0.26582  -0.23316  -0.22400  -0.20304
 Alpha  occ. eigenvalues --   -0.18823  -0.16819   0.04538
 Alpha virt. eigenvalues --    0.06661   0.07875   0.08790   0.09374   0.10574
 Alpha virt. eigenvalues --    0.11293   0.11830   0.11992   0.12295   0.12838
 Alpha virt. eigenvalues --    0.13676   0.15126   0.15557   0.16151   0.17294

  Beta  occ. eigenvalues --  -19.06514 -19.00144 -14.26124 -14.21910 -10.22600
  Beta  occ. eigenvalues --  -10.16481 -10.11801 -10.10117 -10.09925 -10.09714
  Beta  occ. eigenvalues --   -1.01359  -0.91886  -0.87276  -0.81217  -0.77437
  Beta  occ. eigenvalues --   -0.61747  -0.59787  -0.52818  -0.52595  -0.44543
  Beta  occ. eigenvalues --   -0.42352  -0.40483  -0.38565  -0.37314  -0.34824
  Beta  occ. eigenvalues --   -0.32515  -0.31384  -0.30503  -0.29288  -0.27776
  Beta  occ. eigenvalues --   -0.27425  -0.26556  -0.23282  -0.22351  -0.20280
  Beta  occ. eigenvalues --   -0.18744  -0.16801
  Beta virt. eigenvalues --    0.07334   0.08224   0.08793   0.09405   0.09973
  Beta virt. eigenvalues --    0.10868   0.11525   0.12171   0.12560   0.12938
  Beta virt. eigenvalues --    0.13399   0.13743   0.15343   0.15629   0.16183

 Mulliken charges and spin densities:
               1          2
     1  C    1.169788  -1.523313
     2  N   -0.035219   0.035203
     3  C    0.207940   0.011232
     4  O   -0.318937  -0.012919
     5  O   -0.268098   0.056959
     6  C   -2.620383   3.206029
     7  C    2.077784  -2.439837
     8  C   -0.064899  -0.251096
     9  C    1.831407  -2.435160
    10  N   -0.320731   0.079552
    11  H   -0.115788   0.305013
    12  H   -0.355654   0.530579
    13  H   -0.596130   0.752038
    14  H   -0.495004   0.820029
    15  H   -0.440200   0.629454
    16  H   -0.663908   0.872152
    17  H   -0.022979   0.204425
    18  H    0.031012   0.159659
 Sum of Mulliken charges =  -1.00000   1.00000

 Dipole moment (field-independent basis, Debye):
    X=              0.9020    Y=             -1.7606    Z=              2.1353  Tot=              2.9108
 Quadrupole moment (field-independent basis, Debye-Ang):
   XX=           -114.2569   YY=            -88.2600   ZZ=           -103.4944
   XY=             -2.0374   XZ=              3.5618   YZ=              1.0211

 Summary of Natural Population Analysis:

                                       Natural Population
                Natural  -----------------------------------------------
    Atom  No    Charge         Core      Valence    Rydberg      Total
 -----------------------------------------------------------------------
      C    1   -0.17615      0.99963     2.16816    0.00836     3.17615
      N    2   -0.26217      0.99962     2.74841    0.01414     3.76217
      C    3    0.46808      0.99968     1.50687    0.02537     2.53192
      O    4   -0.32851      0.99987     3.32283    0.00581     4.32851
      O    5   -0.34749      0.99988     3.34114    0.00647     4.34749
      C    6   -0.00119      0.99945     1.98589    0.01585     3.00119
      C    7   -0.17708      0.99960     2.16691    0.01057     3.17708
      C    8   -0.16893      0.99959     2.15946    0.00987     3.16893
      C    9    0.16124      0.99960     1.82209    0.01708     2.83876
      N   10   -0.17940      0.99979     2.66881    0.01080     3.67940
      H   11    0.09374      0.00000     0.40471    0.00156     0.40626
      H   12    0.11414      0.00000     0.38366    0.00219     0.38586
      H   13    0.10187      0.00000     0.39566    0.00247     0.39813
      H   14    0.24821      0.00000     0.23711    0.01468     0.25179
      H   15    0.11661      0.00000     0.37922    0.00417     0.38339
      H   16    0.11118      0.00000     0.38633    0.00249     0.38882
      H   17    0.10884      0.00000     0.39013    0.00103     0.39116
      H   18    0.11701      0.00000     0.38187    0.00112     0.38299
 =======================================================================
   * Total *    0.00000      9.99671    26.84926    0.15404    37.00000

 Normal termination of Gaussian 16 at Tue Dec  8 13:17:16 2020.
