 Gaussian 16, Revision A.03,

 -----------------------------------------------------------
 # opt freq B3LYP/6-31G(d) empiricaldispersion=gd3bj scf=xqc
 -----------------------------------------------------------

 -------------------------------
 CID_153961916_JID_2038_neutraal
 -------------------------------
 Symbolic Z-matrix:
 Charge =  0 Multiplicity = 1

 SCF Done:  E(RB3LYP) =  -933.542591542     A.U. after   15 cycles
 SCF Done:  E(RB3LYP) =  -933.547289032     A.U. after   14 cycles
 SCF Done:  E(RB3LYP) =  -933.547775724     A.U. after   13 cycles
 SCF Done:  E(RB3LYP) =  -933.546958672     A.U. after   12 cycles
 SCF Done:  E(RB3LYP) =  -933.548002894     A.U. after   12 cycles
 SCF Done:  E(RB3LYP) =  -933.548082351     A.U. after   12 cycles
 SCF Done:  E(RB3LYP) =  -933.548165096     A.U. after   12 cycles
 SCF Done:  E(RB3LYP) =  -933.548221372     A.U. after   11 cycles
 SCF Done:  E(RB3LYP) =  -933.548255976     A.U. after   11 cycles
 SCF Done:  E(RB3LYP) =  -933.548270216     A.U. after   11 cycles
 SCF Done:  E(RB3LYP) =  -933.548271504     A.U. after    9 cycles
 SCF Done:  E(RB3LYP) =  -933.548271990     A.U. after    9 cycles
 SCF Done:  E(RB3LYP) =  -933.548272049     A.U. after    7 cycles
 Optimization completed.
    -- Stationary point found.
 Normal termination of Gaussian 16 at Wed Dec  9 16:45:15 2020.

 --------------------------------------------------------------------
 #N Geom=AllCheck Guess=TCheck SCRF=Check GenChk RB3LYP/6-31G(d) Freq
 --------------------------------------------------------------------

 Structure from the checkpoint file:  "JID_2038.chk"
 -------------------------------
 CID_153961916_JID_2038_neutraal
 -------------------------------
 Charge =  0 Multiplicity = 1

 SCF Done:  E(RB3LYP) =  -933.548272049     A.U. after    1 cycles

  Exact polarizability: 152.003   0.335  97.954   6.969   4.917  64.100
 Approx polarizability: 197.115   1.250 172.324  16.096   2.713 101.916

                      1                      2                      3
                      A                      A                      A
 Frequencies --     29.6723                42.3750                71.3830
 Red. masses --      4.2857                 6.2849                 5.2604
 Frc consts  --      0.0022                 0.0066                 0.0158
 IR Inten    --      0.4105                 1.2711                 2.0239

                      4                      5                      6
                      A                      A                      A
 Frequencies --    102.2487               125.8412               186.7614
 Red. masses --      5.7750                 4.3229                 1.1173
 Frc consts  --      0.0356                 0.0403                 0.0230
 IR Inten    --      0.1814                 1.2251                 1.2071

                      7                      8                      9
                      A                      A                      A
 Frequencies --    236.1029               258.2189               289.7334
 Red. masses --      6.0987                 5.8787                 7.0789
 Frc consts  --      0.2003                 0.2309                 0.3501
 IR Inten    --      2.6377                 3.0308                 7.8443

                     10                     11                     12
                      A                      A                      A
 Frequencies --    337.9263               387.9848               422.6737
 Red. masses --      6.1932                 6.5980                 3.0672
 Frc consts  --      0.4167                 0.5852                 0.3228
 IR Inten    --      5.0643                 7.3523                 0.0917

                     13                     14                     15
                      A                      A                      A
 Frequencies --    511.0291               584.5553               629.3597
 Red. masses --      3.3599                 8.5635                 6.3821
 Frc consts  --      0.5170                 1.7241                 1.4894
 IR Inten    --      4.6744                 2.9233                 0.5710

                     16                     17                     18
                      A                      A                      A
 Frequencies --    696.7111               702.8853               719.5784
 Red. masses --      3.2047                 5.0525                 3.4343
 Frc consts  --      0.9165                 1.4707                 1.0477
 IR Inten    --      7.2235                 1.0879                21.1096

                     19                     20                     21
                      A                      A                      A
 Frequencies --    756.5019               770.3739               778.6410
 Red. masses --      6.0308                10.6688                 2.1591
 Frc consts  --      2.0335                 3.7305                 0.7713
 IR Inten    --     35.2893                38.6602                58.4998

                     22                     23                     24
                      A                      A                      A
 Frequencies --    839.7001               871.3771               918.8302
 Red. masses --      1.2468                 6.5554                 1.4952
 Frc consts  --      0.5180                 2.9327                 0.7437
 IR Inten    --      0.1984                11.5783                 8.7543

                     25                     26                     27
                      A                      A                      A
 Frequencies --    962.9967               989.8541               997.2513
 Red. masses --      1.3361                 1.2480                 1.3003
 Frc consts  --      0.7300                 0.7205                 0.7619
 IR Inten    --      0.0963                 0.3058                27.5001

                     28                     29                     30
                      A                      A                      A
 Frequencies --   1000.2314              1021.2426              1024.6436
 Red. masses --      1.3226                 7.7390                 6.1332
 Frc consts  --      0.7796                 4.7555                 3.7939
 IR Inten    --     17.1368               103.4243                 1.1230

                     31                     32                     33
                      A                      A                      A
 Frequencies --   1057.8735              1111.3370              1192.4632
 Red. masses --      2.0087                 1.4912                 1.1071
 Frc consts  --      1.3244                 1.0851                 0.9276
 IR Inten    --      0.0670                 6.4670                 0.0433

                     34                     35                     36
                      A                      A                      A
 Frequencies --   1201.5067              1245.2346              1259.7908
 Red. masses --      1.1735                 4.8176                 8.0508
 Frc consts  --      0.9981                 4.4013                 7.5281
 IR Inten    --      0.2605               240.9885              1260.3183

                     37                     38                     39
                      A                      A                      A
 Frequencies --   1349.0744              1366.9767              1375.7232
 Red. masses --      1.7054                 3.3625                 1.1699
 Frc consts  --      1.8287                 3.7020                 1.3046
 IR Inten    --      6.8895                10.1110                12.8348

                     40                     41                     42
                      A                      A                      A
 Frequencies --   1476.5408              1506.2987              1518.8970
 Red. masses --      1.0503                 2.2836                 1.0552
 Frc consts  --      1.3491                 3.0527                 1.4344
 IR Inten    --     10.1617                 3.7106                13.2461

                     43                     44                     45
                      A                      A                      A
 Frequencies --   1544.4110              1656.0105              1663.3721
 Red. masses --      2.2709                 5.8109                 6.1819
 Frc consts  --      3.1914                 9.3889                10.0775
 IR Inten    --     64.0423                18.7460                10.9480

                     46                     47                     48
                      A                      A                      A
 Frequencies --   1847.8814              3064.0857              3147.4895
 Red. masses --     12.7775                 1.0309                 1.1023
 Frc consts  --     25.7066                 5.7024                 6.4342
 IR Inten    --    211.3301                 9.3604                 5.9006

                     49                     50                     51
                      A                      A                      A
 Frequencies --   3177.8650              3191.8245              3201.9550
 Red. masses --      1.1082                 1.0856                 1.0900
 Frc consts  --      6.5937                 6.5162                 6.5842
 IR Inten    --      2.1214                 0.0271                14.1397

                     52                     53                     54
                      A                      A                      A
 Frequencies --   3213.6288              3224.2402              3251.0312
 Red. masses --      1.0944                 1.0955                 1.0933
 Frc consts  --      6.6594                 6.7097                 6.8081
 IR Inten    --     26.1830                 5.5148                 1.1557

 - Thermochemistry -
 -------------------
 Temperature   298.150 Kelvin.  Pressure   1.00000 Atm.
 Atom     1 has atomic number  6 and mass  12.00000

 Molecular mass:   184.01942 amu.
 Principal axes and moments of inertia in atomic units:
                           1         2         3
     Eigenvalues --   647.872855118.326635323.07309
           X            0.99995  -0.00161  -0.01031
           Y            0.00225   0.99807   0.06201
           Z            0.01019  -0.06203   0.99802
 This molecule is an asymmetric top.
 Rotational symmetry number  1.
 Warning -- assumption of classical behavior for rotation
           may cause significant error
 Rotational temperatures (Kelvin)      0.13369     0.01692     0.01627
 Rotational constants (GHZ):           2.78564     0.35260     0.33904
 Zero-point vibrational energy     389457.4 (Joules/Mol)
                                   93.08256 (Kcal/Mol)
 Warning -- explicit consideration of  14 degrees of freedom as
           vibrations may cause significant error
 Vibrational temperatures:     42.69    60.97   102.70   147.11   181.06
          (Kelvin)            268.71   339.70   371.52   416.86   486.20
                              558.22   608.13   735.26   841.04   905.51
                             1002.41  1011.30  1035.31  1088.44  1108.40
                             1120.29  1208.14  1253.72  1321.99  1385.54
                             1424.18  1434.82  1439.11  1469.34  1474.23
                             1522.04  1598.97  1715.69  1728.70  1791.61
                             1812.56  1941.02  1966.77  1979.36  2124.41
                             2167.23  2185.35  2222.06  2382.63  2393.22
                             2658.69  4408.54  4528.54  4572.24  4592.32
                             4606.90  4623.70  4638.96  4677.51

 Zero-point correction=                           0.148336 (Hartree/Particle)
 Thermal correction to Energy=                    0.159775
 Thermal correction to Enthalpy=                  0.160720
 Thermal correction to Gibbs Free Energy=         0.108830
 Sum of electronic and zero-point Energies=           -933.399936
 Sum of electronic and thermal Energies=              -933.388497
 Sum of electronic and thermal Enthalpies=            -933.387552
 Sum of electronic and thermal Free Energies=         -933.439442

                     E (Thermal)             CV                S
                      KCal/Mol        Cal/Mol-Kelvin    Cal/Mol-Kelvin
 Total                  100.261             41.170            109.211
 Electronic               0.000              0.000              0.000
 Translational            0.889              2.981             41.536
 Rotational               0.889              2.981             31.246
 Vibrational             98.483             35.209             36.429
 Vibration     1          0.593              1.984              5.851
 Vibration     2          0.595              1.980              5.145
 Vibration     3          0.598              1.968              4.115
 Vibration     4          0.604              1.947              3.411
 Vibration     5          0.611              1.927              3.009
 Vibration     6          0.632              1.858              2.260
 Vibration     7          0.655              1.785              1.832
 Vibration     8          0.667              1.749              1.674
 Vibration     9          0.686              1.693              1.476
 Vibration    10          0.718              1.600              1.222
 Vibration    11          0.756              1.496              1.008
 Vibration    12          0.785              1.421              0.883
 Vibration    13          0.866              1.226              0.631
 Vibration    14          0.942              1.065              0.477

 Optimization completed.
    -- Stationary point found.
 Normal termination of Gaussian 16 at Wed Dec  9 16:48:45 2020.

 ----------------------------------------------------------------------
 # B3LYP/6-311++G(d,p) empiricaldispersion=gd3bj scf=xqc pop=npa geom=c
 heck
 ----------------------------------------------------------------------

 ---------------------------------------
 CID_153961916_JID_2038_Energie_neutraal
 ---------------------------------------
 Structure from the checkpoint file:  "JID_2038.chk"
 Charge =  0 Multiplicity = 1

 SCF Done:  E(RB3LYP) =  -933.726826832     A.U. after   15 cycles
 Normal termination of Gaussian 16 at Wed Dec  9 16:50:01 2020.

 ----------------------------------------------------------------------
 # B3LYP/6-311++G(d,p) empiricaldispersion=gd3bj scf=xqc pop=npa geom=c
 heck
 ----------------------------------------------------------------------

 -------------------------------------
 CID_153961916_JID_2038_Energie_kation
 -------------------------------------
 Structure from the checkpoint file:  "JID_2038.chk"
 Charge =  1 Multiplicity = 2

 SCF Done:  E(UB3LYP) =  -933.410677810     A.U. after   31 cycles
 Normal termination of Gaussian 16 at Wed Dec  9 16:53:40 2020.
 Gaussian 16:  ES64L-G16RevA.03 25-Dec-2016

 ----------------------------------------------------------------------
 # B3LYP/6-311++G(d,p) empiricaldispersion=gd3bj scf=xqc pop=npa geom=c
 heck
 ----------------------------------------------------------------------

 ------------------------------------
 CID_153961916_JID_2038_Energie_anion
 ------------------------------------
 Structure from the checkpoint file:  "JID_2038.chk"
 Charge = -1 Multiplicity = 2

                         Standard orientation:
 ---------------------------------------------------------------------
 Center     Atomic      Atomic             Coordinates (Angstroms)
 Number     Number       Type             X           Y           Z
 ---------------------------------------------------------------------
      1          6           0       -3.712998    0.124801    1.342176
      2         16           0       -3.497037   -0.154883   -0.435418
      3          8           0       -1.979166    0.615085   -0.678733
      4          6           0       -0.884900   -0.037748   -0.204006
      5          8           0       -0.872080   -1.021186    0.489141
      6          8           0        0.174104    0.668377   -0.649899
      7          6           0        1.467822    0.282974   -0.277473
      8          6           0        2.315156    1.314828    0.113032
      9          6           0        3.642149    1.020834    0.424847
     10          6           0        4.106740   -0.292754    0.345958
     11          6           0        3.240223   -1.312285   -0.051627
     12          6           0        1.911406   -1.033516   -0.371821
     13          1           0       -4.715142   -0.250115    1.578624
     14          1           0       -3.667791    1.191710    1.574375
     15          1           0       -2.968632   -0.435378    1.910299
     16          1           0        1.928214    2.327039    0.163489
     17          1           0        4.310177    1.820748    0.730112
     18          1           0        5.139541   -0.521117    0.591299
     19          1           0        3.597252   -2.335824   -0.117134
     20          1           0        1.232510   -1.819921   -0.674974
 ---------------------------------------------------------------------

 SCF Done:  E(UB3LYP) =  -933.719638165     A.U. after   33 cycles
 SCF Done:  E(UB3LYP) =  -933.719638165     a.u. after    1 cycles

 The electronic state is 2-A.
 Alpha  occ. eigenvalues --  -88.74779 -19.07909 -19.05316 -19.00825 -10.23780
 Alpha  occ. eigenvalues --  -10.14083 -10.08366 -10.08264 -10.08205 -10.08119
 Alpha  occ. eigenvalues --  -10.07820 -10.07658  -7.83048  -5.79772  -5.79054
 Alpha  occ. eigenvalues --   -5.78202  -1.03923  -0.95034  -0.91963  -0.76461
 Alpha  occ. eigenvalues --   -0.67511  -0.65890  -0.64900  -0.57321  -0.52764
 Alpha  occ. eigenvalues --   -0.51362  -0.47036  -0.41677  -0.41198  -0.39182
 Alpha  occ. eigenvalues --   -0.38996  -0.36038  -0.35087  -0.33483  -0.33049
 Alpha  occ. eigenvalues --   -0.32153  -0.30813  -0.29105  -0.27293  -0.27012
 Alpha  occ. eigenvalues --   -0.26093  -0.25448  -0.22761  -0.19702  -0.19095
 Alpha  occ. eigenvalues --   -0.16381  -0.15050  -0.10944   0.04536
 Alpha virt. eigenvalues --    0.05897   0.07560   0.07748   0.07850   0.08181
 Alpha virt. eigenvalues --    0.08992   0.10226   0.11205   0.11440   0.11924
 Alpha virt. eigenvalues --    0.13366   0.13598   0.14448   0.15272   0.16459

  Beta  occ. eigenvalues --  -88.74645 -19.07894 -19.05035 -19.00819 -10.23712
  Beta  occ. eigenvalues --  -10.14029 -10.08361 -10.08250 -10.08195 -10.08108
  Beta  occ. eigenvalues --  -10.07780 -10.07607  -7.82916  -5.79397  -5.78961
  Beta  occ. eigenvalues --   -5.78118  -1.03762  -0.94793  -0.91677  -0.76391
  Beta  occ. eigenvalues --   -0.67213  -0.65831  -0.64681  -0.57044  -0.52614
  Beta  occ. eigenvalues --   -0.51129  -0.46887  -0.41377  -0.41084  -0.39051
  Beta  occ. eigenvalues --   -0.38881  -0.35894  -0.35005  -0.33429  -0.32783
  Beta  occ. eigenvalues --   -0.32040  -0.30713  -0.28873  -0.27169  -0.26823
  Beta  occ. eigenvalues --   -0.26003  -0.25001  -0.22661  -0.19447  -0.18955
  Beta  occ. eigenvalues --   -0.16306  -0.14872  -0.10565
  Beta virt. eigenvalues --    0.06902   0.07718   0.07772   0.08154   0.08268
  Beta virt. eigenvalues --    0.09209   0.09922   0.10649   0.11496   0.11709
  Beta virt. eigenvalues --    0.12111   0.13449   0.13760   0.14436   0.15203

 Mulliken charges and spin densities:
               1          2
     1  C    0.105709  -0.678461
     2  S   -0.093993   0.439529
     3  O   -0.061857  -0.006402
     4  C   -0.141204   0.031856
     5  O   -0.245091   0.002068
     6  O   -0.088153  -0.000409
     7  C    0.106787  -0.243724
     8  C   -0.493452   0.464673
     9  C    0.396639  -0.576778
    10  C    1.052552  -1.283675
    11  C   -0.237526   0.024019
    12  C   -0.056252   0.229203
    13  H   -0.287241   0.449130
    14  H   -0.025388   0.177037
    15  H    0.068322   0.118107
    16  H    0.117970   0.059928
    17  H   -0.561922   0.737301
    18  H   -0.594767   0.749253
    19  H   -0.173280   0.340912
    20  H    0.212146  -0.033567
 Sum of Mulliken charges =  -1.00000   1.00000

 Dipole moment (field-independent basis, Debye):
    X=             -0.6604    Y=              0.2699    Z=             -1.0338  Tot=              1.2561
 Quadrupole moment (field-independent basis, Debye-Ang):
   XX=           -177.8118   YY=            -97.5775   ZZ=            -96.3035
   XY=             -4.6127   XZ=             -6.7057   YZ=              2.7330

 Summary of Natural Population Analysis:

                                       Natural Population
                Natural  -----------------------------------------------
    Atom  No    Charge         Core      Valence    Rydberg      Total
 -----------------------------------------------------------------------
      C    1   -0.36981      0.99963     2.36174    0.00844     3.36981
      S    2    0.27962      4.99962     2.69550    0.02525     7.72038
      O    3   -0.31220      0.99988     3.30462    0.00769     4.31220
      C    4    0.52112      0.99972     1.45199    0.02716     2.47888
      O    5   -0.31426      0.99986     3.30962    0.00478     4.31426
      O    6   -0.27090      0.99983     3.26235    0.00872     4.27090
      C    7    0.15452      0.99934     1.83292    0.01322     2.84548
      C    8   -0.11815      0.99951     2.10851    0.01013     3.11815
      C    9   -0.09616      0.99957     2.08602    0.01057     3.09616
      C   10   -0.10287      0.99956     2.09273    0.01057     3.10287
      C   11   -0.09766      0.99957     2.08768    0.01040     3.09766
      C   12   -0.11691      0.99951     2.10789    0.00952     3.11691
      H   13    0.10842      0.00000     0.39009    0.00148     0.39158
      H   14    0.09981      0.00000     0.39863    0.00156     0.40019
      H   15    0.10752      0.00000     0.39080    0.00169     0.39248
      H   16    0.10757      0.00000     0.39144    0.00099     0.39243
      H   17    0.10315      0.00000     0.39515    0.00170     0.39685
      H   18    0.10329      0.00000     0.39456    0.00215     0.39671
      H   19    0.10111      0.00000     0.39798    0.00091     0.39889
      H   20    0.11278      0.00000     0.38633    0.00089     0.38722
 =======================================================================
   * Total *    0.00000     15.99562    31.84656    0.15782    48.00000

 Normal termination of Gaussian 16 at Wed Dec  9 16:57:20 2020.
