 Gaussian 16, Revision A.03,

 -----------------------------------------------------------
 # opt freq B3LYP/6-31G(d) empiricaldispersion=gd3bj scf=xqc
 -----------------------------------------------------------

 -------------------------------
 CID_127010716_JID_4129_neutraal
 -------------------------------
 Symbolic Z-matrix:
 Charge =  0 Multiplicity = 1

 SCF Done:  E(RB3LYP) =  -625.740288724     A.U. after   14 cycles
 SCF Done:  E(RB3LYP) =  -625.746172003     A.U. after   12 cycles
 SCF Done:  E(RB3LYP) =  -625.747452181     A.U. after   11 cycles
 SCF Done:  E(RB3LYP) =  -625.748022552     A.U. after   11 cycles
 SCF Done:  E(RB3LYP) =  -625.748264790     A.U. after   12 cycles
 SCF Done:  E(RB3LYP) =  -625.748354492     A.U. after   11 cycles
 SCF Done:  E(RB3LYP) =  -625.748401604     A.U. after   11 cycles
 SCF Done:  E(RB3LYP) =  -625.748427220     A.U. after   10 cycles
 SCF Done:  E(RB3LYP) =  -625.748448060     A.U. after   12 cycles
 SCF Done:  E(RB3LYP) =  -625.748578626     A.U. after   12 cycles
 SCF Done:  E(RB3LYP) =  -625.751123813     A.U. after   10 cycles
 SCF Done:  E(RB3LYP) =  -625.751131269     A.U. after    9 cycles
 SCF Done:  E(RB3LYP) =  -625.751134734     A.U. after    9 cycles
 SCF Done:  E(RB3LYP) =  -625.751134965     A.U. after    8 cycles
 Optimization completed.
    -- Stationary point found.

 1\1\GINC-NODE320\FOpt\RB3LYP\6-31G(d)\C9H15N5\VSC10255\10-Dec-2020\0\\
 # opt freq B3LYP/6-31G(d) empiricaldispersion=gd3bj scf=xqc\\CID_12701
 0716_JID_4129_neutraal\\0,1\C,2.0574311975,-0.0853466771,-1.625907396\
 C,0.7384273742,0.037379339,-0.9082856347\N,0.1405374467,1.2413858872,-
 0.9624547752\C,-1.0337263736,1.3776749266,-0.3411589401\C,-1.674550763
 5,0.353890684,0.3570926845\C,-1.0591297612,-0.8954746924,0.4179508157\
 C,0.1696935348,-1.0454139397,-0.23095414\C,-1.6650322283,-2.0652464049
 ,1.1743824257\N,-3.0696762152,-1.9020844367,1.5256898362\C,-4.07752083

 Normal termination of Gaussian 16 at Thu Dec 10 09:36:21 2020.

 --------------------------------------------------------------------
 #N Geom=AllCheck Guess=TCheck SCRF=Check GenChk RB3LYP/6-31G(d) Freq
 --------------------------------------------------------------------

 Structure from the checkpoint file:  "JID_4129.chk"
 -------------------------------
 CID_127010716_JID_4129_neutraal
 -------------------------------
 Charge =  0 Multiplicity = 1

 SCF Done:  E(RB3LYP) =  -625.751134965     A.U. after    1 cycles

  Exact polarizability: 179.631  15.419 100.305  -3.439  12.096 102.720
 Approx polarizability: 241.695  20.141 155.186  -6.519  29.404 165.976

                      1                      2                      3
                      A                      A                      A
 Frequencies --     21.4169                42.4695                57.5470
 Red. masses --      3.9105                 3.6678                 1.0877
 Frc consts  --      0.0011                 0.0039                 0.0021
 IR Inten    --      0.4777                 0.9251                 0.2105

                      4                      5                      6
                      A                      A                      A
 Frequencies --     63.7277               118.2792               135.1766
 Red. masses --      4.0077                 2.4626                 1.1866
 Frc consts  --      0.0096                 0.0203                 0.0128
 IR Inten    --      2.3595                10.5717                 0.3977

                      7                      8                      9
                      A                      A                      A
 Frequencies --    161.0913               194.3743               204.5568
 Red. masses --      4.0694                 3.1570                 2.9549
 Frc consts  --      0.0622                 0.0703                 0.0728
 IR Inten    --      0.4926                 0.6882                 0.2292

                     10                     11                     12
                      A                      A                      A
 Frequencies --    217.9893               229.7462               275.5151
 Red. masses --      3.9270                 3.2837                 2.0846
 Frc consts  --      0.1099                 0.1021                 0.0932
 IR Inten    --      3.0276                 1.3659                11.1272

                     13                     14                     15
                      A                      A                      A
 Frequencies --    307.7425               329.2943               373.8227
 Red. masses --      2.2633                 1.9909                 2.5638
 Frc consts  --      0.1263                 0.1272                 0.2111
 IR Inten    --      5.5715                16.3818                 2.8701

                     16                     17                     18
                      A                      A                      A
 Frequencies --    438.7769               446.9778               495.0915
 Red. masses --      3.2398                 2.7463                 1.8699
 Frc consts  --      0.3675                 0.3233                 0.2700
 IR Inten    --      8.2637                 8.9183                27.1267

                     19                     20                     21
                      A                      A                      A
 Frequencies --    521.2234               539.4338               554.4110
 Red. masses --      2.5178                 2.7188                 4.9165
 Frc consts  --      0.4030                 0.4661                 0.8904
 IR Inten    --     15.3577                49.5618                 4.2665

                     22                     23                     24
                      A                      A                      A
 Frequencies --    619.1221               665.2529               742.2557
 Red. masses --      4.6100                 3.2524                 3.8959
 Frc consts  --      1.0411                 0.8481                 1.2646
 IR Inten    --     10.7732                29.0967                 2.9242

                     25                     26                     27
                      A                      A                      A
 Frequencies --    761.7568               782.9962               790.6063
 Red. masses --      7.2539                 5.2440                 2.7079
 Frc consts  --      2.4800                 1.8942                 0.9972
 IR Inten    --      9.0632                 1.0446               107.5333

                     28                     29                     30
                      A                      A                      A
 Frequencies --    837.6209               892.4844               905.5450
 Red. masses --      1.2832                 1.6940                 1.3608
 Frc consts  --      0.5304                 0.7950                 0.6575
 IR Inten    --      8.4266                62.2660                10.6341

                     31                     32                     33
                      A                      A                      A
 Frequencies --    932.7913               951.9713               986.0790
 Red. masses --      3.8349                 1.7777                 1.3511
 Frc consts  --      1.9659                 0.9492                 0.7741
 IR Inten    --     12.9826                52.1726                 1.5585

                     34                     35                     36
                      A                      A                      A
 Frequencies --   1009.8083              1030.0507              1040.3949
 Red. masses --      3.4334                 1.9312                 2.1671
 Frc consts  --      2.0628                 1.2072                 1.3820
 IR Inten    --      1.0786                 2.5316                 7.5162

                     37                     38                     39
                      A                      A                      A
 Frequencies --   1065.8549              1075.7504              1125.6277
 Red. masses --      3.5160                 1.5862                 1.3384
 Frc consts  --      2.3534                 1.0815                 0.9991
 IR Inten    --     57.3666                 6.9286                 2.8094

                     40                     41                     42
                      A                      A                      A
 Frequencies --   1133.3849              1138.6911              1181.1780
 Red. masses --      1.6458                 1.7424                 1.7423
 Frc consts  --      1.2456                 1.3311                 1.4322
 IR Inten    --      4.5871                29.0133                26.8719

                     43                     44                     45
                      A                      A                      A
 Frequencies --   1196.8497              1222.0643              1287.6036
 Red. masses --      1.8203                 2.2410                 4.6087
 Frc consts  --      1.5363                 1.9719                 4.5019
 IR Inten    --     13.5553                19.0154                 6.3649

                     46                     47                     48
                      A                      A                      A
 Frequencies --   1294.2294              1310.0475              1338.9833
 Red. masses --      1.2616                 4.4440                 1.4325
 Frc consts  --      1.2451                 4.4937                 1.5132
 IR Inten    --     48.9111                26.7836                15.9823

                     49                     50                     51
                      A                      A                      A
 Frequencies --   1345.3175              1381.9372              1419.6991
 Red. masses --      1.1771                 1.6898                 3.0050
 Frc consts  --      1.2552                 1.9014                 3.5685
 IR Inten    --     21.5565                72.4470               100.7141

                     52                     53                     54
                      A                      A                      A
 Frequencies --   1438.6812              1454.3981              1461.3628
 Red. masses --      1.2895                 2.2531                 1.3625
 Frc consts  --      1.5726                 2.8080                 1.7144
 IR Inten    --      3.0830                72.3037                30.5805

                     55                     56                     57
                      A                      A                      A
 Frequencies --   1476.7903              1493.8560              1505.0238
 Red. masses --      1.1875                 1.2305                 1.1278
 Frc consts  --      1.5259                 1.6179                 1.5052
 IR Inten    --      5.3143                20.5636                13.0125

                     58                     59                     60
                      A                      A                      A
 Frequencies --   1505.9313              1515.3891              1533.6520
 Red. masses --      1.0492                 1.3896                 1.1142
 Frc consts  --      1.4019                 1.8801                 1.5441
 IR Inten    --      8.4026                24.8245                 1.7388

                     61                     62                     63
                      A                      A                      A
 Frequencies --   1535.0445              1539.3535              1625.4458
 Red. masses --      1.6742                 1.0551                 6.7894
 Frc consts  --      2.3243                 1.4731                10.5688
 IR Inten    --      7.7247                 3.6444                26.6194

                     64                     65                     66
                      A                      A                      A
 Frequencies --   1659.2442              1725.3895              1750.4838
 Red. masses --      5.3533                 1.0700                 5.0312
 Frc consts  --      8.6835                 1.8767                 9.0832
 IR Inten    --    100.3070                29.3815               507.0828

                     67                     68                     69
                      A                      A                      A
 Frequencies --   2956.8307              3008.4226              3038.5352
 Red. masses --      1.0489                 1.0948                 1.0677
 Frc consts  --      5.4030                 5.8381                 5.8080
 IR Inten    --     82.5893                61.2174                26.4830

                     70                     71                     72
                      A                      A                      A
 Frequencies --   3057.9196              3102.4429              3109.4344
 Red. masses --      1.0358                 1.0962                 1.0913
 Frc consts  --      5.7069                 6.2166                 6.2168
 IR Inten    --     17.6942                 4.0161                47.0985

                     73                     74                     75
                      A                      A                      A
 Frequencies --   3118.2700              3138.7550              3167.5691
 Red. masses --      1.1008                 1.1033                 1.0896
 Frc consts  --      6.3066                 6.4042                 6.4413
 IR Inten    --     11.6307                15.7256                32.8629

                     76                     77                     78
                      A                      A                      A
 Frequencies --   3180.4309              3219.2390              3451.6161
 Red. masses --      1.0905                 1.0920                 1.0513
 Frc consts  --      6.4991                 6.6677                 7.3793
 IR Inten    --     10.0197                 7.2501                 5.1796

                     79                     80                     81
                      A                      A                      A
 Frequencies --   3553.5259              3564.2106              3634.9244
 Red. masses --      1.0798                 1.0871                 1.0757
 Frc consts  --      8.0336                 8.1367                 8.3741
 IR Inten    --     10.9058                10.0124                19.4645

 - Thermochemistry -
 -------------------
 Temperature   298.150 Kelvin.  Pressure   1.00000 Atm.
 Atom     1 has atomic number  6 and mass  12.00000

 Molecular mass:   193.13275 amu.
 Principal axes and moments of inertia in atomic units:
                           1         2         3
     Eigenvalues --  1091.682705633.822845800.02020
           X            0.99982   0.01879   0.00383
           Y           -0.01895   0.99873   0.04665
           Z           -0.00295  -0.04671   0.99890
 This molecule is an asymmetric top.
 Rotational symmetry number  1.
 Warning -- assumption of classical behavior for rotation
           may cause significant error
 Rotational temperatures (Kelvin)      0.07934     0.01537     0.01493
 Rotational constants (GHZ):           1.65317     0.32034     0.31116
 Zero-point vibrational energy     650270.8 (Joules/Mol)
                                  155.41845 (Kcal/Mol)
 Warning -- explicit consideration of  22 degrees of freedom as
           vibrations may cause significant error
 Vibrational temperatures:     30.81    61.10    82.80    91.69   170.18
          (Kelvin)            194.49   231.77   279.66   294.31   313.64
                              330.55   396.40   442.77   473.78   537.85
                              631.30   643.10   712.33   749.92   776.12
                              797.67   890.78   957.15  1067.94  1096.00
                             1126.56  1137.51  1205.15  1284.09  1302.88
                             1342.08  1369.67  1418.75  1452.89  1482.01
                             1496.90  1533.53  1547.76  1619.53  1630.69
                             1638.32  1699.45  1722.00  1758.28  1852.57
                             1862.11  1884.87  1926.50  1935.61  1988.30
                             2042.63  2069.94  2092.55  2102.58  2124.77
                             2149.33  2165.39  2166.70  2180.31  2206.58
                             2208.59  2214.79  2338.65  2387.28  2482.45
                             2518.56  4254.22  4328.45  4371.77  4399.66
                             4463.72  4473.78  4486.50  4515.97  4557.43
                             4575.93  4631.77  4966.11  5112.73  5128.10
                             5229.85

 Zero-point correction=                           0.247675 (Hartree/Particle)
 Thermal correction to Energy=                    0.262329
 Thermal correction to Enthalpy=                  0.263273
 Thermal correction to Gibbs Free Energy=         0.204552
 Sum of electronic and zero-point Energies=           -625.503460
 Sum of electronic and thermal Energies=              -625.488806
 Sum of electronic and thermal Enthalpies=            -625.487862
 Sum of electronic and thermal Free Energies=         -625.546583

                     E (Thermal)             CV                S
                      KCal/Mol        Cal/Mol-Kelvin    Cal/Mol-Kelvin
 Total                  164.614             53.460            123.589
 Electronic               0.000              0.000              0.000
 Translational            0.889              2.981             41.680
 Rotational               0.889              2.981             31.945
 Vibrational            162.836             47.499             49.964
 Vibration     1          0.593              1.985              6.498
 Vibration     2          0.595              1.980              5.140
 Vibration     3          0.596              1.974              4.540
 Vibration     4          0.597              1.972              4.338
 Vibration     5          0.608              1.934              3.128
 Vibration     6          0.613              1.918              2.871
 Vibration     7          0.622              1.890              2.537
 Vibration     8          0.635              1.848              2.186
 Vibration     9          0.640              1.833              2.092
 Vibration    10          0.646              1.814              1.976
 Vibration    11          0.652              1.796              1.881
 Vibration    12          0.677              1.719              1.561
 Vibration    13          0.698              1.659              1.374
 Vibration    14          0.712              1.617              1.264
 Vibration    15          0.745              1.526              1.064
 Vibration    16          0.799              1.386              0.830
 Vibration    17          0.806              1.368              0.805
 Vibration    18          0.851              1.261              0.671
 Vibration    19          0.876              1.203              0.607
 Vibration    20          0.894              1.163              0.567
 Vibration    21          0.910              1.130              0.535
 Vibration    22          0.979              0.992              0.418

                           ! Non-Optimized Parameters !

 1\1\GINC-NODE320\Freq\RB3LYP\6-31G(d)\C9H15N5\VSC10255\10-Dec-2020\0\\
 #N Geom=AllCheck Guess=TCheck SCRF=Check GenChk RB3LYP/6-31G(d) Freq\\
 CID_127010716_JID_4129_neutraal\\0,1\C,2.0574311975,-0.0853466771,-1.6
 25907396\C,0.7384273742,0.037379339,-0.9082856347\N,0.1405374467,1.241
 3858872,-0.9624547752\C,-1.0337263736,1.3776749266,-0.3411589401\C,-1.
 6745507635,0.353890684,0.3570926845\C,-1.0591297612,-0.8954746924,0.41
 79508157\C,0.1696935348,-1.0454139397,-0.23095414\C,-1.6650322283,-2.0
 652464049,1.1743824257\N,-3.0696762152,-1.9020844367,1.5256898362\C,-4

 Normal termination of Gaussian 16 at Thu Dec 10 09:43:42 2020.

 ----------------------------------------------------------------------
 # B3LYP/6-311++G(d,p) empiricaldispersion=gd3bj scf=xqc pop=npa geom=c
 heck
 ----------------------------------------------------------------------

 ---------------------------------------
 CID_127010716_JID_4129_Energie_neutraal
 ---------------------------------------
 Structure from the checkpoint file:  "JID_4129.chk"
 Charge =  0 Multiplicity = 1

 SCF Done:  E(RB3LYP) =  -625.934705021     A.U. after   16 cycles
 Normal termination of Gaussian 16 at Thu Dec 10 09:47:01 2020.

 ----------------------------------------------------------------------
 # B3LYP/6-311++G(d,p) empiricaldispersion=gd3bj scf=xqc pop=npa geom=c
 heck
 ----------------------------------------------------------------------

 -------------------------------------
 CID_127010716_JID_4129_Energie_kation
 -------------------------------------
 Structure from the checkpoint file:  "JID_4129.chk"
 Charge =  1 Multiplicity = 2

 SCF Done:  E(UB3LYP) =  -625.632161637     A.U. after   33 cycles
 SCF Done:  E(UB3LYP) =  -625.632161638     a.u. after    1 cycles
 Normal termination of Gaussian 16 at Thu Dec 10 09:56:06 2020.
 Gaussian 16:  ES64L-G16RevA.03 25-Dec-2016

 ------------------------------------
 CID_127010716_JID_4129_Energie_anion
 ------------------------------------
 Structure from the checkpoint file:  "JID_4129.chk"
 Charge = -1 Multiplicity = 2

                         Standard orientation:
 ---------------------------------------------------------------------
 Center     Atomic      Atomic             Coordinates (Angstroms)
 Number     Number       Type             X           Y           Z
 ---------------------------------------------------------------------
      1          6           0       -4.505707   -0.740454   -0.744812
      2          6           0       -3.235838   -0.091808   -0.258493
      3          7           0       -3.338084    0.658063    0.853837
      4          6           0       -2.226790    1.239679    1.312340
      5          6           0       -0.973495    1.118373    0.711605
      6          6           0       -0.861643    0.343876   -0.442087
      7          6           0       -2.020690   -0.268551   -0.926965
      8          6           0        0.453638    0.171580   -1.182373
      9          7           0        1.634691    0.569140   -0.427310
     10          6           0        2.585407   -0.346295    0.011313
     11          7           0        3.845823   -0.143770    0.133738
     12          6           0        4.404299    1.086105   -0.392823
     13          7           0        2.075360   -1.615487    0.331244
     14          7           0        1.001146   -1.718701    1.266600
     15          1           0       -5.265364    0.021268   -0.951749
     16          1           0       -4.340328   -1.327114   -1.653081
     17          1           0       -4.916131   -1.398986    0.028549
     18          1           0       -2.341569    1.837434    2.215443
     19          1           0       -0.099969    1.603236    1.133939
     20          1           0       -1.980632   -0.887354   -1.820370
     21          1           0        0.569272   -0.872432   -1.490134
     22          1           0        0.411480    0.762053   -2.107353
     23          1           0        2.018724    1.470223   -0.669553
     24          1           0        4.025002    1.353131   -1.396060
     25          1           0        4.213930    1.945592    0.271212
     26          1           0        5.490495    0.982047   -0.474008
     27          1           0        2.850082   -2.196549    0.635765
     28          1           0        0.994940   -0.908931    1.887910
     29          1           0        0.122420   -1.703364    0.756500
 ---------------------------------------------------------------------

 SCF Done:  E(UB3LYP) =  -625.930723214     A.U. after   33 cycles
 SCF Done:  E(UB3LYP) =  -625.930723214     a.u. after    1 cycles

 The electronic state is 2-A.
 Alpha  occ. eigenvalues --  -14.24157 -14.22957 -14.22403 -14.17446 -14.17288
 Alpha  occ. eigenvalues --  -10.15743 -10.10034 -10.09509 -10.08280 -10.08065
 Alpha  occ. eigenvalues --  -10.06491 -10.06202 -10.05634 -10.05376  -0.90120
 Alpha  occ. eigenvalues --   -0.83177  -0.82075  -0.77794  -0.69541  -0.68302
 Alpha  occ. eigenvalues --   -0.66702  -0.59828  -0.58757  -0.57041  -0.50790
 Alpha  occ. eigenvalues --   -0.49955  -0.47107  -0.42334  -0.40097  -0.39746
 Alpha  occ. eigenvalues --   -0.38793  -0.36868  -0.36434  -0.34657  -0.33680
 Alpha  occ. eigenvalues --   -0.32782  -0.32494  -0.30539  -0.30197  -0.29960
 Alpha  occ. eigenvalues --   -0.29265  -0.28033  -0.25869  -0.24242  -0.23962
 Alpha  occ. eigenvalues --   -0.18202  -0.16675  -0.15141  -0.14980  -0.14118
 Alpha  occ. eigenvalues --   -0.13887  -0.12192   0.04502
 Alpha virt. eigenvalues --    0.07099   0.07433   0.08519   0.08950   0.09215
 Alpha virt. eigenvalues --    0.09430   0.10351   0.10523   0.11314   0.11922
 Alpha virt. eigenvalues --    0.12223   0.12531   0.12889   0.13300   0.13657

  Beta  occ. eigenvalues --  -14.24157 -14.22949 -14.22369 -14.17284 -14.17197
  Beta  occ. eigenvalues --  -10.15742 -10.10037 -10.09496 -10.08224 -10.08024
  Beta  occ. eigenvalues --  -10.06492 -10.05909 -10.05620 -10.05396  -0.90106
  Beta  occ. eigenvalues --   -0.83138  -0.81747  -0.77739  -0.69247  -0.68180
  Beta  occ. eigenvalues --   -0.66580  -0.59701  -0.58694  -0.56951  -0.50649
  Beta  occ. eigenvalues --   -0.49871  -0.46847  -0.42303  -0.40008  -0.39704
  Beta  occ. eigenvalues --   -0.38688  -0.36801  -0.36352  -0.34521  -0.33565
  Beta  occ. eigenvalues --   -0.32735  -0.32308  -0.30353  -0.30136  -0.29889
  Beta  occ. eigenvalues --   -0.29164  -0.27952  -0.25325  -0.24151  -0.23865
  Beta  occ. eigenvalues --   -0.18145  -0.16066  -0.15003  -0.14486  -0.13710
  Beta  occ. eigenvalues --   -0.13609  -0.12152
  Beta virt. eigenvalues --    0.07223   0.07658   0.08628   0.08947   0.09281
  Beta virt. eigenvalues --    0.09476   0.09823   0.10576   0.10831   0.11342
  Beta virt. eigenvalues --    0.12008   0.12349   0.12705   0.13114   0.13400

 Mulliken charges and spin densities:
               1          2
     1  C   -0.461182  -0.210596
     2  C   -0.124286  -0.265402
     3  N   -0.073709   0.127426
     4  C   -0.222374  -0.015523
     5  C    0.758919  -1.146961
     6  C    0.377840   0.459687
     7  C   -1.576969   1.710686
     8  C    0.852690  -1.652395
     9  N   -0.117158   0.059891
    10  C   -0.291576   0.118908
    11  N   -0.314254   0.118329
    12  C    0.653031  -1.136783
    13  N   -0.243597   0.000352
    14  N   -0.233033  -0.017125
    15  H    0.137772   0.006794
    16  H    0.083947   0.040371
    17  H    0.107210   0.036807
    18  H    0.095802   0.052335
    19  H    0.021116   0.152537
    20  H   -0.018814   0.168291
    21  H    0.378335  -0.144113
    22  H   -0.844361   1.064963
    23  H   -0.151894   0.465228
    24  H   -0.405944   0.550248
    25  H   -0.213752   0.360617
    26  H    0.036470   0.096730
    27  H    0.293904   0.004798
    28  H    0.222015   0.002758
    29  H    0.273853  -0.008860
 Sum of Mulliken charges =  -1.00000   1.00000

 Dipole moment (field-independent basis, Debye):
    X=             -2.4049    Y=             -4.2911    Z=              2.5649  Tot=              5.5476
 Quadrupole moment (field-independent basis, Debye-Ang):
   XX=           -152.9631   YY=           -115.2904   ZZ=           -115.0627
   XY=             -2.4997   XZ=              9.5799   YZ=             10.7176

 Summary of Natural Population Analysis:

                                       Natural Population
                Natural  -----------------------------------------------
    Atom  No    Charge         Core      Valence    Rydberg      Total
 -----------------------------------------------------------------------
      C    1   -0.29547      0.99963     2.29040    0.00544     3.29547
      C    2    0.10709      0.99955     1.87925    0.01411     2.89291
      N    3   -0.22363      0.99968     2.71248    0.01148     3.72363
      C    4    0.03941      0.99959     1.94580    0.01519     2.96059
      C    5   -0.14110      0.99949     2.13155    0.01006     3.14110
      C    6    0.03896      0.99950     1.95072    0.01083     2.96104
      C    7   -0.12971      0.99945     2.12160    0.00866     3.12971
      C    8   -0.10350      0.99957     2.08999    0.01394     3.10350
      N    9   -0.33193      0.99967     2.82000    0.01225     3.83193
      C   10    0.30279      0.99957     1.67932    0.01833     2.69721
      N   11   -0.30198      0.99964     2.79084    0.01150     3.80198
      C   12   -0.19670      0.99964     2.18741    0.00965     3.19670
      N   13   -0.24800      0.99967     2.73641    0.01192     3.74800
      N   14   -0.32357      0.99978     2.81339    0.01040     3.82357
      H   15    0.10402      0.00000     0.39477    0.00122     0.39598
      H   16    0.09580      0.00000     0.40354    0.00066     0.40420
      H   17    0.10328      0.00000     0.39551    0.00121     0.39672
      H   18    0.08287      0.00000     0.41597    0.00116     0.41713
      H   19    0.10602      0.00000     0.39265    0.00134     0.39398
      H   20    0.09756      0.00000     0.40145    0.00098     0.40244
      H   21    0.10360      0.00000     0.39477    0.00164     0.39640
      H   22    0.11427      0.00000     0.37814    0.00759     0.38573
      H   23    0.19950      0.00000     0.29458    0.00592     0.30050
      H   24    0.08773      0.00000     0.40994    0.00232     0.41227
      H   25    0.08834      0.00000     0.41032    0.00134     0.41166
      H   26    0.09244      0.00000     0.40621    0.00135     0.40756
      H   27    0.18391      0.00000     0.31355    0.00254     0.31609
      H   28    0.16882      0.00000     0.32885    0.00234     0.33118
      H   29    0.17919      0.00000     0.31853    0.00228     0.32081
 =======================================================================
   * Total *   -0.00000     13.99443    37.80792    0.19765    52.00000

 Normal termination of Gaussian 16 at Thu Dec 10 10:04:48 2020.
