 Gaussian 16, Revision A.03,

 -----------------------------------------------------------
 # opt freq B3LYP/6-31G(d) empiricaldispersion=gd3bj scf=xqc
 -----------------------------------------------------------

 ------------------------------
 CID_64121466_JID_8710_neutraal
 ------------------------------
 Symbolic Z-matrix:
 Charge =  0 Multiplicity = 1

 SCF Done:  E(RB3LYP) =  -1216.38344356     A.U. after   15 cycles
 SCF Done:  E(RB3LYP) =  -1216.38871582     A.U. after   13 cycles
 SCF Done:  E(RB3LYP) =  -1216.38871836     A.U. after   13 cycles
 SCF Done:  E(RB3LYP) =  -1216.38917939     A.U. after   13 cycles
 SCF Done:  E(RB3LYP) =  -1216.38969391     A.U. after   12 cycles
 SCF Done:  E(RB3LYP) =  -1216.38977717     A.U. after   11 cycles
 SCF Done:  E(RB3LYP) =  -1216.38982622     A.U. after   11 cycles
 SCF Done:  E(RB3LYP) =  -1216.38987269     A.U. after   11 cycles
 SCF Done:  E(RB3LYP) =  -1216.38992177     A.U. after   12 cycles
 SCF Done:  E(RB3LYP) =  -1216.38996727     A.U. after   10 cycles
 SCF Done:  E(RB3LYP) =  -1216.39005832     A.U. after    8 cycles
 SCF Done:  E(RB3LYP) =  -1216.39005875     A.U. after    8 cycles
 SCF Done:  E(RB3LYP) =  -1216.39005891     A.U. after    8 cycles
 SCF Done:  E(RB3LYP) =  -1216.39005898     A.U. after    8 cycles
 SCF Done:  E(RB3LYP) =  -1216.39005902     A.U. after    7 cycles
 Optimization completed.
    -- Stationary point found.
 Normal termination of Gaussian 16 at Fri Dec 11 22:18:06 2020.

 --------------------------------------------------------------------
 #N Geom=AllCheck Guess=TCheck SCRF=Check GenChk RB3LYP/6-31G(d) Freq
 --------------------------------------------------------------------

 Structure from the checkpoint file:  "JID_8710.chk"
 ------------------------------
 CID_64121466_JID_8710_neutraal
 ------------------------------
 Charge =  0 Multiplicity = 1

 SCF Done:  E(RB3LYP) =  -1216.39005902     A.U. after    1 cycles

  Exact polarizability: 191.274   0.083 140.220 -12.953  -4.959 123.970
 Approx polarizability: 252.683   3.063 237.544 -27.466  -8.699 196.629

                      1                      2                      3
                      A                      A                      A
 Frequencies --     28.4286                37.2163                44.1215
 Red. masses --      4.6029                 7.4166                 5.0110
 Frc consts  --      0.0022                 0.0061                 0.0057
 IR Inten    --      0.9796                 2.6101                 1.5504

                      4                      5                      6
                      A                      A                      A
 Frequencies --     56.5668                61.7103                62.8755
 Red. masses --      1.9736                 1.8862                 6.3980
 Frc consts  --      0.0037                 0.0042                 0.0149
 IR Inten    --      0.1427                 0.1117                 1.4124

                      7                      8                      9
                      A                      A                      A
 Frequencies --     74.9962                92.6523               154.8297
 Red. masses --      3.6264                 3.9970                 5.3440
 Frc consts  --      0.0120                 0.0202                 0.0755
 IR Inten    --      0.6914                 0.4905                 0.4826

                     10                     11                     12
                      A                      A                      A
 Frequencies --    179.2933               183.0528               228.1118
 Red. masses --      4.0671                 2.4899                 3.8552
 Frc consts  --      0.0770                 0.0492                 0.1182
 IR Inten    --      0.3811                 2.6559                 0.5688

                     13                     14                     15
                      A                      A                      A
 Frequencies --    234.6892               262.7584               280.7697
 Red. masses --      2.9312                 1.5754                 3.0739
 Frc consts  --      0.0951                 0.0641                 0.1428
 IR Inten    --      1.3934                 2.4228                 2.5010

                     16                     17                     18
                      A                      A                      A
 Frequencies --    306.0364               334.3400               344.1248
 Red. masses --      4.0292                 6.1787                 3.2663
 Frc consts  --      0.2223                 0.4069                 0.2279
 IR Inten    --      2.0512                 4.3572                 1.0789

                     19                     20                     21
                      A                      A                      A
 Frequencies --    356.7947               400.4167               462.2814
 Red. masses --      3.6769                 9.6480                 5.5564
 Frc consts  --      0.2758                 0.9114                 0.6996
 IR Inten    --      1.5659                 1.3658                 6.9074

                     22                     23                     24
                      A                      A                      A
 Frequencies --    476.8271               499.2367               517.6556
 Red. masses --      3.8883                 3.3942                 1.6934
 Frc consts  --      0.5209                 0.4984                 0.2674
 IR Inten    --      0.7684                19.1486                34.1100

                     25                     26                     27
                      A                      A                      A
 Frequencies --    559.6196               606.9322               642.2541
 Red. masses --      4.2882                 4.3899                 1.7289
 Frc consts  --      0.7913                 0.9528                 0.4202
 IR Inten    --     33.7152                28.3039                84.0178

                     28                     29                     30
                      A                      A                      A
 Frequencies --    662.9683               671.8419               704.8379
 Red. masses --      3.1898                 2.9766                 3.7593
 Frc consts  --      0.8260                 0.7916                 1.1004
 IR Inten    --     10.4320                12.9010                26.7091

                     31                     32                     33
                      A                      A                      A
 Frequencies --    716.2219               719.9919               761.0708
 Red. masses --      3.0363                 5.1941                 3.9560
 Frc consts  --      0.9177                 1.5864                 1.3501
 IR Inten    --     34.1684                19.5951                22.8952

                     34                     35                     36
                      A                      A                      A
 Frequencies --    769.3106               799.3900               822.3090
 Red. masses --      4.0077                 2.3917                 1.9656
 Frc consts  --      1.3975                 0.9005                 0.7831
 IR Inten    --     12.4036                 5.4916                 0.2855

                     37                     38                     39
                      A                      A                      A
 Frequencies --    824.0379               870.6023               910.2323
 Red. masses --      1.4538                 2.5080                 2.7962
 Frc consts  --      0.5817                 1.1200                 1.3649
 IR Inten    --     29.9395                25.4423                30.4094

                     40                     41                     42
                      A                      A                      A
 Frequencies --    949.4631               989.3687              1001.8579
 Red. masses --      2.6301                 2.1000                 1.5750
 Frc consts  --      1.3969                 1.2111                 0.9314
 IR Inten    --      4.6050                 1.3541                 2.8949

                     43                     44                     45
                      A                      A                      A
 Frequencies --   1016.3370              1036.1752              1054.7753
 Red. masses --      2.4863                 2.2043                 3.5309
 Frc consts  --      1.5131                 1.3944                 2.3145
 IR Inten    --      8.7120                 5.6810                 7.3802

                     46                     47                     48
                      A                      A                      A
 Frequencies --   1065.4722              1077.4658              1102.9522
 Red. masses --      2.9468                 1.4545                 1.7443
 Frc consts  --      1.9710                 0.9949                 1.2502
 IR Inten    --      4.6839                 2.0876                25.3791

                     49                     50                     51
                      A                      A                      A
 Frequencies --   1140.1898              1162.8085              1166.3773
 Red. masses --      1.8736                 1.8228                 1.8274
 Frc consts  --      1.4351                 1.4521                 1.4647
 IR Inten    --     16.6374               154.1164               109.4137

                     52                     53                     54
                      A                      A                      A
 Frequencies --   1182.8644              1192.8091              1228.0679
 Red. masses --      2.0324                 2.3169                 1.6974
 Frc consts  --      1.6754                 1.9422                 1.5083
 IR Inten    --     24.9768                57.3777                11.5130

                     55                     56                     57
                      A                      A                      A
 Frequencies --   1255.5490              1279.8310              1299.2978
 Red. masses --      1.7150                 2.1674                 1.8078
 Frc consts  --      1.5929                 2.0917                 1.7981
 IR Inten    --     41.7748                37.0637               101.6051

                     58                     59                     60
                      A                      A                      A
 Frequencies --   1313.7395              1316.6980              1343.8994
 Red. masses --      1.8923                 1.4040                 1.6571
 Frc consts  --      1.9242                 1.4342                 1.7633
 IR Inten    --      1.0019                23.0988                16.5650

                     61                     62                     63
                      A                      A                      A
 Frequencies --   1365.8752              1388.5880              1420.2811
 Red. masses --      1.8514                 1.7601                 1.5837
 Frc consts  --      2.0351                 1.9996                 1.8822
 IR Inten    --    113.1597                97.8685                13.1986

                     64                     65                     66
                      A                      A                      A
 Frequencies --   1435.5834              1438.6147              1444.0003
 Red. masses --      1.7659                 1.3702                 1.4529
 Frc consts  --      2.1442                 1.6708                 1.7849
 IR Inten    --     19.0570                13.2811                16.3096

                     67                     68                     69
                      A                      A                      A
 Frequencies --   1452.7407              1460.0080              1501.6852
 Red. masses --      2.2270                 2.1811                 5.6086
 Frc consts  --      2.7691                 2.7393                 7.4519
 IR Inten    --     27.2426                53.7813               123.3236

                     70                     71                     72
                      A                      A                      A
 Frequencies --   1507.8212              1513.0253              1521.3574
 Red. masses --      1.1093                 1.0420                 1.0913
 Frc consts  --      1.4860                 1.4054                 1.4881
 IR Inten    --     10.7277                 7.5253                 5.6539

                     73                     74                     75
                      A                      A                      A
 Frequencies --   1524.7139              1532.5321              1538.8287
 Red. masses --      1.0602                 1.1964                 1.0466
 Frc consts  --      1.4521                 1.6556                 1.4602
 IR Inten    --     11.4253                 1.2653                12.8499

                     76                     77                     78
                      A                      A                      A
 Frequencies --   1627.1334              1755.8739              1856.6777
 Red. masses --      4.2467                12.6350                10.3249
 Frc consts  --      6.6245                22.9515                20.9706
 IR Inten    --     19.3817               258.8809               214.6116

                     79                     80                     81
                      A                      A                      A
 Frequencies --   3047.7702              3048.6415              3057.8277
 Red. masses --      1.0395                 1.0707                 1.0379
 Frc consts  --      5.6889                 5.8633                 5.7178
 IR Inten    --     33.4148                25.4933                23.6765

                     82                     83                     84
                      A                      A                      A
 Frequencies --   3093.3689              3098.5400              3102.5872
 Red. masses --      1.0761                 1.1018                 1.0693
 Frc consts  --      6.0671                 6.2327                 6.0645
 IR Inten    --     13.9548                15.3458                17.8861

                     85                     86                     87
                      A                      A                      A
 Frequencies --   3116.4371              3139.7266              3146.9727
 Red. masses --      1.1016                 1.0902                 1.0986
 Frc consts  --      6.3035                 6.3321                 6.4101
 IR Inten    --     29.7688                10.1571                 7.9812

                     88                     89                     90
                      A                      A                      A
 Frequencies --   3147.5389              3160.8819              3170.9732
 Red. masses --      1.0966                 1.0902                 1.1038
 Frc consts  --      6.4011                 6.4177                 6.5394
 IR Inten    --      6.1486                22.1867                 1.8285

                     91                     92                     93
                      A                      A                      A
 Frequencies --   3271.0046              3654.2420              3686.9716
 Red. masses --      1.0974                 1.0812                 1.0642
 Frc consts  --      6.9180                 8.5065                 8.5230
 IR Inten    --      0.4671                75.8643                60.9443

 - Thermochemistry -
 -------------------
 Temperature   298.150 Kelvin.  Pressure   1.00000 Atm.
 Atom     1 has atomic number  6 and mass  12.00000

 Molecular mass:   269.08341 amu.
 Principal axes and moments of inertia in atomic units:
                           1         2         3
     Eigenvalues --  2603.150637278.195527827.79692
           X            0.99990  -0.01360  -0.00292
           Y            0.01351   0.99949  -0.02911
           Z            0.00331   0.02906   0.99957
 This molecule is an asymmetric top.
 Rotational symmetry number  1.
 Warning -- assumption of classical behavior for rotation
           may cause significant error
 Rotational temperatures (Kelvin)      0.03327     0.01190     0.01106
 Rotational constants (GHZ):           0.69329     0.24797     0.23056
 Zero-point vibrational energy     694589.1 (Joules/Mol)
                                  166.01078 (Kcal/Mol)
 Warning -- explicit consideration of  26 degrees of freedom as
           vibrations may cause significant error
 Vibrational temperatures:     40.90    53.55    63.48    81.39    88.79
          (Kelvin)             90.46   107.90   133.31   222.77   257.96
                              263.37   328.20   337.67   378.05   403.96
                              440.32   481.04   495.12   513.35   576.11
                              665.12   686.05   718.29   744.79   805.17
                              873.24   924.06   953.86   966.63  1014.10
                             1030.48  1035.91  1095.01  1106.87  1150.14
                             1183.12  1185.61  1252.60  1309.62  1366.07
                             1423.48  1441.45  1462.28  1490.83  1517.59
                             1532.98  1550.23  1586.90  1640.48  1673.02
                             1678.16  1701.88  1716.19  1766.92  1806.46
                             1841.39  1869.40  1890.18  1894.43  1933.57
                             1965.19  1997.87  2043.47  2065.48  2069.85
                             2077.59  2090.17  2100.63  2160.59  2169.42
                             2176.91  2188.89  2193.72  2204.97  2214.03
                             2341.08  2526.31  2671.35  4385.06  4386.32
                             4399.53  4450.67  4458.11  4463.93  4483.86
                             4517.37  4527.79  4528.61  4547.80  4562.32
                             4706.25  5257.64  5304.73

 Zero-point correction=                           0.264555 (Hartree/Particle)
 Thermal correction to Energy=                    0.282591
 Thermal correction to Enthalpy=                  0.283535
 Thermal correction to Gibbs Free Energy=         0.216122
 Sum of electronic and zero-point Energies=          -1216.125504
 Sum of electronic and thermal Energies=             -1216.107468
 Sum of electronic and thermal Enthalpies=           -1216.106524
 Sum of electronic and thermal Free Energies=        -1216.173937

                     E (Thermal)             CV                S
                      KCal/Mol        Cal/Mol-Kelvin    Cal/Mol-Kelvin
 Total                  177.328             65.679            141.882
 Electronic               0.000              0.000              0.000
 Translational            0.889              2.981             42.669
 Rotational               0.889              2.981             33.361
 Vibrational            175.551             59.718             65.853
 Vibration     1          0.593              1.984              5.936
 Vibration     2          0.594              1.982              5.402
 Vibration     3          0.595              1.980              5.065
 Vibration     4          0.596              1.975              4.574
 Vibration     5          0.597              1.973              4.402
 Vibration     6          0.597              1.972              4.365
 Vibration     7          0.599              1.966              4.018
 Vibration     8          0.602              1.954              3.603
 Vibration     9          0.620              1.897              2.612
 Vibration    10          0.629              1.868              2.336
 Vibration    11          0.631              1.863              2.297
 Vibration    12          0.651              1.798              1.894
 Vibration    13          0.654              1.788              1.843
 Vibration    14          0.670              1.741              1.643
 Vibration    15          0.680              1.709              1.529
 Vibration    16          0.696              1.662              1.384
 Vibration    17          0.716              1.607              1.239
 Vibration    18          0.723              1.587              1.193
 Vibration    19          0.732              1.561              1.136
 Vibration    20          0.766              1.469              0.961
 Vibration    21          0.820              1.334              0.759
 Vibration    22          0.833              1.301              0.719
 Vibration    23          0.855              1.252              0.660
 Vibration    24          0.873              1.211              0.615
 Vibration    25          0.915              1.119              0.525
 Vibration    26          0.966              1.017              0.438

 Optimization completed.
    -- Stationary point found.
 Normal termination of Gaussian 16 at Fri Dec 11 22:33:31 2020.

 ----------------------------------------------------------------------
 # B3LYP/6-311++G(d,p) empiricaldispersion=gd3bj scf=xqc pop=npa geom=c
 heck
 ----------------------------------------------------------------------

 --------------------------------------
 CID_64121466_JID_8710_Energie_neutraal
 --------------------------------------
 Structure from the checkpoint file:  "JID_8710.chk"
 Charge =  0 Multiplicity = 1

 SCF Done:  E(RB3LYP) =  -1216.65611463     A.U. after   17 cycles
 Normal termination of Gaussian 16 at Fri Dec 11 22:39:41 2020.

 ----------------------------------------------------------------------
 # B3LYP/6-311++G(d,p) empiricaldispersion=gd3bj scf=xqc pop=npa geom=c
 heck
 ----------------------------------------------------------------------

 ------------------------------------
 CID_64121466_JID_8710_Energie_kation
 ------------------------------------
 Structure from the checkpoint file:  "JID_8710.chk"
 Charge =  1 Multiplicity = 2

 SCF Done:  E(UB3LYP) =  -1216.35228439     A.U. after   32 cycles
 Normal termination of Gaussian 16 at Fri Dec 11 22:55:15 2020.
 Gaussian 16:  ES64L-G16RevA.03 25-Dec-2016

 ----------------------------------------------------------------------
 # B3LYP/6-311++G(d,p) empiricaldispersion=gd3bj scf=xqc pop=npa geom=c
 heck
 ----------------------------------------------------------------------

 -----------------------------------
 CID_64121466_JID_8710_Energie_anion
 -----------------------------------
 Structure from the checkpoint file:  "JID_8710.chk"
 Charge = -1 Multiplicity = 2

                         Standard orientation:
 ---------------------------------------------------------------------
 Center     Atomic      Atomic             Coordinates (Angstroms)
 Number     Number       Type             X           Y           Z
 ---------------------------------------------------------------------
      1          6           0       -0.306193   -0.142296    2.589156
      2          6           0        0.683459    0.850777    1.979052
      3          6           0        0.470260    1.076302    0.476540
      4          7           0        0.632768   -0.106071   -0.367853
      5          6           0        1.961689   -0.286454   -0.914457
      6          6           0        2.422996    1.101607   -1.384445
      7         16           0        1.726342    2.296795   -0.174173
      8          6           0        2.915124   -0.966254    0.066131
      9          8           0        2.612598   -1.482053    1.115055
     10          8           0        4.178385   -0.973474   -0.424015
     11          6           0       -0.343014   -1.017976   -0.721816
     12          8           0       -0.061846   -2.050089   -1.317168
     13          6           0       -1.759866   -0.662567   -0.408641
     14          7           0       -2.531581   -1.544677    0.228333
     15          7           0       -3.740645   -0.949158    0.272642
     16          6           0       -3.780425    0.274921   -0.327645
     17          6           0       -2.492275    0.494892   -0.781475
     18          6           0       -5.024825    1.096881   -0.416459
     19          1           0       -1.345300    0.165422    2.428071
     20          1           0       -0.139586   -0.222162    3.668826
     21          1           0       -0.176708   -1.137898    2.156780
     22          1           0        0.582099    1.831959    2.461848
     23          1           0        1.706411    0.512817    2.152809
     24          1           0       -0.524660    1.488211    0.315272
     25          1           0        1.875851   -0.974398   -1.761678
     26          1           0        3.509371    1.189344   -1.405147
     27          1           0        2.025107    1.305271   -2.381227
     28          1           0        4.719545   -1.458945    0.226699
     29          1           0       -4.499981   -1.436312    0.725723
     30          1           0       -2.140935    1.356230   -1.331188
     31          1           0       -5.805639    0.590495   -0.996964
     32          1           0       -5.436987    1.317727    0.575701
     33          1           0       -4.808528    2.048812   -0.907246
 ---------------------------------------------------------------------

 SCF Done:  E(UB3LYP) =  -1216.65028557     A.U. after   33 cycles
 SCF Done:  E(UB3LYP) =  -1216.65028557     a.u. after    1 cycles

 The electronic state is 2-A.
 Alpha  occ. eigenvalues --  -88.76364 -19.09330 -19.03869 -19.00510 -14.29574
 Alpha  occ. eigenvalues --  -14.26881 -14.24421 -10.22893 -10.19327 -10.15981
 Alpha  occ. eigenvalues --  -10.15440 -10.13244 -10.13071 -10.11212 -10.08703
 Alpha  occ. eigenvalues --  -10.08559 -10.08191 -10.06785  -7.85000  -5.81401
 Alpha  occ. eigenvalues --   -5.81049  -5.80340  -1.03476  -0.96650  -0.95535
 Alpha  occ. eigenvalues --   -0.94568  -0.87554  -0.74705  -0.72720  -0.71809
 Alpha  occ. eigenvalues --   -0.70678  -0.65837  -0.62198  -0.60520  -0.57671
 Alpha  occ. eigenvalues --   -0.54017  -0.52405  -0.51723  -0.51455  -0.47020
 Alpha  occ. eigenvalues --   -0.44272  -0.42923  -0.41421  -0.40637  -0.38851
 Alpha  occ. eigenvalues --   -0.37100  -0.36877  -0.36425  -0.35573  -0.35330
 Alpha  occ. eigenvalues --   -0.34321  -0.33553  -0.32872  -0.32675  -0.32220
 Alpha  occ. eigenvalues --   -0.31601  -0.31353  -0.30153  -0.29382  -0.27319
 Alpha  occ. eigenvalues --   -0.26691  -0.25981  -0.25327  -0.24058  -0.21059
 Alpha  occ. eigenvalues --   -0.20880  -0.18843  -0.17202  -0.16887  -0.15657
 Alpha  occ. eigenvalues --   -0.15087   0.03553
 Alpha virt. eigenvalues --    0.04476   0.05913   0.06818   0.07162   0.07425
 Alpha virt. eigenvalues --    0.07743   0.08498   0.08874   0.09243   0.09512
 Alpha virt. eigenvalues --    0.10514   0.10855   0.11216   0.11389   0.11939

  Beta  occ. eigenvalues --  -88.76361 -19.09279 -19.03845 -19.00484 -14.29529
  Beta  occ. eigenvalues --  -14.26885 -14.24407 -10.22872 -10.19298 -10.15974
  Beta  occ. eigenvalues --  -10.15433 -10.13220 -10.13074 -10.11213 -10.08628
  Beta  occ. eigenvalues --  -10.08557 -10.08176 -10.06781  -7.84997  -5.81390
  Beta  occ. eigenvalues --   -5.81048  -5.80337  -1.03401  -0.96607  -0.95490
  Beta  occ. eigenvalues --   -0.94503  -0.87540  -0.74658  -0.72687  -0.71791
  Beta  occ. eigenvalues --   -0.70633  -0.65808  -0.62100  -0.60470  -0.57582
  Beta  occ. eigenvalues --   -0.53985  -0.52379  -0.51663  -0.51410  -0.46992
  Beta  occ. eigenvalues --   -0.44222  -0.42860  -0.41378  -0.40581  -0.38797
  Beta  occ. eigenvalues --   -0.37060  -0.36853  -0.36379  -0.35542  -0.35293
  Beta  occ. eigenvalues --   -0.34289  -0.33495  -0.32830  -0.32639  -0.32177
  Beta  occ. eigenvalues --   -0.31554  -0.31301  -0.30091  -0.29298  -0.27299
  Beta  occ. eigenvalues --   -0.26663  -0.25949  -0.25271  -0.24012  -0.21031
  Beta  occ. eigenvalues --   -0.20826  -0.18809  -0.17172  -0.16844  -0.15611
  Beta  occ. eigenvalues --   -0.15071
  Beta virt. eigenvalues --    0.05524   0.06111   0.06395   0.07158   0.07533
  Beta virt. eigenvalues --    0.07854   0.08189   0.08965   0.09138   0.09306
  Beta virt. eigenvalues --    0.09863   0.10677   0.11085   0.11513   0.11562

 Mulliken charges and spin densities:
               1          2
     1  C   -0.684183  -0.023834
     2  C   -0.600157  -0.067649
     3  C    0.549586  -0.008816
     4  N    0.378124  -0.016901
     5  C   -0.426593  -0.015407
     6  C   -0.242364  -0.403863
     7  S   -0.041658   0.031733
     8  C    0.349504  -0.210922
     9  O   -0.264323   0.008745
    10  O   -0.151948   0.010513
    11  C    0.030176  -0.044887
    12  O   -0.263826   0.011418
    13  C    0.283996  -0.532785
    14  N   -0.284290   0.310805
    15  N    0.002321  -0.057388
    16  C   -1.363210   1.369069
    17  C    0.353841  -0.519142
    18  C    2.020450  -2.592082
    19  H    0.118897   0.049138
    20  H    0.114785   0.028416
    21  H    0.218821  -0.001416
    22  H    0.096459   0.057856
    23  H    0.158870   0.012915
    24  H    0.226036   0.012971
    25  H    0.174355   0.069026
    26  H    0.053108   0.185445
    27  H    0.173299   0.024274
    28  H   -0.311808   0.618153
    29  H   -0.163894   0.499575
    30  H    0.046047   0.129428
    31  H   -0.489645   0.663639
    32  H   -0.625969   0.803044
    33  H   -0.434808   0.598927
 Sum of Mulliken charges =  -1.00000   1.00000

 Dipole moment (field-independent basis, Debye):
    X=              6.4926    Y=              2.8725    Z=             -0.6500  Tot=              7.1294
 Quadrupole moment (field-independent basis, Debye-Ang):
   XX=           -236.3397   YY=           -157.6136   ZZ=           -137.9700
   XY=             11.9241   XZ=             -0.0666   YZ=             -1.8771

 Summary of Natural Population Analysis:

                                       Natural Population
                Natural  -----------------------------------------------
    Atom  No    Charge         Core      Valence    Rydberg      Total
 -----------------------------------------------------------------------
      C    1   -0.29058      0.99966     2.28512    0.00580     3.29058
      C    2   -0.20138      0.99959     2.19293    0.00886     3.20138
      C    3   -0.05024      0.99956     2.03523    0.01546     3.05024
      N    4   -0.26263      0.99961     2.75038    0.01263     3.76263
      C    5   -0.06319      0.99952     2.04921    0.01445     3.06319
      C    6   -0.24282      0.99958     2.23358    0.00966     3.24282
      S    7    0.08138      4.99964     2.90435    0.01463     7.91862
      C    8    0.40858      0.99969     1.56572    0.02601     2.59142
      O    9   -0.29567      0.99987     3.28981    0.00600     4.29567
      O   10   -0.34682      0.99988     3.34030    0.00664     4.34682
      C   11    0.34599      0.99959     1.63215    0.02227     2.65401
      O   12   -0.30229      0.99988     3.29784    0.00456     4.30229
      C   13    0.02326      0.99953     1.96164    0.01557     2.97674
      N   14   -0.13477      0.99971     2.62308    0.01198     3.63477
      N   15   -0.16425      0.99965     2.65128    0.01331     3.66425
      C   16    0.08700      0.99955     1.90148    0.01197     2.91300
      C   17   -0.16210      0.99946     2.15375    0.00889     3.16210
      C   18   -0.30299      0.99963     2.29730    0.00605     3.30299
      H   19    0.10028      0.00000     0.39872    0.00100     0.39972
      H   20    0.09816      0.00000     0.40121    0.00063     0.40184
      H   21    0.10884      0.00000     0.39034    0.00083     0.39116
      H   22    0.09655      0.00000     0.40243    0.00101     0.40345
      H   23    0.10789      0.00000     0.39107    0.00104     0.39211
      H   24    0.11074      0.00000     0.38757    0.00169     0.38926
      H   25    0.13570      0.00000     0.36301    0.00129     0.36430
      H   26    0.11707      0.00000     0.38147    0.00146     0.38293
      H   27    0.10217      0.00000     0.39666    0.00116     0.39783
      H   28    0.24551      0.00000     0.24150    0.01298     0.25449
      H   29    0.20377      0.00000     0.29199    0.00424     0.29623
      H   30    0.11119      0.00000     0.38788    0.00093     0.38881
      H   31    0.11171      0.00000     0.38592    0.00237     0.38829
      H   32    0.11319      0.00000     0.38303    0.00377     0.38681
      H   33    0.11072      0.00000     0.38783    0.00146     0.38928
 =======================================================================
   * Total *   -0.00000     21.99359    48.75581    0.25060    71.00000

 Normal termination of Gaussian 16 at Fri Dec 11 23:11:28 2020.
