 Gaussian 16, Revision A.03,

 -----------------------------------------------------------
 # opt freq B3LYP/6-31G(d) empiricaldispersion=gd3bj scf=xqc
 -----------------------------------------------------------

 -----------------------------
 CID_153981733_JID_37_neutraal
 -----------------------------
 Symbolic Z-matrix:
 Charge =  0 Multiplicity = 1

 SCF Done:  E(RB3LYP) =  -464.912321931     A.U. after   13 cycles
 SCF Done:  E(RB3LYP) =  -464.915540980     A.U. after   11 cycles
 SCF Done:  E(RB3LYP) =  -464.914782136     A.U. after   11 cycles
 SCF Done:  E(RB3LYP) =  -464.915814797     A.U. after   10 cycles
 SCF Done:  E(RB3LYP) =  -464.916364953     A.U. after   10 cycles
 SCF Done:  E(RB3LYP) =  -464.916415906     A.U. after   10 cycles
 SCF Done:  E(RB3LYP) =  -464.916427413     A.U. after    9 cycles
 SCF Done:  E(RB3LYP) =  -464.916431197     A.U. after    8 cycles
 SCF Done:  E(RB3LYP) =  -464.916432533     A.U. after    8 cycles
 SCF Done:  E(RB3LYP) =  -464.916432885     A.U. after    7 cycles
 SCF Done:  E(RB3LYP) =  -464.916432979     A.U. after    7 cycles
 Optimization completed.
    -- Stationary point found.

 1\1\GINC-NODE321\FOpt\RB3LYP\6-31G(d)\C8H16O2\VSC10255\08-Dec-2020\0\\
 # opt freq B3LYP/6-31G(d) empiricaldispersion=gd3bj scf=xqc\\CID_15398
 1733_JID_37_neutraal\\0,1\C,1.0578721962,0.0995445102,-0.0512323392\C,
 0.3512260825,-0.2419912167,1.2642151714\C,0.7624842617,0.6788378219,2.
 4206947939\C,0.4300930159,2.169873216,2.2100370989\C,-0.9673300912,2.5
 143311229,1.6806538676\O,0.3233021262,0.1619281889,3.6868305313\C,-1.0
 485990545,0.1427108831,3.9772267712\C,-1.3963682899,-0.7758516649,5.15
 98420965\O,-2.1242047693,0.2841146084,5.8216557898\C,-1.623290838,1.26

 Normal termination of Gaussian 16 at Tue Dec  8 10:15:49 2020.

 --------------------------------------------------------------------
 #N Geom=AllCheck Guess=TCheck SCRF=Check GenChk RB3LYP/6-31G(d) Freq
 --------------------------------------------------------------------

 Structure from the checkpoint file:  "JID_37.chk"
 -----------------------------
 CID_153981733_JID_37_neutraal
 -----------------------------
 Charge =  0 Multiplicity = 1

 SCF Done:  E(RB3LYP) =  -464.916432979     A.U. after    1 cycles

  Exact polarizability:  99.470   0.838  89.809   1.445   0.786  77.151
 Approx polarizability: 122.375   1.146 120.685   3.239  -0.820 115.802

                      1                      2                      3
                      A                      A                      A
 Frequencies --     54.9780                64.8566                89.6080
 Red. masses --      3.8019                 2.3895                 3.7010
 Frc consts  --      0.0068                 0.0059                 0.0175
 IR Inten    --      0.2191                 0.7138                 4.4068

                      4                      5                      6
                      A                      A                      A
 Frequencies --    119.7811               148.7306               173.8460
 Red. masses --      1.8153                 2.4787                 2.6496
 Frc consts  --      0.0153                 0.0323                 0.0472
 IR Inten    --      0.5413                 0.4341                 0.9583

                      7                      8                      9
                      A                      A                      A
 Frequencies --    224.6162               234.7530               263.9350
 Red. masses --      1.1260                 1.6791                 2.1918
 Frc consts  --      0.0335                 0.0545                 0.0900
 IR Inten    --      0.0529                 0.1591                 1.2657

                     10                     11                     12
                      A                      A                      A
 Frequencies --    302.5372               327.6174               357.2945
 Red. masses --      2.0500                 2.7415                 2.6803
 Frc consts  --      0.1106                 0.1734                 0.2016
 IR Inten    --      0.3418                 0.9007                 1.9342

                     13                     14                     15
                      A                      A                      A
 Frequencies --    446.5339               508.4826               627.1033
 Red. masses --      3.0577                 2.7704                 2.4411
 Frc consts  --      0.3592                 0.4220                 0.5656
 IR Inten    --     11.5387                 2.9781                 0.5570

                     16                     17                     18
                      A                      A                      A
 Frequencies --    701.0465               755.2353               803.5021
 Red. masses --      2.8731                 1.9183                 1.2818
 Frc consts  --      0.8320                 0.6447                 0.4876
 IR Inten    --      5.0194                 1.8374                 0.6617

                     19                     20                     21
                      A                      A                      A
 Frequencies --    850.9113               881.7090               895.9826
 Red. masses --      1.5948                 1.9069                 1.5459
 Frc consts  --      0.6803                 0.8734                 0.7312
 IR Inten    --      1.5513                 9.4426                 5.5809

                     22                     23                     24
                      A                      A                      A
 Frequencies --    925.6302               966.8260              1021.7850
 Red. masses --      1.6914                 3.1832                 2.1807
 Frc consts  --      0.8538                 1.7531                 1.3414
 IR Inten    --     10.5126                32.3940                 2.4065

                     25                     26                     27
                      A                      A                      A
 Frequencies --   1029.5227              1031.9472              1035.0387
 Red. masses --      3.3442                 1.6786                 3.5258
 Frc consts  --      2.0884                 1.0532                 2.2255
 IR Inten    --     54.5724                13.9194                30.9041

                     28                     29                     30
                      A                      A                      A
 Frequencies --   1047.8562              1068.5052              1133.8379
 Red. masses --      2.7106                 2.4402                 2.0218
 Frc consts  --      1.7536                 1.6415                 1.5314
 IR Inten    --     12.5468                 1.9359                45.9198

                     31                     32                     33
                      A                      A                      A
 Frequencies --   1147.3302              1160.0365              1164.8996
 Red. masses --      2.0958                 1.4073                 1.3505
 Frc consts  --      1.6255                 1.1158                 1.0797
 IR Inten    --      9.1815                 7.6064                 0.6737

                     34                     35                     36
                      A                      A                      A
 Frequencies --   1183.3083              1190.4498              1205.5792
 Red. masses --      1.9085                 2.4571                 1.6683
 Frc consts  --      1.5745                 2.0516                 1.4286
 IR Inten    --     39.2432               109.7785                41.0063

                     37                     38                     39
                      A                      A                      A
 Frequencies --   1286.0263              1292.5439              1310.1058
 Red. masses --      1.3383                 1.2758                 1.3289
 Frc consts  --      1.3041                 1.2558                 1.3439
 IR Inten    --      0.1912                 0.0376                 2.7948

                     40                     41                     42
                      A                      A                      A
 Frequencies --   1326.1413              1359.7239              1365.4153
 Red. masses --      1.1704                 1.3306                 1.3241
 Frc consts  --      1.2128                 1.4494                 1.4545
 IR Inten    --     17.2035                 2.8831                 7.8292

                     43                     44                     45
                      A                      A                      A
 Frequencies --   1388.1172              1411.2397              1430.6784
 Red. masses --      1.5187                 1.2969                 1.3110
 Frc consts  --      1.7242                 1.5218                 1.5810
 IR Inten    --      1.4123                 2.8127                20.0036

                     46                     47                     48
                      A                      A                      A
 Frequencies --   1435.6554              1443.8830              1448.7813
 Red. masses --      1.4519                 1.2326                 1.2488
 Frc consts  --      1.7632                 1.5140                 1.5443
 IR Inten    --     12.5866                 4.1787                 8.2813

                     49                     50                     51
                      A                      A                      A
 Frequencies --   1511.0091              1523.5665              1527.9002
 Red. masses --      1.0743                 1.0614                 1.0811
 Frc consts  --      1.4451                 1.4516                 1.4870
 IR Inten    --      6.8624                 2.1874                 2.5290

                     52                     53                     54
                      A                      A                      A
 Frequencies --   1530.7729              1535.4467              1538.2682
 Red. masses --      1.0555                 1.0431                 1.0427
 Frc consts  --      1.4572                 1.4490                 1.4537
 IR Inten    --      7.4598                 2.2442                 2.1499

                     55                     56                     57
                      A                      A                      A
 Frequencies --   1545.2679              1557.6017              3030.3612
 Red. masses --      1.0733                 1.1202                 1.0540
 Frc consts  --      1.5100                 1.6012                 5.7025
 IR Inten    --      1.7724                 3.9577                90.3450

                     58                     59                     60
                      A                      A                      A
 Frequencies --   3041.5379              3044.9229              3049.0860
 Red. masses --      1.0690                 1.0583                 1.0393
 Frc consts  --      5.8267                 5.7814                 5.6928
 IR Inten    --     10.8001                15.1039                15.4997

                     61                     62                     63
                      A                      A                      A
 Frequencies --   3051.5547              3059.5068              3063.1772
 Red. masses --      1.0627                 1.0746                 1.0412
 Frc consts  --      5.8306                 5.9265                 5.7560
 IR Inten    --      8.5197                71.4322                13.3302

                     64                     65                     66
                      A                      A                      A
 Frequencies --   3071.7176              3082.0714              3087.6895
 Red. masses --      1.0897                 1.1014                 1.1059
 Frc consts  --      6.0581                 6.1640                 6.2123
 IR Inten    --      6.6241                13.6016                20.4024

                     67                     68                     69
                      A                      A                      A
 Frequencies --   3089.7383              3099.5295              3115.4858
 Red. masses --      1.1039                 1.1067                 1.1020
 Frc consts  --      6.2088                 6.2641                 6.3019
 IR Inten    --     26.5425                80.3125                53.2768

                     70                     71                     72
                      A                      A                      A
 Frequencies --   3120.0291              3123.8438              3145.9891
 Red. masses --      1.1013                 1.1021                 1.0987
 Frc consts  --      6.3164                 6.3366                 6.4067
 IR Inten    --     67.2290                19.8581                35.8542

 - Thermochemistry -
 -------------------
 Temperature   298.150 Kelvin.  Pressure   1.00000 Atm.
 Atom     1 has atomic number  6 and mass  12.00000

 Molecular mass:   144.11503 amu.
 Principal axes and moments of inertia in atomic units:
                           1         2         3
     Eigenvalues --   760.355822404.648862803.29159
           X            0.99999   0.00068  -0.00511
           Y           -0.00063   0.99995   0.00967
           Z            0.00512  -0.00966   0.99994
 This molecule is an asymmetric top.
 Rotational symmetry number  1.
 Warning -- assumption of classical behavior for rotation
           may cause significant error
 Rotational temperatures (Kelvin)      0.11391     0.03602     0.03090
 Rotational constants (GHZ):           2.37355     0.75052     0.64379
 Zero-point vibrational energy     617213.3 (Joules/Mol)
                                  147.51751 (Kcal/Mol)
 Warning -- explicit consideration of  14 degrees of freedom as
           vibrations may cause significant error
 Vibrational temperatures:     79.10    93.31   128.93   172.34   213.99
          (Kelvin)            250.13   323.17   337.76   379.74   435.28
                              471.37   514.07   642.46   731.59   902.26
                             1008.65  1086.62  1156.06  1224.27  1268.58
                             1289.12  1331.78  1391.05  1470.12  1481.25
                             1484.74  1489.19  1507.63  1537.34  1631.34
                             1650.75  1669.03  1676.03  1702.52  1712.79
                             1734.56  1850.30  1859.68  1884.95  1908.02
                             1956.34  1964.53  1997.19  2030.46  2058.43
                             2065.59  2077.43  2084.47  2174.01  2192.07
                             2198.31  2202.44  2209.17  2213.22  2223.30
                             2241.04  4360.01  4376.09  4380.96  4386.95
                             4390.51  4401.95  4407.23  4419.52  4434.41
                             4442.50  4445.44  4459.53  4482.49  4489.03
                             4494.51  4526.38

 Zero-point correction=                           0.235084 (Hartree/Particle)
 Thermal correction to Energy=                    0.246542
 Thermal correction to Enthalpy=                  0.247486
 Thermal correction to Gibbs Free Energy=         0.197474
 Sum of electronic and zero-point Energies=           -464.681349
 Sum of electronic and thermal Energies=              -464.669891
 Sum of electronic and thermal Enthalpies=            -464.668947
 Sum of electronic and thermal Free Energies=         -464.718959

                     E (Thermal)             CV                S
                      KCal/Mol        Cal/Mol-Kelvin    Cal/Mol-Kelvin
 Total                  154.707             41.559            105.259
 Electronic               0.000              0.000              0.000
 Translational            0.889              2.981             40.807
 Rotational               0.889              2.981             30.017
 Vibrational            152.930             35.597             34.434
 Vibration     1          0.596              1.976              4.630
 Vibration     2          0.597              1.971              4.304
 Vibration     3          0.602              1.957              3.669
 Vibration     4          0.609              1.933              3.104
 Vibration     5          0.618              1.904              2.688
 Vibration     6          0.627              1.875              2.393
 Vibration     7          0.649              1.804              1.922
 Vibration     8          0.655              1.788              1.842
 Vibration     9          0.670              1.739              1.636
 Vibration    10          0.694              1.669              1.403
 Vibration    11          0.711              1.620              1.272
 Vibration    12          0.732              1.560              1.134
 Vibration    13          0.806              1.369              0.806
 Vibration    14          0.864              1.231              0.637

                           ! Non-Optimized Parameters !

 1\1\GINC-NODE321\Freq\RB3LYP\6-31G(d)\C8H16O2\VSC10255\08-Dec-2020\0\\
 #N Geom=AllCheck Guess=TCheck SCRF=Check GenChk RB3LYP/6-31G(d) Freq\\
 CID_153981733_JID_37_neutraal\\0,1\C,1.0578721962,0.0995445102,-0.0512
 323392\C,0.3512260825,-0.2419912167,1.2642151714\C,0.7624842617,0.6788
 378219,2.4206947939\C,0.4300930159,2.169873216,2.2100370989\C,-0.96733
 00912,2.5143311229,1.6806538676\O,0.3233021262,0.1619281889,3.68683053
 13\C,-1.0485990545,0.1427108831,3.9772267712\C,-1.3963682899,-0.775851
 6649,5.1598420965\O,-2.1242047693,0.2841146084,5.8216557898\C,-1.62329

 Normal termination of Gaussian 16 at Tue Dec  8 10:20:20 2020.

 ----------------------------------------------------------------------
 # B3LYP/6-311++G(d,p) empiricaldispersion=gd3bj scf=xqc pop=npa geom=c
 heck
 ----------------------------------------------------------------------

 -------------------------------------
 CID_153981733_JID_37_Energie_neutraal
 -------------------------------------
 Structure from the checkpoint file:  "JID_37.chk"
 Charge =  0 Multiplicity = 1

 SCF Done:  E(RB3LYP) =  -465.052905722     A.U. after   13 cycles
 Normal termination of Gaussian 16 at Tue Dec  8 10:21:55 2020.

 ----------------------------------------------------------------------
 # B3LYP/6-311++G(d,p) empiricaldispersion=gd3bj scf=xqc pop=npa geom=c
 heck
 ----------------------------------------------------------------------

 -----------------------------------
 CID_153981733_JID_37_Energie_kation
 -----------------------------------
 Structure from the checkpoint file:  "JID_37.chk"
 Charge =  1 Multiplicity = 2

 SCF Done:  E(UB3LYP) =  -464.721954340     A.U. after   22 cycles
 Normal termination of Gaussian 16 at Tue Dec  8 10:25:22 2020.
 Gaussian 16:  ES64L-G16RevA.03 25-Dec-2016

 ----------------------------------
 CID_153981733_JID_37_Energie_anion
 ----------------------------------
 Structure from the checkpoint file:  "JID_37.chk"
 Charge = -1 Multiplicity = 2

                         Standard orientation:
 ---------------------------------------------------------------------
 Center     Atomic      Atomic             Coordinates (Angstroms)
 Number     Number       Type             X           Y           Z
 ---------------------------------------------------------------------
      1          6           0        3.323036   -0.887115   -0.357913
      2          6           0        1.800311   -1.039286   -0.425373
      3          6           0        1.075081   -0.306770    0.711274
      4          6           0        1.283599    1.221003    0.733069
      5          6           0        1.153722    1.970923   -0.598262
      6          8           0       -0.302670   -0.703482    0.798433
      7          6           0       -1.186685   -0.328564   -0.223705
      8          6           0       -2.495996   -1.133982   -0.206780
      9          8           0       -3.287932    0.075913   -0.223063
     10          6           0       -2.116218    0.886030    0.018406
     11          1           0        3.635886    0.152438   -0.504074
     12          1           0        3.810248   -1.490692   -1.130741
     13          1           0        3.709128   -1.216210    0.614463
     14          1           0        1.442466   -0.688560   -1.400819
     15          1           0        1.528100   -2.098955   -0.354581
     16          1           0        1.478017   -0.691469    1.655851
     17          1           0        0.583085    1.633933    1.468888
     18          1           0        2.287664    1.407440    1.135226
     19          1           0        0.167320    1.853970   -1.054433
     20          1           0        1.315054    3.043047   -0.442288
     21          1           0        1.897334    1.631597   -1.327191
     22          1           0       -0.702253   -0.311308   -1.205503
     23          1           0       -2.710169   -1.780997   -1.065319
     24          1           0       -2.615968   -1.699219    0.726682
     25          1           0       -2.065854    1.250010    1.053449
     26          1           0       -2.056342    1.732091   -0.676879
 ---------------------------------------------------------------------

 SCF Done:  E(UB3LYP) =  -465.036889422     A.U. after   30 cycles

 The electronic state is 2-A.
 Alpha  occ. eigenvalues --  -19.02722 -19.02599 -10.13001 -10.12267 -10.11950
 Alpha  occ. eigenvalues --  -10.11701 -10.06265 -10.05924 -10.05212 -10.05138
 Alpha  occ. eigenvalues --   -0.95878  -0.93089  -0.70113  -0.64582  -0.64094
 Alpha  occ. eigenvalues --   -0.60052  -0.56589  -0.52175  -0.48466  -0.45552
 Alpha  occ. eigenvalues --   -0.41992  -0.39403  -0.38328  -0.35876  -0.34739
 Alpha  occ. eigenvalues --   -0.33372  -0.32036  -0.31198  -0.30203  -0.28708
 Alpha  occ. eigenvalues --   -0.27992  -0.26470  -0.25454  -0.24738  -0.24319
 Alpha  occ. eigenvalues --   -0.22300  -0.22110  -0.19717  -0.16463  -0.15657
 Alpha  occ. eigenvalues --    0.04803
 Alpha virt. eigenvalues --    0.07282   0.07433   0.08038   0.09413   0.09886
 Alpha virt. eigenvalues --    0.10162   0.10522   0.10770   0.12330   0.12655
 Alpha virt. eigenvalues --    0.12993   0.13268   0.14032   0.14789   0.15369

  Beta  occ. eigenvalues --  -19.02723 -19.02595 -10.12992 -10.12256 -10.11934
  Beta  occ. eigenvalues --  -10.11694 -10.06244 -10.05899 -10.05164 -10.05087
  Beta  occ. eigenvalues --   -0.95872  -0.93080  -0.70076  -0.64535  -0.64062
  Beta  occ. eigenvalues --   -0.60020  -0.56522  -0.52066  -0.48412  -0.45506
  Beta  occ. eigenvalues --   -0.41951  -0.39371  -0.38300  -0.35845  -0.34716
  Beta  occ. eigenvalues --   -0.33342  -0.31984  -0.31178  -0.30164  -0.28674
  Beta  occ. eigenvalues --   -0.27941  -0.26394  -0.25405  -0.24695  -0.24272
  Beta  occ. eigenvalues --   -0.22267  -0.22076  -0.19689  -0.16453  -0.15639
  Beta virt. eigenvalues --    0.07206   0.08009   0.08377   0.08586   0.09955
  Beta virt. eigenvalues --    0.10326   0.10704   0.10901   0.11455   0.12976
  Beta virt. eigenvalues --    0.13078   0.13331   0.13707   0.14404   0.15200

 Mulliken charges and spin densities:
               1          2
     1  C    2.175563  -2.883920
     2  C   -1.012057   1.022456
     3  C    0.059005  -0.201023
     4  C   -0.518452   0.227181
     5  C    1.417466  -1.911739
     6  O   -0.086987   0.022440
     7  C   -0.479374   0.405270
     8  C    0.656504  -0.968128
     9  O   -0.227611   0.029966
    10  C    0.044952  -0.278061
    11  H   -0.141693   0.290117
    12  H   -0.546026   0.692305
    13  H   -0.355107   0.489461
    14  H   -0.198770   0.335856
    15  H   -0.113434   0.276720
    16  H   -0.238947   0.457232
    17  H    0.041705   0.095284
    18  H   -0.451060   0.627618
    19  H   -0.294779   0.422259
    20  H   -0.488071   0.642455
    21  H   -0.352892   0.508686
    22  H    0.111943   0.059385
    23  H   -0.187690   0.334805
    24  H    0.128243   0.030080
    25  H    0.103082   0.075215
    26  H   -0.045514   0.198078
 Sum of Mulliken charges =  -1.00000   1.00000

 Dipole moment (field-independent basis, Debye):
    X=             -5.8006    Y=             -1.3095    Z=              2.0682  Tot=              6.2960
 Quadrupole moment (field-independent basis, Debye-Ang):
   XX=           -133.4320   YY=           -108.7458   ZZ=            -96.6886
   XY=              1.0683   XZ=              1.6427   YZ=              1.0836

 Summary of Natural Population Analysis:

                                       Natural Population
                Natural  -----------------------------------------------
    Atom  No    Charge         Core      Valence    Rydberg      Total
 -----------------------------------------------------------------------
      C    1   -0.28552      0.99966     2.28061    0.00524     3.28552
      C    2   -0.20592      0.99961     2.19719    0.00911     3.20592
      C    3    0.07278      0.99951     1.91317    0.01453     2.92722
      C    4   -0.20739      0.99962     2.19859    0.00919     3.20739
      C    5   -0.29073      0.99966     2.28498    0.00609     3.29073
      O    6   -0.30460      0.99987     3.29464    0.01008     4.30460
      C    7    0.03846      0.99953     1.94742    0.01459     2.96154
      C    8   -0.00947      0.99963     1.99651    0.01333     3.00947
      O    9   -0.30645      0.99991     3.29838    0.00815     4.30645
      C   10   -0.01739      0.99963     2.00528    0.01248     3.01739
      H   11    0.09925      0.00000     0.39902    0.00173     0.40075
      H   12    0.10219      0.00000     0.39629    0.00153     0.39781
      H   13    0.09666      0.00000     0.40169    0.00165     0.40334
      H   14    0.09646      0.00000     0.40165    0.00189     0.40354
      H   15    0.10102      0.00000     0.39752    0.00146     0.39898
      H   16    0.09056      0.00000     0.40776    0.00167     0.40944
      H   17    0.09903      0.00000     0.39978    0.00119     0.40097
      H   18    0.10355      0.00000     0.39514    0.00131     0.39645
      H   19    0.09346      0.00000     0.40474    0.00179     0.40654
      H   20    0.10312      0.00000     0.39518    0.00169     0.39688
      H   21    0.10072      0.00000     0.39768    0.00160     0.39928
      H   22    0.09029      0.00000     0.40758    0.00214     0.40971
      H   23    0.08445      0.00000     0.41410    0.00144     0.41555
      H   24    0.08484      0.00000     0.41359    0.00157     0.41516
      H   25    0.08411      0.00000     0.41427    0.00162     0.41589
      H   26    0.08652      0.00000     0.41186    0.00162     0.41348
 =======================================================================
   * Total *    0.00000      9.99663    29.87466    0.12871    40.00000

 Normal termination of Gaussian 16 at Tue Dec  8 10:29:58 2020.
