 Gaussian 16, Revision A.03,

 -----------------------------------------------------------
 # opt freq B3LYP/6-31G(d) empiricaldispersion=gd3bj scf=xqc
 -----------------------------------------------------------

 -------------------------------
 CID_148858139_JID_4703_neutraal
 -------------------------------
 Symbolic Z-matrix:
 Charge =  0 Multiplicity = 1

 SCF Done:  E(RB3LYP) =  -1294.17972295     A.U. after   16 cycles
 SCF Done:  E(RB3LYP) =  -1294.18678421     A.U. after   14 cycles
 SCF Done:  E(RB3LYP) =  -1294.16995516     A.U. after   16 cycles
 SCF Done:  E(RB3LYP) =  -1294.18595876     A.U. after   13 cycles
 SCF Done:  E(RB3LYP) =  -1294.18780991     A.U. after   11 cycles
 SCF Done:  E(RB3LYP) =  -1294.18995315     A.U. after   16 cycles
 SCF Done:  E(RB3LYP) =  -1294.19125389     A.U. after   13 cycles
 SCF Done:  E(RB3LYP) =  -1294.19222251     A.U. after   12 cycles
 SCF Done:  E(RB3LYP) =  -1294.19340359     A.U. after   13 cycles
 SCF Done:  E(RB3LYP) =  -1294.19404735     A.U. after   13 cycles
 SCF Done:  E(RB3LYP) =  -1294.19566183     A.U. after   10 cycles
 SCF Done:  E(RB3LYP) =  -1294.19567270     A.U. after   10 cycles
 SCF Done:  E(RB3LYP) =  -1294.19567290     A.U. after    8 cycles
 SCF Done:  E(RB3LYP) =  -1294.19567302     A.U. after    7 cycles
 SCF Done:  E(RB3LYP) =  -1294.19567311     A.U. after    7 cycles
 Optimization completed.
    -- Stationary point found.
 Normal termination of Gaussian 16 at Thu Dec 10 10:30:23 2020.

 --------------------------------------------------------------------
 #N Geom=AllCheck Guess=TCheck SCRF=Check GenChk RB3LYP/6-31G(d) Freq
 --------------------------------------------------------------------

 Structure from the checkpoint file:  "JID_4703.chk"
 -------------------------------
 CID_148858139_JID_4703_neutraal
 -------------------------------
 Charge =  0 Multiplicity = 1

 SCF Done:  E(RB3LYP) =  -1294.19567311     A.U. after    1 cycles

  Exact polarizability: 238.695  -5.754 140.257  -5.477  10.245  99.913
 Approx polarizability: 320.369 -17.177 238.653 -21.475  26.085 173.973

                      1                      2                      3
                      A                      A                      A
 Frequencies --     24.5157                31.5016                51.1907
 Red. masses --      4.2778                 5.1580                 4.0207
 Frc consts  --      0.0015                 0.0030                 0.0062
 IR Inten    --      0.2858                 1.3918                 0.7482

                      4                      5                      6
                      A                      A                      A
 Frequencies --     82.4152               113.3928               127.7280
 Red. masses --      3.9222                 3.2132                 4.7887
 Frc consts  --      0.0157                 0.0243                 0.0460
 IR Inten    --      0.2603                 3.3834                 1.0431

                      7                      8                      9
                      A                      A                      A
 Frequencies --    144.5893               167.2930               204.3400
 Red. masses --      3.8422                 1.2842                 3.3979
 Frc consts  --      0.0473                 0.0212                 0.0836
 IR Inten    --      4.2644                 0.9084                 0.5006

                     10                     11                     12
                      A                      A                      A
 Frequencies --    217.1893               242.0007               267.2630
 Red. masses --      2.0128                 1.9548                 4.4025
 Frc consts  --      0.0559                 0.0675                 0.1853
 IR Inten    --      1.8298                 0.9233                 0.8661

                     13                     14                     15
                      A                      A                      A
 Frequencies --    313.6914               353.4965               398.9192
 Red. masses --      3.6745                 6.8442                 3.2936
 Frc consts  --      0.2130                 0.5039                 0.3088
 IR Inten    --      4.5545                 2.6026                 1.3399

                     16                     17                     18
                      A                      A                      A
 Frequencies --    412.6642               429.5650               468.8228
 Red. masses --      3.5930                10.2360                 3.2141
 Frc consts  --      0.3605                 1.1129                 0.4162
 IR Inten    --      3.8653                 0.2934                10.9410

                     19                     20                     21
                      A                      A                      A
 Frequencies --    490.7847               497.6354               528.8660
 Red. masses --      3.4028                 3.3440                16.0394
 Frc consts  --      0.4829                 0.4879                 2.6432
 IR Inten    --     11.3462                 2.0774                 0.3228

                     22                     23                     24
                      A                      A                      A
 Frequencies --    632.9312               649.7841               715.3780
 Red. masses --      7.3879                 3.0410                 2.1706
 Frc consts  --      1.7438                 0.7565                 0.6545
 IR Inten    --      1.3469                42.2631                20.2911

                     25                     26                     27
                      A                      A                      A
 Frequencies --    732.8045               752.4387               777.0328
 Red. masses --      6.8490                 3.5790                 1.4068
 Frc consts  --      2.1670                 1.1939                 0.5004
 IR Inten    --     16.8217                 1.9226                40.1465

                     28                     29                     30
                      A                      A                      A
 Frequencies --    805.9528               897.3450               913.1413
 Red. masses --      1.9804                 1.2902                 3.3581
 Frc consts  --      0.7579                 0.6121                 1.6498
 IR Inten    --      6.6444                 0.2032                 0.4614

                     31                     32                     33
                      A                      A                      A
 Frequencies --    948.3261               969.5170               974.7380
 Red. masses --      1.7802                 1.3465                 1.3897
 Frc consts  --      0.9433                 0.7457                 0.7780
 IR Inten    --      8.8472                 1.6123                 0.1817

                     34                     35                     36
                      A                      A                      A
 Frequencies --   1004.9522              1008.4730              1059.4299
 Red. masses --      1.3377                 5.9494                 1.7003
 Frc consts  --      0.7960                 3.5649                 1.1244
 IR Inten    --      0.3361                 7.0412                18.8521

                     37                     38                     39
                      A                      A                      A
 Frequencies --   1064.9965              1071.6491              1074.5612
 Red. masses --      1.7072                 1.4988                 2.6425
 Frc consts  --      1.1409                 1.0141                 1.7977
 IR Inten    --     13.4925                13.0891                 4.3673

                     40                     41                     42
                      A                      A                      A
 Frequencies --   1119.4484              1145.1779              1148.3943
 Red. masses --      1.7880                 2.6225                 2.4759
 Frc consts  --      1.3202                 2.0263                 1.9238
 IR Inten    --     10.2465                74.1921                15.9584

                     43                     44                     45
                      A                      A                      A
 Frequencies --   1171.0322              1186.7991              1288.8013
 Red. masses --      2.4645                 1.1349                 1.1703
 Frc consts  --      1.9912                 0.9418                 1.1453
 IR Inten    --    155.0289                 3.2569                 2.0358

                     46                     47                     48
                      A                      A                      A
 Frequencies --   1316.1628              1325.6879              1415.9653
 Red. masses --      7.5879                 1.4751                 1.2676
 Frc consts  --      7.7445                 1.5274                 1.4974
 IR Inten    --      0.1557                 2.9700                56.9083

                     49                     50                     51
                      A                      A                      A
 Frequencies --   1419.6922              1454.8988              1464.1434
 Red. masses --      1.2382                 1.3841                 2.0279
 Frc consts  --      1.4703                 1.7262                 2.5613
 IR Inten    --     13.3978                13.7893                47.4415

                     52                     53                     54
                      A                      A                      A
 Frequencies --   1495.7381              1504.2597              1513.0823
 Red. masses --      1.0997                 1.8777                 1.0561
 Frc consts  --      1.4496                 2.5034                 1.4245
 IR Inten    --     25.3778                31.0970                 7.9815

                     55                     56                     57
                      A                      A                      A
 Frequencies --   1518.7960              1522.5056              1623.3916
 Red. masses --      1.0511                 1.0606                 5.8652
 Frc consts  --      1.4285                 1.4484                 9.1072
 IR Inten    --      3.0045                10.1357                20.3251

                     58                     59                     60
                      A                      A                      A
 Frequencies --   1634.6494              1706.6157              1735.7068
 Red. masses --      5.0318                 5.9387                10.1503
 Frc consts  --      7.9217                10.1909                18.0169
 IR Inten    --     92.5594                 6.1187               396.4812

                     61                     62                     63
                      A                      A                      A
 Frequencies --   3028.4780              3069.9862              3080.6879
 Red. masses --      1.0446                 1.0348                 1.0931
 Frc consts  --      5.6450                 5.7463                 6.1123
 IR Inten    --     29.7211                 3.4902                29.0491

                     64                     65                     66
                      A                      A                      A
 Frequencies --   3128.3413              3139.2639              3160.1978
 Red. masses --      1.0985                 1.1000                 1.0840
 Frc consts  --      6.3341                 6.3869                 6.3785
 IR Inten    --     13.1477                 2.5183                 3.5061

                     67                     68                     69
                      A                      A                      A
 Frequencies --   3163.9678              3181.6124              3183.9855
 Red. masses --      1.1037                 1.0949                 1.0892
 Frc consts  --      6.5096                 6.5301                 6.5061
 IR Inten    --      1.9573                54.1626                18.4251

                     70                     71                     72
                      A                      A                      A
 Frequencies --   3199.0443              3216.0910              3224.2234
 Red. masses --      1.0882                 1.0930                 1.0977
 Frc consts  --      6.5616                 6.6606                 6.7236
 IR Inten    --      8.0401                 9.0588                16.8253

 - Thermochemistry -
 -------------------
 Temperature   298.150 Kelvin.  Pressure   1.00000 Atm.
 Atom     1 has atomic number  6 and mass  12.00000

 Molecular mass:   224.04419 amu.
 Principal axes and moments of inertia in atomic units:
                           1         2         3
     Eigenvalues --  1425.047396863.100407441.17359
           X            0.99994   0.00056   0.01056
           Y           -0.00083   0.99969   0.02493
           Z           -0.01055  -0.02494   0.99963
 This molecule is an asymmetric top.
 Rotational symmetry number  1.
 Warning -- assumption of classical behavior for rotation
           may cause significant error
 Rotational temperatures (Kelvin)      0.06078     0.01262     0.01164
 Rotational constants (GHZ):           1.26644     0.26296     0.24253
 Zero-point vibrational energy     532985.1 (Joules/Mol)
                                  127.38649 (Kcal/Mol)
 Warning -- explicit consideration of  21 degrees of freedom as
           vibrations may cause significant error
 Vibrational temperatures:     35.27    45.32    73.65   118.58   163.15
          (Kelvin)            183.77   208.03   240.70   294.00   312.49
                              348.19   384.53   451.33   508.60   573.96
                              593.73   618.05   674.53   706.13   715.99
                              760.92   910.65   934.89  1029.27  1054.34
                             1082.59  1117.98  1159.59  1291.08  1313.81
                             1364.43  1394.92  1402.43  1445.90  1450.97
                             1524.28  1532.29  1541.86  1546.05  1610.64
                             1647.66  1652.28  1684.85  1707.54  1854.30
                             1893.66  1907.37  2037.26  2042.62  2093.27
                             2106.58  2152.03  2164.29  2176.99  2185.21
                             2190.55  2335.70  2351.90  2455.44  2497.29
                             4357.30  4417.03  4432.42  4500.99  4516.70
                             4546.82  4552.24  4577.63  4581.05  4602.71
                             4627.24  4638.94

 Zero-point correction=                           0.203003 (Hartree/Particle)
 Thermal correction to Energy=                    0.217816
 Thermal correction to Enthalpy=                  0.218760
 Thermal correction to Gibbs Free Energy=         0.159050
 Sum of electronic and zero-point Energies=          -1293.992670
 Sum of electronic and thermal Energies=             -1293.977857
 Sum of electronic and thermal Enthalpies=           -1293.976913
 Sum of electronic and thermal Free Energies=        -1294.036623

                     E (Thermal)             CV                S
                      KCal/Mol        Cal/Mol-Kelvin    Cal/Mol-Kelvin
 Total                  136.682             53.499            125.671
 Electronic               0.000              0.000              0.000
 Translational            0.889              2.981             42.123
 Rotational               0.889              2.981             32.654
 Vibrational            134.904             47.538             50.895
 Vibration     1          0.593              1.985              6.230
 Vibration     2          0.594              1.983              5.733
 Vibration     3          0.595              1.977              4.771
 Vibration     4          0.600              1.961              3.833
 Vibration     5          0.607              1.938              3.210
 Vibration     6          0.611              1.925              2.980
 Vibration     7          0.616              1.909              2.742
 Vibration     8          0.624              1.883              2.466
 Vibration     9          0.640              1.834              2.094
 Vibration    10          0.646              1.815              1.982
 Vibration    11          0.658              1.776              1.788
 Vibration    12          0.672              1.733              1.614
 Vibration    13          0.702              1.648              1.343
 Vibration    14          0.730              1.568              1.151
 Vibration    15          0.765              1.472              0.967
 Vibration    16          0.776              1.443              0.917
 Vibration    17          0.791              1.406              0.860
 Vibration    18          0.826              1.319              0.741
 Vibration    19          0.847              1.270              0.682
 Vibration    20          0.853              1.255              0.664
 Vibration    21          0.884              1.186              0.590

                           ! Non-Optimized Parameters !
 Normal termination of Gaussian 16 at Thu Dec 10 10:36:39 2020.

 ----------------------------------------------------------------------
 # B3LYP/6-311++G(d,p) empiricaldispersion=gd3bj scf=xqc pop=npa geom=c
 heck
 ----------------------------------------------------------------------

 ---------------------------------------
 CID_148858139_JID_4703_Energie_neutraal
 ---------------------------------------
 Structure from the checkpoint file:  "JID_4703.chk"
 Charge =  0 Multiplicity = 1

 SCF Done:  E(RB3LYP) =  -1294.38178624     A.U. after   18 cycles
 Normal termination of Gaussian 16 at Thu Dec 10 10:40:46 2020.

 ----------------------------------------------------------------------
 # B3LYP/6-311++G(d,p) empiricaldispersion=gd3bj scf=xqc pop=npa geom=c
 heck
 ----------------------------------------------------------------------

 -------------------------------------
 CID_148858139_JID_4703_Energie_kation
 -------------------------------------
 Structure from the checkpoint file:  "JID_4703.chk"
 Charge =  1 Multiplicity = 2

 SCF Done:  E(UB3LYP) =  -1294.09697773     A.U. after   26 cycles
 Normal termination of Gaussian 16 at Thu Dec 10 10:49:35 2020.
 Gaussian 16:  ES64L-G16RevA.03 25-Dec-2016

 ----------------------------------------------------------------------
 # B3LYP/6-311++G(d,p) empiricaldispersion=gd3bj scf=xqc pop=npa geom=c
 heck
 ----------------------------------------------------------------------

 ------------------------------------
 CID_148858139_JID_4703_Energie_anion
 ------------------------------------
 Structure from the checkpoint file:  "JID_4703.chk"
 Charge = -1 Multiplicity = 2

                         Standard orientation:
 ---------------------------------------------------------------------
 Center     Atomic      Atomic             Coordinates (Angstroms)
 Number     Number       Type             X           Y           Z
 ---------------------------------------------------------------------
      1          6           0       -4.558693   -0.290117   -1.172310
      2          6           0       -4.531826    0.918085   -0.282727
      3          6           0       -3.625993    1.176778    0.674146
      4          7           0       -2.566565    0.350481    1.063995
      5          6           0       -1.613159    0.013282    0.296856
      6          6           0       -1.317000    0.471699   -1.101335
      7         16           0       -0.492665   -1.143345    1.128291
      8         16           0        0.951018   -1.673898   -0.261256
      9          6           0        2.191081   -0.371592   -0.135948
     10          6           0        3.518055   -0.714179   -0.427087
     11          6           0        4.473591    0.296092   -0.390068
     12          6           0        4.079722    1.591790   -0.050015
     13          6           0        2.734026    1.817092    0.230132
     14          7           0        1.798827    0.859574    0.177811
     15          1           0       -3.879456   -1.069502   -0.814493
     16          1           0       -4.268902   -0.043188   -2.203759
     17          1           0       -5.568188   -0.716076   -1.220846
     18          1           0       -5.345978    1.631708   -0.392978
     19          1           0       -3.750491    2.046146    1.317820
     20          1           0       -0.304821    0.883406   -1.141317
     21          1           0       -1.373055   -0.361680   -1.808904
     22          1           0       -2.043469    1.234603   -1.388550
     23          1           0        3.786442   -1.739885   -0.657983
     24          1           0        5.514036    0.071904   -0.607223
     25          1           0        4.795531    2.405521    0.000509
     26          1           0        2.380023    2.808969    0.502650
 ---------------------------------------------------------------------

 SCF Done:  E(UB3LYP) =  -1294.38341040     A.U. after   33 cycles
 SCF Done:  E(UB3LYP) =  -1294.38341040     a.u. after    1 cycles

 The electronic state is 2-A.
 Alpha  occ. eigenvalues --  -88.72065 -88.71722 -14.19142 -14.15184 -10.13100
 Alpha  occ. eigenvalues --  -10.09378 -10.08590 -10.07026 -10.06832 -10.06477
 Alpha  occ. eigenvalues --  -10.05536 -10.04615 -10.03813 -10.03760  -7.80640
 Alpha  occ. eigenvalues --   -7.80283  -5.77074  -5.76732  -5.76643  -5.76256
 Alpha  occ. eigenvalues --   -5.76048  -5.75680  -0.82704  -0.80605  -0.69202
 Alpha  occ. eigenvalues --   -0.66874  -0.66381  -0.63547  -0.60740  -0.58727
 Alpha  occ. eigenvalues --   -0.54082  -0.49613  -0.48806  -0.45624  -0.39200
 Alpha  occ. eigenvalues --   -0.38120  -0.37724  -0.35276  -0.34746  -0.33879
 Alpha  occ. eigenvalues --   -0.32650  -0.31700  -0.31042  -0.28917  -0.28343
 Alpha  occ. eigenvalues --   -0.27182  -0.26656  -0.26270  -0.25296  -0.22854
 Alpha  occ. eigenvalues --   -0.21168  -0.19852  -0.18953  -0.16177  -0.15096
 Alpha  occ. eigenvalues --   -0.12148  -0.12057  -0.10464  -0.09412   0.05049
 Alpha virt. eigenvalues --    0.06548   0.08363   0.08624   0.09372   0.09569
 Alpha virt. eigenvalues --    0.09771   0.10248   0.10337   0.11180   0.11728
 Alpha virt. eigenvalues --    0.12170   0.12779   0.13144   0.13410   0.14058

  Beta  occ. eigenvalues --  -88.71939 -88.71636 -14.19125 -14.14739 -10.13112
  Beta  occ. eigenvalues --  -10.09372 -10.08458 -10.07018 -10.06823 -10.06467
  Beta  occ. eigenvalues --  -10.05529 -10.04680 -10.03725 -10.03436  -7.80517
  Beta  occ. eigenvalues --   -7.80193  -5.76805  -5.76549  -5.76486  -5.76187
  Beta  occ. eigenvalues --   -5.75962  -5.75605  -0.82673  -0.80000  -0.69027
  Beta  occ. eigenvalues --   -0.66516  -0.65846  -0.63387  -0.60448  -0.58676
  Beta  occ. eigenvalues --   -0.53695  -0.49307  -0.48610  -0.45189  -0.39080
  Beta  occ. eigenvalues --   -0.38081  -0.37587  -0.35217  -0.34486  -0.33726
  Beta  occ. eigenvalues --   -0.32469  -0.31677  -0.30952  -0.28755  -0.28294
  Beta  occ. eigenvalues --   -0.26678  -0.26119  -0.26005  -0.25010  -0.22648
  Beta  occ. eigenvalues --   -0.21017  -0.19312  -0.18643  -0.15039  -0.13881
  Beta  occ. eigenvalues --   -0.12024  -0.11550  -0.10183  -0.08871
  Beta virt. eigenvalues --    0.06654   0.08289   0.08605   0.09320   0.09509
  Beta virt. eigenvalues --    0.09727   0.10237   0.10306   0.11012   0.11418
  Beta virt. eigenvalues --    0.12028   0.12465   0.12704   0.13219   0.13387

 Mulliken charges and spin densities:
               1          2
     1  C   -0.416699  -0.281331
     2  C    0.078610   0.034168
     3  C   -0.110161  -0.058418
     4  N    0.262605  -0.024524
     5  C   -0.338768   0.103528
     6  C   -0.505209  -0.165921
     7  S    0.035165   0.196637
     8  S   -0.610337   0.186181
     9  C   -0.011794   0.140003
    10  C    0.130612  -0.114214
    11  C   -0.469766   0.180172
    12  C   -0.125969   0.107164
    13  C   -0.141166   0.009914
    14  N    0.006086   0.198120
    15  H    0.121881   0.056071
    16  H    0.107438   0.033251
    17  H   -0.021952   0.151843
    18  H   -0.017995   0.159564
    19  H    0.095847   0.051778
    20  H    0.168388  -0.012741
    21  H    0.165763   0.006237
    22  H    0.150609  -0.008424
    23  H    0.070041   0.084244
    24  H    0.123697  -0.028357
    25  H    0.115265  -0.003301
    26  H    0.137808  -0.001646
 Sum of Mulliken charges =  -1.00000   1.00000

 Dipole moment (field-independent basis, Debye):
    X=             -1.1862    Y=              1.2518    Z=             -2.1337  Tot=              2.7435
 Quadrupole moment (field-independent basis, Debye-Ang):
   XX=           -151.1797   YY=           -113.5515   ZZ=           -115.2576
   XY=             -1.6496   XZ=              4.1196   YZ=              1.6310

 Summary of Natural Population Analysis:

                                       Natural Population
                Natural  -----------------------------------------------
    Atom  No    Charge         Core      Valence    Rydberg      Total
 -----------------------------------------------------------------------
      C    1   -0.30623      0.99965     2.30094    0.00564     3.30623
      C    2   -0.13027      0.99955     2.12116    0.00956     3.13027
      C    3   -0.00119      0.99948     1.98782    0.01389     3.00119
      N    4   -0.26787      0.99957     2.75287    0.01543     3.76787
      C    5    0.08987      0.99954     1.88840    0.02220     2.91013
      C    6   -0.33764      0.99958     2.33199    0.00607     3.33764
      S    7    0.11706      4.99956     2.86151    0.02187     7.88294
      S    8    0.06265      4.99956     2.91614    0.02165     7.93735
      C    9    0.05666      0.99946     1.92492    0.01897     2.94334
      C   10   -0.14645      0.99949     2.13714    0.00982     3.14645
      C   11   -0.02969      0.99957     2.02116    0.00896     3.02969
      C   12   -0.12789      0.99957     2.11944    0.00889     3.12789
      C   13    0.02820      0.99959     1.95809    0.01412     2.97180
      N   14   -0.20332      0.99964     2.68930    0.01439     3.70332
      H   15    0.10710      0.00000     0.39140    0.00150     0.39290
      H   16    0.09924      0.00000     0.39923    0.00153     0.40076
      H   17    0.09820      0.00000     0.40059    0.00121     0.40180
      H   18    0.09163      0.00000     0.40714    0.00123     0.40837
      H   19    0.09154      0.00000     0.40733    0.00113     0.40846
      H   20    0.13073      0.00000     0.36789    0.00138     0.36927
      H   21    0.11136      0.00000     0.38662    0.00201     0.38864
      H   22    0.10535      0.00000     0.39344    0.00121     0.39465
      H   23    0.09990      0.00000     0.39862    0.00147     0.40010
      H   24    0.08793      0.00000     0.41113    0.00094     0.41207
      H   25    0.09211      0.00000     0.40677    0.00113     0.40789
      H   26    0.08105      0.00000     0.41777    0.00118     0.41895
 =======================================================================
   * Total *   -0.00000     21.99381    36.79881    0.20738    59.00000

 Normal termination of Gaussian 16 at Thu Dec 10 11:01:09 2020.
