 Gaussian 16, Revision A.03,

 -----------------------------------------------------------
 # opt freq B3LYP/6-31G(d) empiricaldispersion=gd3bj scf=xqc
 -----------------------------------------------------------

 -------------------------------
 CID_115618278_JID_7627_neutraal
 -------------------------------
 Symbolic Z-matrix:
 Charge =  0 Multiplicity = 1

 SCF Done:  E(RB3LYP) =  -750.003334773     A.U. after   14 cycles
 SCF Done:  E(RB3LYP) =  -750.008496442     A.U. after   12 cycles
 SCF Done:  E(RB3LYP) =  -750.008854137     A.U. after   12 cycles
 SCF Done:  E(RB3LYP) =  -750.010081295     A.U. after   11 cycles
 SCF Done:  E(RB3LYP) =  -750.010375787     A.U. after   11 cycles
 SCF Done:  E(RB3LYP) =  -750.010477564     A.U. after   11 cycles
 SCF Done:  E(RB3LYP) =  -750.010547858     A.U. after   10 cycles
 SCF Done:  E(RB3LYP) =  -750.010632106     A.U. after   11 cycles
 SCF Done:  E(RB3LYP) =  -750.010711798     A.U. after   11 cycles
 SCF Done:  E(RB3LYP) =  -750.010798632     A.U. after   11 cycles
 SCF Done:  E(RB3LYP) =  -750.011584714     A.U. after    9 cycles
 SCF Done:  E(RB3LYP) =  -750.011585190     A.U. after    9 cycles
 SCF Done:  E(RB3LYP) =  -750.011586066     A.U. after    9 cycles
 SCF Done:  E(RB3LYP) =  -750.011586337     A.U. after    9 cycles
 SCF Done:  E(RB3LYP) =  -750.011586369     A.U. after    6 cycles
 Optimization completed.
    -- Stationary point found.
 Normal termination of Gaussian 16 at Fri Dec 11 13:54:00 2020.

 --------------------------------------------------------------------
 #N Geom=AllCheck Guess=TCheck SCRF=Check GenChk RB3LYP/6-31G(d) Freq
 --------------------------------------------------------------------

 Structure from the checkpoint file:  "JID_7627.chk"
 -------------------------------
 CID_115618278_JID_7627_neutraal
 -------------------------------
 Charge =  0 Multiplicity = 1

 SCF Done:  E(RB3LYP) =  -750.011586369     A.U. after    1 cycles

  Exact polarizability: 199.989  -0.328 139.673   4.080  -1.328 132.487
 Approx polarizability: 221.215   3.392 225.053   6.375  -7.279 196.997

                      1                      2                      3
                      A                      A                      A
 Frequencies --     10.4554                33.2616                46.1589
 Red. masses --      2.7233                 3.7044                 3.5432
 Frc consts  --      0.0002                 0.0024                 0.0044
 IR Inten    --      0.2346                 0.2633                 0.7361

                      4                      5                      6
                      A                      A                      A
 Frequencies --     67.5785                78.0058               107.1911
 Red. masses --      3.7503                 2.9362                 3.3791
 Frc consts  --      0.0101                 0.0105                 0.0229
 IR Inten    --      0.4397                 1.0946                 2.3918

                      7                      8                      9
                      A                      A                      A
 Frequencies --    132.3567               140.1939               179.4417
 Red. masses --      2.7683                 3.8421                 3.3796
 Frc consts  --      0.0286                 0.0445                 0.0641
 IR Inten    --      0.7513                 0.7072                 0.5117

                     10                     11                     12
                      A                      A                      A
 Frequencies --    205.1142               241.8245               243.2521
 Red. masses --      2.6790                 1.6833                 1.1359
 Frc consts  --      0.0664                 0.0580                 0.0396
 IR Inten    --      2.2881                 0.2602                 0.0498

                     13                     14                     15
                      A                      A                      A
 Frequencies --    266.3651               278.6536               294.1818
 Red. masses --      1.7389                 1.6947                 2.6234
 Frc consts  --      0.0727                 0.0775                 0.1338
 IR Inten    --      0.3817                 2.6306                 1.7780

                     16                     17                     18
                      A                      A                      A
 Frequencies --    319.4095               331.4002               364.9722
 Red. masses --      2.5336                 2.6354                 2.2368
 Frc consts  --      0.1523                 0.1705                 0.1755
 IR Inten    --      4.3468                 0.4963                 0.6595

                     19                     20                     21
                      A                      A                      A
 Frequencies --    405.6765               441.4124               463.8051
 Red. masses --      2.4421                 2.7089                 3.0196
 Frc consts  --      0.2368                 0.3110                 0.3827
 IR Inten    --      2.1105                 6.6549                 1.7108

                     22                     23                     24
                      A                      A                      A
 Frequencies --    465.2153               475.5113               507.0456
 Red. masses --      2.9323                 2.9365                 2.0604
 Frc consts  --      0.3739                 0.3912                 0.3121
 IR Inten    --      2.8830                 9.1861                 5.3141

                     25                     26                     27
                      A                      A                      A
 Frequencies --    524.8012               593.3309               637.0481
 Red. masses --      2.1548                 3.0862                 3.6658
 Frc consts  --      0.3497                 0.6401                 0.8765
 IR Inten    --      1.4053                51.2565                 3.0970

                     28                     29                     30
                      A                      A                      A
 Frequencies --    664.1763               729.0446               798.1501
 Red. masses --      2.6944                 2.5386                 3.3226
 Frc consts  --      0.7003                 0.7950                 1.2471
 IR Inten    --      5.3519                35.3779                10.2448

                     31                     32                     33
                      A                      A                      A
 Frequencies --    802.8957               823.5242               833.7945
 Red. masses --      3.4241                 2.5070                 1.5984
 Frc consts  --      1.3005                 1.0018                 0.6547
 IR Inten    --     49.1441                 2.8314                 1.3886

                     34                     35                     36
                      A                      A                      A
 Frequencies --    859.2704               873.3163               877.5775
 Red. masses --      1.8414                 2.4334                 2.3055
 Frc consts  --      0.8010                 1.0935                 1.0461
 IR Inten    --      2.0427                 1.9526                 7.5907

                     37                     38                     39
                      A                      A                      A
 Frequencies --    881.4111               901.6272               928.4254
 Red. masses --      1.4143                 2.5645                 2.2994
 Frc consts  --      0.6474                 1.2283                 1.1678
 IR Inten    --      3.9954                 9.2514                 0.7345

                     40                     41                     42
                      A                      A                      A
 Frequencies --    945.0552               959.6541               968.1473
 Red. masses --      1.2153                 1.4992                 1.4261
 Frc consts  --      0.6395                 0.8135                 0.7876
 IR Inten    --      2.9503                 2.0892                 0.4435

                     43                     44                     45
                      A                      A                      A
 Frequencies --    990.4220               991.5006              1020.2015
 Red. masses --      1.7708                 1.2866                 2.4033
 Frc consts  --      1.0235                 0.7452                 1.4738
 IR Inten    --      0.7166                 0.9405                 1.7658

                     46                     47                     48
                      A                      A                      A
 Frequencies --   1026.8938              1060.6375              1078.6537
 Red. masses --      2.2005                 2.1396                 1.6609
 Frc consts  --      1.3672                 1.4181                 1.1386
 IR Inten    --      8.7707                10.6307                 7.1949

                     49                     50                     51
                      A                      A                      A
 Frequencies --   1091.5646              1110.4982              1131.1020
 Red. masses --      2.2392                 2.4028                 2.3567
 Frc consts  --      1.5720                 1.7458                 1.7765
 IR Inten    --     26.0236                 5.7093                 6.3243

                     52                     53                     54
                      A                      A                      A
 Frequencies --   1149.4866              1159.8452              1164.4004
 Red. masses --      2.3711                 2.2495                 2.0337
 Frc consts  --      1.8459                 1.7830                 1.6246
 IR Inten    --     29.9987                16.3936                 9.3107

                     55                     56                     57
                      A                      A                      A
 Frequencies --   1186.1748              1189.9597              1203.7183
 Red. masses --      2.3149                 1.2949                 2.2409
 Frc consts  --      1.9190                 1.0803                 1.9131
 IR Inten    --     22.5062                 3.6571                31.8987

                     58                     59                     60
                      A                      A                      A
 Frequencies --   1210.5094              1221.0447              1233.8476
 Red. masses --      2.2510                 3.0785                 1.3621
 Frc consts  --      1.9434                 2.7043                 1.2218
 IR Inten    --     80.4016                14.1665                 8.5762

                     61                     62                     63
                      A                      A                      A
 Frequencies --   1243.5790              1265.7836              1293.0891
 Red. masses --      1.5280                 1.5397                 1.5847
 Frc consts  --      1.3923                 1.4534                 1.5612
 IR Inten    --     14.8640                32.8651                48.0958

                     64                     65                     66
                      A                      A                      A
 Frequencies --   1305.0563              1314.1414              1324.1871
 Red. masses --      1.2449                 1.1890                 1.3057
 Frc consts  --      1.2492                 1.2098                 1.3489
 IR Inten    --      1.6956                 9.5533                 2.5792

                     67                     68                     69
                      A                      A                      A
 Frequencies --   1352.8812              1356.2175              1366.1770
 Red. masses --      1.3514                 1.3846                 1.3146
 Frc consts  --      1.4573                 1.5005                 1.4456
 IR Inten    --      6.1674                 4.5454                 5.2474

                     70                     71                     72
                      A                      A                      A
 Frequencies --   1373.3759              1375.5545              1389.4904
 Red. masses --      1.3032                 1.3281                 1.2922
 Frc consts  --      1.4483                 1.4806                 1.4699
 IR Inten    --      1.0378                20.1596                15.2799

                     73                     74                     75
                      A                      A                      A
 Frequencies --   1393.7474              1401.8678              1404.5962
 Red. masses --      1.3761                 1.3747                 1.5043
 Frc consts  --      1.5749                 1.5917                 1.7486
 IR Inten    --     12.9661                 5.3063                 7.2175

                     76                     77                     78
                      A                      A                      A
 Frequencies --   1406.5950              1424.0551              1428.4494
 Red. masses --      1.4631                 2.1551                 1.6491
 Frc consts  --      1.7056                 2.5749                 1.9826
 IR Inten    --      0.9922               281.5683               157.0153

                     79                     80                     81
                      A                      A                      A
 Frequencies --   1438.9318              1446.0559              1456.1076
 Red. masses --      1.5238                 1.2527                 1.4271
 Frc consts  --      1.8589                 1.5434                 1.7828
 IR Inten    --    126.3788                22.2651                38.8814

                     82                     83                     84
                      A                      A                      A
 Frequencies --   1488.9505              1505.5488              1513.5424
 Red. masses --      1.3679                 1.0990                 1.0862
 Frc consts  --      1.7868                 1.4677                 1.4661
 IR Inten    --     14.5421                 1.2243                 6.0692

                     85                     86                     87
                      A                      A                      A
 Frequencies --   1517.3131              1519.2372              1522.6753
 Red. masses --      1.0583                 1.0453                 1.1030
 Frc consts  --      1.4355                 1.4215                 1.5067
 IR Inten    --      3.2228                 1.8669                 9.2569

                     88                     89                     90
                      A                      A                      A
 Frequencies --   1523.8393              1525.8538              1533.3942
 Red. masses --      1.0905                 1.0891                 1.0736
 Frc consts  --      1.4919                 1.4940                 1.4873
 IR Inten    --      0.7358                 1.1684                 1.8347

                     91                     92                     93
                      A                      A                      A
 Frequencies --   1540.6159              1541.5924              1542.1666
 Red. masses --      1.0968                 1.0567                 1.0916
 Frc consts  --      1.5337                 1.4796                 1.5296
 IR Inten    --      3.3530                 2.8081                 2.7060

                     94                     95                     96
                      A                      A                      A
 Frequencies --   1562.3069              1768.9646              2906.7777
 Red. masses --      1.0982                 7.1161                 1.0734
 Frc consts  --      1.5793                13.1199                 5.3439
 IR Inten    --      5.3363               354.3293                37.2499

                     97                     98                     99
                      A                      A                      A
 Frequencies --   2918.5630              3024.9706              3039.5543
 Red. masses --      1.0726                 1.0672                 1.0762
 Frc consts  --      5.3830                 5.7535                 5.8581
 IR Inten    --     89.2445                30.0628                38.1760

                    100                    101                    102
                      A                      A                      A
 Frequencies --   3044.2288              3045.6949              3046.6991
 Red. masses --      1.0383                 1.0610                 1.0628
 Frc consts  --      5.6691                 5.7988                 5.8127
 IR Inten    --     18.6215                24.4824                45.1259

                    103                    104                    105
                      A                      A                      A
 Frequencies --   3046.9547              3049.3282              3053.5102
 Red. masses --      1.0616                 1.0378                 1.0789
 Frc consts  --      5.8071                 5.6853                 5.9271
 IR Inten    --     24.1215                19.6434                30.0847

                    106                    107                    108
                      A                      A                      A
 Frequencies --   3076.1880              3078.2627              3080.6397
 Red. masses --      1.0705                 1.0890                 1.0865
 Frc consts  --      5.9684                 6.0799                 6.0750
 IR Inten    --     15.3084                84.3534                39.6663

                    109                    110                    111
                      A                      A                      A
 Frequencies --   3087.4769              3088.0424              3090.0606
 Red. masses --      1.0941                 1.1051                 1.0895
 Frc consts  --      6.1447                 6.2089                 6.1294
 IR Inten    --     12.3841                17.3920                 9.2395

                    112                    113                    114
                      A                      A                      A
 Frequencies --   3093.8778              3104.6310              3111.2070
 Red. masses --      1.1047                 1.0865                 1.1004
 Frc consts  --      6.2300                 6.1703                 6.2759
 IR Inten    --     76.0347                35.3341                 3.8791

                    115                    116                    117
                      A                      A                      A
 Frequencies --   3122.6473              3124.2787              3132.5451
 Red. masses --      1.0984                 1.1051                 1.1015
 Frc consts  --      6.3105                 6.3556                 6.3683
 IR Inten    --     68.7669                34.0389                26.2462

                    118                    119                    120
                      A                      A                      A
 Frequencies --   3135.4121              3180.6131              3552.4825
 Red. masses --      1.1033                 1.0926                 1.0744
 Frc consts  --      6.3906                 6.5121                 7.9889
 IR Inten    --     28.6540                 3.1520                13.3939

 - Thermochemistry -
 -------------------
 Temperature   298.150 Kelvin.  Pressure   1.00000 Atm.
 Atom     1 has atomic number  6 and mass  12.00000

 Molecular mass:   239.19976 amu.
 Principal axes and moments of inertia in atomic units:
                           1         2         3
     Eigenvalues --  1339.83103********************
           X            0.99998  -0.00699  -0.00038
           Y            0.00699   0.99453   0.10424
           Z           -0.00035  -0.10424   0.99455
 This molecule is an asymmetric top.
 Rotational symmetry number  1.
 Warning -- assumption of classical behavior for rotation
           may cause significant error
 Rotational temperatures (Kelvin)      0.06465     0.00855     0.00844
 Rotational constants (GHZ):           1.34699     0.17811     0.17596
 Zero-point vibrational energy    1007978.1 (Joules/Mol)
                                  240.91255 (Kcal/Mol)
 Warning -- explicit consideration of  26 degrees of freedom as
           vibrations may cause significant error
 Vibrational temperatures:     15.04    47.86    66.41    97.23   112.23
          (Kelvin)            154.22   190.43   201.71   258.18   295.11
                              347.93   349.99   383.24   400.92   423.26
                              459.56   476.81   525.11   583.68   635.09
                              667.31   669.34   684.15   729.53   755.07
                              853.67   916.57   955.60  1048.93  1148.36
                             1155.19  1184.87  1199.64  1236.30  1256.51
                             1262.64  1268.15  1297.24  1335.80  1359.72
                             1380.73  1392.95  1425.00  1426.55  1467.84
                             1477.47  1526.02  1551.94  1570.52  1597.76
                             1627.40  1653.85  1668.76  1675.31  1706.64
                             1712.09  1731.88  1741.65  1756.81  1775.23
                             1789.23  1821.18  1860.47  1877.68  1890.76
                             1905.21  1946.49  1951.29  1965.62  1975.98
                             1979.12  1999.17  2005.29  2016.98  2020.90
                             2023.78  2048.90  2055.22  2070.30  2080.55
                             2095.01  2142.27  2166.15  2177.65  2183.08
                             2185.84  2190.79  2192.46  2195.36  2206.21
                             2216.60  2218.01  2218.83  2247.81  2545.15
                             4182.20  4199.16  4352.26  4373.24  4379.97
                             4382.08  4383.52  4383.89  4387.30  4393.32
                             4425.95  4428.93  4432.35  4442.19  4443.00
                             4445.91  4451.40  4466.87  4476.33  4492.79
                             4495.14  4507.03  4511.16  4576.19  5111.23

 Zero-point correction=                           0.383919 (Hartree/Particle)
 Thermal correction to Energy=                    0.401340
 Thermal correction to Enthalpy=                  0.402284
 Thermal correction to Gibbs Free Energy=         0.336731
 Sum of electronic and zero-point Energies=           -749.627668
 Sum of electronic and thermal Energies=              -749.610246
 Sum of electronic and thermal Enthalpies=            -749.609302
 Sum of electronic and thermal Free Energies=         -749.674856

                     E (Thermal)             CV                S
                      KCal/Mol        Cal/Mol-Kelvin    Cal/Mol-Kelvin
 Total                  251.845             66.843            137.970
 Electronic               0.000              0.000              0.000
 Translational            0.889              2.981             42.318
 Rotational               0.889              2.981             33.298
 Vibrational            250.067             60.882             62.354
 Vibration     1          0.593              1.987              7.923
 Vibration     2          0.594              1.983              5.625
 Vibration     3          0.595              1.979              4.976
 Vibration     4          0.598              1.970              4.223
 Vibration     5          0.599              1.964              3.940
 Vibration     6          0.606              1.943              3.319
 Vibration     7          0.612              1.921              2.912
 Vibration     8          0.615              1.913              2.801
 Vibration     9          0.629              1.868              2.334
 Vibration    10          0.640              1.833              2.087
 Vibration    11          0.658              1.776              1.789
 Vibration    12          0.659              1.774              1.779
 Vibration    13          0.672              1.735              1.620
 Vibration    14          0.679              1.713              1.542
 Vibration    15          0.689              1.685              1.450
 Vibration    16          0.705              1.636              1.313
 Vibration    17          0.714              1.613              1.253
 Vibration    18          0.738              1.544              1.101
 Vibration    19          0.771              1.458              0.942
 Vibration    20          0.801              1.380              0.822
 Vibration    21          0.821              1.330              0.755
 Vibration    22          0.823              1.327              0.751
 Vibration    23          0.832              1.304              0.722
 Vibration    24          0.862              1.234              0.641
 Vibration    25          0.880              1.195              0.599
 Vibration    26          0.951              1.046              0.461

 Optimization completed.
    -- Stationary point found.
 Normal termination of Gaussian 16 at Fri Dec 11 14:11:08 2020.

 ----------------------------------------------------------------------
 # B3LYP/6-311++G(d,p) empiricaldispersion=gd3bj scf=xqc pop=npa geom=c
 heck
 ----------------------------------------------------------------------

 ---------------------------------------
 CID_115618278_JID_7627_Energie_neutraal
 ---------------------------------------
 Structure from the checkpoint file:  "JID_7627.chk"
 Charge =  0 Multiplicity = 1

 SCF Done:  E(RB3LYP) =  -750.222086936     A.U. after   14 cycles
 Normal termination of Gaussian 16 at Fri Dec 11 14:19:24 2020.

 ----------------------------------------------------------------------
 # B3LYP/6-311++G(d,p) empiricaldispersion=gd3bj scf=xqc pop=npa geom=c
 heck
 ----------------------------------------------------------------------

 -------------------------------------
 CID_115618278_JID_7627_Energie_kation
 -------------------------------------
 Structure from the checkpoint file:  "JID_7627.chk"
 Charge =  1 Multiplicity = 2

 SCF Done:  E(UB3LYP) =  -749.941330606     A.U. after   27 cycles
 Normal termination of Gaussian 16 at Fri Dec 11 14:41:52 2020.
 Gaussian 16:  ES64L-G16RevA.03 25-Dec-2016

 ----------------------------------------------------------------------
 # B3LYP/6-311++G(d,p) empiricaldispersion=gd3bj scf=xqc pop=npa geom=c
 heck
 ----------------------------------------------------------------------

 ------------------------------------
 CID_115618278_JID_7627_Energie_anion
 ------------------------------------
 Structure from the checkpoint file:  "JID_7627.chk"
 Charge = -1 Multiplicity = 2

                         Standard orientation:
 ---------------------------------------------------------------------
 Center     Atomic      Atomic             Coordinates (Angstroms)
 Number     Number       Type             X           Y           Z
 ---------------------------------------------------------------------
      1          6           0        4.229970   -0.849279   -1.393028
      2          6           0        4.134560   -0.582892    0.113818
      3          6           0        5.513360   -0.537912    0.773081
      4          7           0        3.446892    0.684919    0.425388
      5          6           0        2.248282    1.093576   -0.167416
      6          8           0        2.114974    2.242716   -0.583389
      7          7           0        1.237821    0.152258   -0.221403
      8          6           0        1.095807   -0.929867    0.775539
      9          6           0       -0.422156   -1.125611    0.940235
     10          6           0       -1.029405    0.204536    0.432622
     11          6           0       -0.075495    0.585912   -0.708554
     12          7           0       -2.439707    0.236922    0.071266
     13          6           0       -2.888601   -0.813210   -0.841786
     14          6           0       -4.282849   -0.486237   -1.382983
     15          6           0       -5.279688   -0.316729   -0.231215
     16          6           0       -4.749801    0.705878    0.780130
     17          6           0       -3.330647    0.345053    1.225886
     18          1           0        4.806117   -0.058481   -1.887884
     19          1           0        3.233623   -0.878766   -1.844564
     20          1           0        4.725378   -1.807823   -1.586678
     21          1           0        3.574196   -1.399645    0.577101
     22          1           0        6.128523    0.258001    0.333434
     23          1           0        5.425483   -0.350734    1.848067
     24          1           0        6.040711   -1.485573    0.625386
     25          1           0        4.079914    1.477531    0.377293
     26          1           0        1.579543   -0.628667    1.710862
     27          1           0        1.574303   -1.855074    0.434990
     28          1           0       -0.764445   -1.953559    0.310866
     29          1           0       -0.696755   -1.359417    1.972822
     30          1           0       -0.893671    0.958955    1.217554
     31          1           0       -0.328409    0.059822   -1.637748
     32          1           0       -0.053849    1.655399   -0.908892
     33          1           0       -2.924642   -1.802720   -0.343047
     34          1           0       -2.177904   -0.897914   -1.668893
     35          1           0       -4.607680   -1.282447   -2.064029
     36          1           0       -4.223842    0.442995   -1.963247
     37          1           0       -6.263591   -0.014485   -0.609307
     38          1           0       -5.416240   -1.285389    0.271682
     39          1           0       -4.725639    1.701181    0.318935
     40          1           0       -5.406981    0.763380    1.656540
     41          1           0       -2.937795    1.121877    1.891363
     42          1           0       -3.361190   -0.598171    1.809771
 ---------------------------------------------------------------------

 SCF Done:  E(UB3LYP) =  -750.210872414     A.U. after   33 cycles
 SCF Done:  E(UB3LYP) =  -750.210872414     a.u. after    1 cycles

 The electronic state is 2-A.
 Alpha  occ. eigenvalues --  -18.98531 -14.23952 -14.22949 -14.21572 -10.19445
 Alpha  occ. eigenvalues --  -10.12143 -10.11135 -10.11130 -10.10400 -10.10237
 Alpha  occ. eigenvalues --  -10.10086 -10.08009 -10.07937 -10.07875 -10.07686
 Alpha  occ. eigenvalues --  -10.07652 -10.06943  -0.95120  -0.85521  -0.83691
 Alpha  occ. eigenvalues --   -0.81971  -0.71848  -0.68716  -0.67234  -0.66745
 Alpha  occ. eigenvalues --   -0.64148  -0.60413  -0.56787  -0.54078  -0.54009
 Alpha  occ. eigenvalues --   -0.51399  -0.49894  -0.46809  -0.46191  -0.43141
 Alpha  occ. eigenvalues --   -0.42191  -0.38990  -0.37768  -0.37358  -0.36963
 Alpha  occ. eigenvalues --   -0.35792  -0.35297  -0.34830  -0.34462  -0.33638
 Alpha  occ. eigenvalues --   -0.32360  -0.31268  -0.31113  -0.30794  -0.30335
 Alpha  occ. eigenvalues --   -0.29405  -0.28992  -0.28944  -0.27459  -0.26885
 Alpha  occ. eigenvalues --   -0.26411  -0.26099  -0.25169  -0.24313  -0.24079
 Alpha  occ. eigenvalues --   -0.23171  -0.22773  -0.18188  -0.15410  -0.15042
 Alpha  occ. eigenvalues --   -0.12578   0.03929
 Alpha virt. eigenvalues --    0.05402   0.06617   0.06659   0.07580   0.07781
 Alpha virt. eigenvalues --    0.07972   0.08921   0.09178   0.09698   0.09923
 Alpha virt. eigenvalues --    0.10320   0.10709   0.11070   0.11283   0.11879

  Beta  occ. eigenvalues --  -18.98530 -14.23952 -14.22944 -14.21565 -10.19445
  Beta  occ. eigenvalues --  -10.12133 -10.11125 -10.11111 -10.10389 -10.10222
  Beta  occ. eigenvalues --  -10.10080 -10.07994 -10.07926 -10.07865 -10.07664
  Beta  occ. eigenvalues --  -10.07617 -10.06918  -0.95116  -0.85508  -0.83677
  Beta  occ. eigenvalues --   -0.81958  -0.71826  -0.68689  -0.67208  -0.66721
  Beta  occ. eigenvalues --   -0.64117  -0.60358  -0.56761  -0.54031  -0.53975
  Beta  occ. eigenvalues --   -0.51348  -0.49859  -0.46779  -0.46148  -0.43113
  Beta  occ. eigenvalues --   -0.42164  -0.38967  -0.37744  -0.37334  -0.36923
  Beta  occ. eigenvalues --   -0.35764  -0.35276  -0.34807  -0.34435  -0.33615
  Beta  occ. eigenvalues --   -0.32336  -0.31241  -0.31090  -0.30768  -0.30304
  Beta  occ. eigenvalues --   -0.29375  -0.28963  -0.28913  -0.27430  -0.26862
  Beta  occ. eigenvalues --   -0.26383  -0.26070  -0.25130  -0.24287  -0.24051
  Beta  occ. eigenvalues --   -0.23144  -0.22748  -0.18182  -0.15402  -0.15031
  Beta  occ. eigenvalues --   -0.12538
  Beta virt. eigenvalues --    0.05820   0.06250   0.07076   0.07260   0.07760
  Beta virt. eigenvalues --    0.08201   0.08448   0.09238   0.09586   0.10004
  Beta virt. eigenvalues --    0.10101   0.10473   0.10986   0.11197   0.11469

 Mulliken charges and spin densities:
               1          2
     1  C    0.478914  -0.933189
     2  C   -0.879714   0.735522
     3  C    0.330444  -0.855682
     4  N   -0.034223  -0.012389
     5  C    0.229173  -0.192886
     6  O   -0.371420   0.007512
     7  N    0.143725   0.079177
     8  C   -1.063825   0.759253
     9  C    2.266895  -2.621108
    10  C   -1.831392   0.999655
    11  C   -0.058367  -0.230828
    12  N    0.425694   0.022436
    13  C   -0.003036  -0.245593
    14  C    0.207093  -0.576425
    15  C    0.099776  -0.380537
    16  C   -0.030622  -0.324507
    17  C    0.149781  -0.294112
    18  H    0.128170   0.014021
    19  H   -0.134712   0.293914
    20  H   -0.228985   0.380570
    21  H   -0.160034   0.334396
    22  H   -0.045165   0.174601
    23  H   -0.186763   0.341464
    24  H   -0.249242   0.409705
    25  H    0.233577   0.035454
    26  H    0.106208   0.099199
    27  H   -0.233849   0.389176
    28  H   -0.172744   0.341336
    29  H   -0.341619   0.524737
    30  H    0.133841   0.039840
    31  H    0.091316   0.045390
    32  H    0.261525  -0.014685
    33  H   -0.024119   0.138157
    34  H   -0.075457   0.222604
    35  H   -0.093820   0.251235
    36  H    0.113129   0.015440
    37  H   -0.126784   0.295159
    38  H   -0.033089   0.155316
    39  H    0.122503   0.011641
    40  H   -0.110674   0.271053
    41  H   -0.055071   0.188905
    42  H    0.022963   0.105072
 Sum of Mulliken charges =  -1.00000   1.00000

 Dipole moment (field-independent basis, Debye):
    X=             -2.3621    Y=              3.1549    Z=             -0.9344  Tot=              4.0504
 Quadrupole moment (field-independent basis, Debye-Ang):
   XX=           -214.1970   YY=           -156.3653   ZZ=           -143.7625
   XY=              5.4080   XZ=             -0.1574   YZ=              2.8818

 Summary of Natural Population Analysis:

                                       Natural Population
                Natural  -----------------------------------------------
    Atom  No    Charge         Core      Valence    Rydberg      Total
 -----------------------------------------------------------------------
      C    1   -0.29303      0.99965     2.28763    0.00576     3.29303
      C    2   -0.01710      0.99961     2.00582    0.01167     3.01710
      C    3   -0.28603      0.99965     2.27992    0.00646     3.28603
      N    4   -0.33904      0.99968     2.82927    0.01010     3.83904
      C    5    0.41588      0.99967     1.56158    0.02287     2.58412
      O    6   -0.34274      0.99988     3.33813    0.00473     4.34274
      N    7   -0.27091      0.99965     2.76221    0.00906     3.77091
      C    8   -0.08348      0.99962     2.07362    0.01023     3.08348
      C    9   -0.20437      0.99961     2.19700    0.00776     3.20437
      C   10   -0.00357      0.99957     1.99124    0.01275     3.00357
      C   11   -0.08380      0.99959     2.07301    0.01119     3.08380
      N   12   -0.28089      0.99969     2.76939    0.01181     3.78089
      C   13   -0.08730      0.99961     2.07590    0.01179     3.08730
      C   14   -0.19260      0.99963     2.18379    0.00918     3.19260
      C   15   -0.19052      0.99963     2.18320    0.00769     3.19052
      C   16   -0.19376      0.99963     2.18500    0.00914     3.19376
      C   17   -0.08172      0.99961     2.07106    0.01105     3.08172
      H   18    0.09619      0.00000     0.40291    0.00089     0.40381
      H   19    0.10528      0.00000     0.39335    0.00137     0.39472
      H   20    0.10281      0.00000     0.39619    0.00100     0.39719
      H   21    0.09584      0.00000     0.40115    0.00302     0.40416
      H   22    0.09372      0.00000     0.40524    0.00104     0.40628
      H   23    0.10401      0.00000     0.39486    0.00113     0.39599
      H   24    0.10577      0.00000     0.39303    0.00120     0.39423
      H   25    0.18785      0.00000     0.30982    0.00233     0.31215
      H   26    0.10020      0.00000     0.39816    0.00164     0.39980
      H   27    0.09672      0.00000     0.40135    0.00193     0.40328
      H   28    0.10092      0.00000     0.39739    0.00169     0.39908
      H   29    0.10571      0.00000     0.39306    0.00123     0.39429
      H   30    0.09637      0.00000     0.40203    0.00160     0.40363
      H   31    0.09052      0.00000     0.40825    0.00123     0.40948
      H   32    0.11684      0.00000     0.38196    0.00120     0.38316
      H   33    0.08069      0.00000     0.41750    0.00181     0.41931
      H   34    0.09831      0.00000     0.40015    0.00153     0.40169
      H   35    0.09881      0.00000     0.40038    0.00081     0.40119
      H   36    0.09548      0.00000     0.40316    0.00137     0.40452
      H   37    0.09797      0.00000     0.40106    0.00097     0.40203
      H   38    0.09441      0.00000     0.40423    0.00137     0.40559
      H   39    0.09538      0.00000     0.40329    0.00133     0.40462
      H   40    0.09867      0.00000     0.40048    0.00085     0.40133
      H   41    0.09657      0.00000     0.40222    0.00121     0.40343
      H   42    0.07995      0.00000     0.41849    0.00156     0.42005
 =======================================================================
   * Total *    0.00000     16.99396    48.79749    0.20855    66.00000

 Normal termination of Gaussian 16 at Fri Dec 11 15:08:40 2020.
