 Gaussian 16, Revision A.03,

 -----------------------------------------------------------
 # opt freq B3LYP/6-31G(d) empiricaldispersion=gd3bj scf=xqc
 -----------------------------------------------------------

 ------------------------------
 CID_82689040_JID_5599_neutraal
 ------------------------------
 Symbolic Z-matrix:
 Charge =  0 Multiplicity = 1

 SCF Done:  E(RB3LYP) =  -655.220952791     A.U. after   15 cycles
 SCF Done:  E(RB3LYP) =  -655.245609364     A.U. after   12 cycles
 SCF Done:  E(RB3LYP) =  -655.246869458     A.U. after   13 cycles
 SCF Done:  E(RB3LYP) =  -655.246418046     A.U. after   12 cycles
 SCF Done:  E(RB3LYP) =  -655.247886131     A.U. after   13 cycles
 SCF Done:  E(RB3LYP) =  -655.248143417     A.U. after   12 cycles
 SCF Done:  E(RB3LYP) =  -655.248648673     A.U. after   12 cycles
 SCF Done:  E(RB3LYP) =  -655.248975914     A.U. after   11 cycles
 SCF Done:  E(RB3LYP) =  -655.249015099     A.U. after   11 cycles
 SCF Done:  E(RB3LYP) =  -655.249028208     A.U. after   10 cycles
 SCF Done:  E(RB3LYP) =  -655.249034318     A.U. after    9 cycles
 SCF Done:  E(RB3LYP) =  -655.249036202     A.U. after    8 cycles
 SCF Done:  E(RB3LYP) =  -655.249036614     A.U. after    8 cycles
 SCF Done:  E(RB3LYP) =  -655.249036684     A.U. after    7 cycles
 Optimization completed.
    -- Stationary point found.
 Normal termination of Gaussian 16 at Thu Dec 10 16:49:29 2020.

 --------------------------------------------------------------------
 #N Geom=AllCheck Guess=TCheck SCRF=Check GenChk RB3LYP/6-31G(d) Freq
 --------------------------------------------------------------------

 Structure from the checkpoint file:  "JID_5599.chk"
 ------------------------------
 CID_82689040_JID_5599_neutraal
 ------------------------------
 Charge =  0 Multiplicity = 1

 SCF Done:  E(RB3LYP) =  -655.249036684     A.U. after    1 cycles

  Exact polarizability: 146.667  -1.006 146.121   4.017  -0.533 121.731
 Approx polarizability: 178.227  -4.041 210.113   2.712  -6.458 188.488

                      1                      2                      3
                      A                      A                      A
 Frequencies --     27.8329                28.1501                33.0755
 Red. masses --      4.5064                 3.4783                 3.8880
 Frc consts  --      0.0021                 0.0016                 0.0025
 IR Inten    --      1.3893                 0.4735                 0.8062

                      4                      5                      6
                      A                      A                      A
 Frequencies --     46.9967                54.6627                78.1848
 Red. masses --      3.5680                 2.8758                 5.9019
 Frc consts  --      0.0046                 0.0051                 0.0213
 IR Inten    --      0.9341                 0.8896                 1.3651

                      7                      8                      9
                      A                      A                      A
 Frequencies --    105.4109               119.4600               135.2015
 Red. masses --      4.0254                 2.0279                 2.2457
 Frc consts  --      0.0264                 0.0171                 0.0242
 IR Inten    --      0.7360                 1.9431                 3.0300

                     10                     11                     12
                      A                      A                      A
 Frequencies --    157.7071               191.6889               216.1031
 Red. masses --      2.1412                 2.3231                 2.2227
 Frc consts  --      0.0314                 0.0503                 0.0612
 IR Inten    --      4.8442                 0.0636                 2.1568

                     13                     14                     15
                      A                      A                      A
 Frequencies --    237.2771               246.5982               260.1565
 Red. masses --      1.3975                 1.4839                 1.1191
 Frc consts  --      0.0464                 0.0532                 0.0446
 IR Inten    --      2.6142                 1.2249                68.0946

                     16                     17                     18
                      A                      A                      A
 Frequencies --    269.6652               293.8136               307.1838
 Red. masses --      2.6020                 3.9533                 4.7301
 Frc consts  --      0.1115                 0.2011                 0.2630
 IR Inten    --      1.6097                 3.7102                 8.0722

                     19                     20                     21
                      A                      A                      A
 Frequencies --    356.8998               396.0261               416.7139
 Red. masses --      2.3717                 2.6256                 2.4278
 Frc consts  --      0.1780                 0.2426                 0.2484
 IR Inten    --      1.6619                 0.2944                 3.2879

                     22                     23                     24
                      A                      A                      A
 Frequencies --    431.2556               433.4434               482.4248
 Red. masses --      1.8921                 2.4013                 3.7762
 Frc consts  --      0.2073                 0.2658                 0.5178
 IR Inten    --      2.7750                 2.6695                 1.7790

                     25                     26                     27
                      A                      A                      A
 Frequencies --    494.5730               553.4116               611.0546
 Red. masses --      3.2654                 3.2415                 1.2029
 Frc consts  --      0.4706                 0.5849                 0.2646
 IR Inten    --      5.7368                 8.8708                44.8739

                     28                     29                     30
                      A                      A                      A
 Frequencies --    631.9332               652.1997               722.6161
 Red. masses --      1.4489                 2.5046                 5.1847
 Frc consts  --      0.3409                 0.6277                 1.5951
 IR Inten    --     22.7166                33.6882                 5.4241

                     31                     32                     33
                      A                      A                      A
 Frequencies --    751.4462               797.4288               823.3351
 Red. masses --      2.1789                 1.3336                 1.5838
 Frc consts  --      0.7249                 0.4996                 0.6326
 IR Inten    --      7.5293                 3.8708                 2.1974

                     34                     35                     36
                      A                      A                      A
 Frequencies --    846.0795               872.7746               877.6087
 Red. masses --      2.2910                 1.3023                 2.5662
 Frc consts  --      0.9663                 0.5845                 1.1645
 IR Inten    --      1.5723                68.3585                 9.0692

                     37                     38                     39
                      A                      A                      A
 Frequencies --    908.5935               940.5886               946.8976
 Red. masses --      1.4976                 1.3851                 2.2192
 Frc consts  --      0.7284                 0.7220                 1.1724
 IR Inten    --      5.1600                43.4122                 4.0522

                     40                     41                     42
                      A                      A                      A
 Frequencies --    947.4591               960.5655               974.7943
 Red. masses --      3.0722                 1.9001                 1.4650
 Frc consts  --      1.6249                 1.0330                 0.8202
 IR Inten    --     10.3983                12.4643                21.8886

                     43                     44                     45
                      A                      A                      A
 Frequencies --   1033.2687              1041.7153              1067.3266
 Red. masses --      2.0798                 2.6107                 2.3292
 Frc consts  --      1.3083                 1.6692                 1.5633
 IR Inten    --      1.1032                 5.8314                 0.3516

                     46                     47                     48
                      A                      A                      A
 Frequencies --   1081.6494              1102.5182              1113.1589
 Red. masses --      2.7567                 1.7266                 1.6157
 Frc consts  --      1.9003                 1.2366                 1.1796
 IR Inten    --     11.9533                 6.1052                33.4978

                     49                     50                     51
                      A                      A                      A
 Frequencies --   1122.3584              1169.8687              1173.5692
 Red. masses --      1.8585                 1.9005                 1.9926
 Frc consts  --      1.3794                 1.5325                 1.6169
 IR Inten    --     10.8944                 6.9505                 6.5896

                     52                     53                     54
                      A                      A                      A
 Frequencies --   1193.9400              1233.8198              1244.8717
 Red. masses --      1.4682                 2.3386                 1.6116
 Frc consts  --      1.2331                 2.0976                 1.4715
 IR Inten    --     11.5348                47.5693                22.6597

                     55                     56                     57
                      A                      A                      A
 Frequencies --   1287.4844              1298.2780              1311.7795
 Red. masses --      1.3237                 1.3409                 1.2131
 Frc consts  --      1.2928                 1.3316                 1.2299
 IR Inten    --     34.8652                12.4843                 2.6608

                     58                     59                     60
                      A                      A                      A
 Frequencies --   1324.4616              1329.3756              1341.6238
 Red. masses --      1.3198                 1.3229                 1.4056
 Frc consts  --      1.3641                 1.3774                 1.4906
 IR Inten    --      4.6332                 5.9219                33.8227

                     61                     62                     63
                      A                      A                      A
 Frequencies --   1375.6232              1389.7759              1392.8261
 Red. masses --      1.2084                 1.2945                 1.3202
 Frc consts  --      1.3473                 1.4731                 1.5090
 IR Inten    --      1.9593                 9.7024                36.5043

                     64                     65                     66
                      A                      A                      A
 Frequencies --   1397.8975              1413.4633              1421.2357
 Red. masses --      1.3800                 1.5015                 1.3245
 Frc consts  --      1.5888                 1.7675                 1.5763
 IR Inten    --     25.3840                 0.4147                 4.8551

                     67                     68                     69
                      A                      A                      A
 Frequencies --   1438.9721              1445.1847              1447.6660
 Red. masses --      1.3698                 1.2925                 1.3208
 Frc consts  --      1.6712                 1.5905                 1.6309
 IR Inten    --      5.2309                 6.3024                11.2404

                     70                     71                     72
                      A                      A                      A
 Frequencies --   1465.2455              1502.7173              1513.9223
 Red. masses --      1.9940                 1.0864                 1.0626
 Frc consts  --      2.5223                 1.4454                 1.4349
 IR Inten    --    122.3759                16.3509                 3.6918

                     73                     74                     75
                      A                      A                      A
 Frequencies --   1517.3110              1522.8579              1527.9071
 Red. masses --      1.1671                 1.0651                 1.0806
 Frc consts  --      1.5832                 1.4554                 1.4863
 IR Inten    --     28.8009                 3.3131                12.4015

                     76                     77                     78
                      A                      A                      A
 Frequencies --   1529.2166              1533.6140              1536.4986
 Red. masses --      1.0855                 1.0591                 1.0611
 Frc consts  --      1.4956                 1.4677                 1.4759
 IR Inten    --     13.2143                 2.4033                 8.5809

                     79                     80                     81
                      A                      A                      A
 Frequencies --   1538.0571              1541.2645              1703.8135
 Red. masses --      1.0584                 1.0877                 1.0867
 Frc consts  --      1.4752                 1.5224                 1.8586
 IR Inten    --      7.4644                 2.2644                31.4571

                     82                     83                     84
                      A                      A                      A
 Frequencies --   1760.6099              2242.1095              2951.0765
 Red. masses --      9.9270                 5.9233                 1.0725
 Frc consts  --     18.1298                17.5439                 5.5033
 IR Inten    --    251.5506                 0.6973                66.0065

                     85                     86                     87
                      A                      A                      A
 Frequencies --   3024.2209              3025.0558              3035.6025
 Red. masses --      1.0805                 1.0644                 1.0606
 Frc consts  --      5.8223                 5.7388                 5.7583
 IR Inten    --      9.5797                32.2536                23.4585

                     88                     89                     90
                      A                      A                      A
 Frequencies --   3044.1963              3051.1931              3056.5502
 Red. masses --      1.0397                 1.0717                 1.0361
 Frc consts  --      5.6765                 5.8786                 5.7033
 IR Inten    --     25.7394                33.8289                17.5222

                     91                     92                     93
                      A                      A                      A
 Frequencies --   3064.4826              3067.9740              3073.2336
 Red. masses --      1.0950                 1.0657                 1.0892
 Frc consts  --      6.0586                 5.9100                 6.0610
 IR Inten    --     41.4501                23.7323                29.9720

                     94                     95                     96
                      A                      A                      A
 Frequencies --   3074.2305              3078.0213              3104.8724
 Red. masses --      1.0844                 1.0835                 1.1012
 Frc consts  --      6.0383                 6.0483                 6.2544
 IR Inten    --     17.1016                30.7448                47.1672

                     97                     98                     99
                      A                      A                      A
 Frequencies --   3113.2830              3120.8914              3123.3466
 Red. masses --      1.0961                 1.1022                 1.1003
 Frc consts  --      6.2592                 6.3248                 6.3244
 IR Inten    --      8.5663                50.3823                34.7405

                    100                    101                    102
                      A                      A                      A
 Frequencies --   3132.1612              3141.8929              3150.1202
 Red. masses --      1.1026                 1.0989                 1.0949
 Frc consts  --      6.3732                 6.3913                 6.4014
 IR Inten    --     22.7641                16.2735                 9.3078

                    103                    104                    105
                      A                      A                      A
 Frequencies --   3476.6154              3494.9191              3556.7230
 Red. masses --      1.0503                 1.1612                 1.0921
 Frc consts  --      7.4794                 8.3564                 8.1398
 IR Inten    --      1.3838                57.8692                 0.6046

 - Thermochemistry -
 -------------------
 Temperature   298.150 Kelvin.  Pressure   1.00000 Atm.
 Atom     1 has atomic number  6 and mass  12.00000

 Molecular mass:   210.17321 amu.
 Principal axes and moments of inertia in atomic units:
                           1         2         3
     Eigenvalues --  2655.633755465.354056239.68803
           X            0.99978   0.01789   0.01088
           Y           -0.01840   0.99863   0.04891
           Z           -0.00999  -0.04910   0.99874
 This molecule is an asymmetric top.
 Rotational symmetry number  1.
 Warning -- assumption of classical behavior for rotation
           may cause significant error
 Rotational temperatures (Kelvin)      0.03262     0.01585     0.01388
 Rotational constants (GHZ):           0.67959     0.33021     0.28924
 Zero-point vibrational energy     868661.2 (Joules/Mol)
                                  207.61501 (Kcal/Mol)
 Warning -- explicit consideration of  27 degrees of freedom as
           vibrations may cause significant error
 Vibrational temperatures:     40.05    40.50    47.59    67.62    78.65
          (Kelvin)            112.49   151.66   171.88   194.52   226.91
                              275.80   310.92   341.39   354.80   374.31
                              387.99   422.73   441.97   513.50   569.79
                              599.56   620.48   623.63   694.10   711.58
                              796.24   879.17   909.21   938.37  1039.68
                             1081.16  1147.32  1184.60  1217.32  1255.73
                             1262.68  1307.26  1353.30  1362.37  1363.18
                             1382.04  1402.51  1486.64  1498.80  1535.64
                             1556.25  1586.28  1601.59  1614.82  1683.18
                             1688.50  1717.81  1775.19  1791.09  1852.40
                             1867.93  1887.36  1905.60  1912.68  1930.30
                             1979.21  1999.58  2003.97  2011.26  2033.66
                             2044.84  2070.36  2079.30  2082.87  2108.16
                             2162.07  2178.20  2183.07  2191.05  2198.32
                             2200.20  2206.53  2210.68  2212.92  2217.54
                             2451.41  2533.12  3225.90  4245.94  4351.18
                             4352.38  4367.55  4379.92  4389.99  4397.69
                             4409.11  4414.13  4421.70  4423.13  4428.59
                             4467.22  4479.32  4490.27  4493.80  4506.48
                             4520.48  4532.32  5002.07  5028.41  5117.33

 Zero-point correction=                           0.330856 (Hartree/Particle)
 Thermal correction to Energy=                    0.349227
 Thermal correction to Enthalpy=                  0.350171
 Thermal correction to Gibbs Free Energy=         0.282359
 Sum of electronic and zero-point Energies=           -654.918181
 Sum of electronic and thermal Energies=              -654.899810
 Sum of electronic and thermal Enthalpies=            -654.898866
 Sum of electronic and thermal Free Energies=         -654.966678

                     E (Thermal)             CV                S
                      KCal/Mol        Cal/Mol-Kelvin    Cal/Mol-Kelvin
 Total                  219.143             66.197            142.723
 Electronic               0.000              0.000              0.000
 Translational            0.889              2.981             41.932
 Rotational               0.889              2.981             32.871
 Vibrational            217.366             60.235             67.920
 Vibration     1          0.593              1.984              5.978
 Vibration     2          0.593              1.984              5.956
 Vibration     3          0.594              1.983              5.636
 Vibration     4          0.595              1.979              4.940
 Vibration     5          0.596              1.976              4.641
 Vibration     6          0.599              1.964              3.936
 Vibration     7          0.605              1.945              3.352
 Vibration     8          0.609              1.933              3.109
 Vibration     9          0.613              1.918              2.871
 Vibration    10          0.621              1.894              2.577
 Vibration    11          0.634              1.851              2.211
 Vibration    12          0.645              1.816              1.992
 Vibration    13          0.656              1.784              1.823
 Vibration    14          0.661              1.768              1.755
 Vibration    15          0.668              1.746              1.661
 Vibration    16          0.674              1.729              1.598
 Vibration    17          0.689              1.685              1.452
 Vibration    18          0.697              1.660              1.377
 Vibration    19          0.732              1.561              1.136
 Vibration    20          0.763              1.479              0.977
 Vibration    21          0.780              1.434              0.903
 Vibration    22          0.792              1.402              0.855
 Vibration    23          0.794              1.397              0.847
 Vibration    24          0.839              1.289              0.704
 Vibration    25          0.850              1.262              0.672
 Vibration    26          0.909              1.132              0.537
 Vibration    27          0.970              1.008              0.431

 Optimization completed.
    -- Stationary point found.
 Normal termination of Gaussian 16 at Thu Dec 10 17:01:36 2020.

 ----------------------------------------------------------------------
 # B3LYP/6-311++G(d,p) empiricaldispersion=gd3bj scf=xqc pop=npa geom=c
 heck
 ----------------------------------------------------------------------

 --------------------------------------
 CID_82689040_JID_5599_Energie_neutraal
 --------------------------------------
 Structure from the checkpoint file:  "JID_5599.chk"
 Charge =  0 Multiplicity = 1

 SCF Done:  E(RB3LYP) =  -655.448243714     A.U. after   15 cycles
 Normal termination of Gaussian 16 at Thu Dec 10 17:07:46 2020.

 ----------------------------------------------------------------------
 # B3LYP/6-311++G(d,p) empiricaldispersion=gd3bj scf=xqc pop=npa geom=c
 heck
 ----------------------------------------------------------------------

 ------------------------------------
 CID_82689040_JID_5599_Energie_kation
 ------------------------------------
 Structure from the checkpoint file:  "JID_5599.chk"
 Charge =  1 Multiplicity = 2

 SCF Done:  E(UB3LYP) =  -655.139114225     A.U. after   28 cycles
 Normal termination of Gaussian 16 at Thu Dec 10 17:28:49 2020.
 Gaussian 16:  ES64L-G16RevA.03 25-Dec-2016

 ----------------------------------------------------------------------
 # B3LYP/6-311++G(d,p) empiricaldispersion=gd3bj scf=xqc pop=npa geom=c
 heck
 ----------------------------------------------------------------------

 -----------------------------------
 CID_82689040_JID_5599_Energie_anion
 -----------------------------------
 Structure from the checkpoint file:  "JID_5599.chk"
 Charge = -1 Multiplicity = 2

                         Standard orientation:
 ---------------------------------------------------------------------
 Center     Atomic      Atomic             Coordinates (Angstroms)
 Number     Number       Type             X           Y           Z
 ---------------------------------------------------------------------
      1          6           0       -2.323878   -2.758440   -0.130007
      2          6           0       -3.229123   -1.620866   -0.606651
      3          6           0       -3.018958   -0.319152    0.175639
      4          7           0       -1.650712    0.192063    0.075869
      5          6           0       -1.330500    0.979624   -1.111968
      6          6           0       -1.638438    2.408434   -0.963812
      7          6           0       -1.888789    3.579930   -0.817133
      8          6           0       -0.811399    0.079301    1.163452
      9          8           0       -1.142492   -0.541022    2.169185
     10          6           0        0.577847    0.688493    1.043828
     11          6           0        1.545012   -0.300434    0.365895
     12          6           0        2.931447    0.286634    0.063597
     13          6           0        3.654981    0.754889    1.330942
     14          6           0        3.801485   -0.725014   -0.697993
     15          7           0        3.172747   -1.151643   -1.956117
     16          1           0       -1.268874   -2.502082   -0.273613
     17          1           0       -2.526420   -3.681655   -0.683913
     18          1           0       -2.467267   -2.954028    0.937407
     19          1           0       -3.067400   -1.441520   -1.679483
     20          1           0       -4.284297   -1.906884   -0.503200
     21          1           0       -3.701933    0.461254   -0.182829
     22          1           0       -3.214938   -0.483652    1.236307
     23          1           0       -0.278866    0.849630   -1.381196
     24          1           0       -1.903480    0.564773   -1.949069
     25          1           0       -2.113017    4.614071   -0.685249
     26          1           0        0.564746    1.641964    0.504671
     27          1           0        0.901636    0.891689    2.066359
     28          1           0        1.642508   -1.186273    1.009019
     29          1           0        1.100992   -0.643453   -0.576617
     30          1           0        2.788781    1.148050   -0.604887
     31          1           0        3.771408   -0.071505    2.043788
     32          1           0        4.655428    1.135311    1.093565
     33          1           0        3.109798    1.556733    1.838272
     34          1           0        4.751787   -0.239955   -0.950509
     35          1           0        4.047395   -1.563609   -0.020333
     36          1           0        3.872572   -1.583559   -2.556193
     37          1           0        2.486999   -1.880455   -1.768775
 ---------------------------------------------------------------------

 SCF Done:  E(UB3LYP) =  -655.436263388     A.U. after   33 cycles
 SCF Done:  E(UB3LYP) =  -655.436263388     a.u. after    1 cycles

 The electronic state is 2-A.
 Alpha  occ. eigenvalues --  -18.99633 -14.25624 -14.19475 -10.18124 -10.15015
 Alpha  occ. eigenvalues --  -10.11167 -10.09675 -10.09613 -10.08691 -10.08662
 Alpha  occ. eigenvalues --  -10.08243 -10.08111 -10.08075 -10.07434 -10.06442
 Alpha  occ. eigenvalues --   -0.94904  -0.85442  -0.78820  -0.72099  -0.70615
 Alpha  occ. eigenvalues --   -0.68515  -0.66015  -0.62833  -0.60125  -0.57840
 Alpha  occ. eigenvalues --   -0.55119  -0.50896  -0.48060  -0.47012  -0.44710
 Alpha  occ. eigenvalues --   -0.41367  -0.40799  -0.40610  -0.39571  -0.38148
 Alpha  occ. eigenvalues --   -0.36243  -0.35950  -0.34907  -0.33768  -0.33242
 Alpha  occ. eigenvalues --   -0.33124  -0.31516  -0.30990  -0.30000  -0.28659
 Alpha  occ. eigenvalues --   -0.28105  -0.27326  -0.26323  -0.25935  -0.24999
 Alpha  occ. eigenvalues --   -0.24219  -0.23873  -0.23394  -0.20530  -0.19766
 Alpha  occ. eigenvalues --   -0.16535  -0.16109  -0.14887   0.04032
 Alpha virt. eigenvalues --    0.05524   0.06069   0.07031   0.07771   0.07971
 Alpha virt. eigenvalues --    0.08559   0.09051   0.09413   0.09987   0.10270
 Alpha virt. eigenvalues --    0.10501   0.10807   0.11101   0.11336   0.11761

  Beta  occ. eigenvalues --  -18.99632 -14.25624 -14.19425 -10.18124 -10.14989
  Beta  occ. eigenvalues --  -10.11159 -10.09675 -10.09589 -10.08665 -10.08657
  Beta  occ. eigenvalues --  -10.08239 -10.08096 -10.08052 -10.07426 -10.06424
  Beta  occ. eigenvalues --   -0.94902  -0.85435  -0.78749  -0.72072  -0.70585
  Beta  occ. eigenvalues --   -0.68488  -0.65990  -0.62796  -0.60100  -0.57792
  Beta  occ. eigenvalues --   -0.55059  -0.50847  -0.48026  -0.46967  -0.44659
  Beta  occ. eigenvalues --   -0.41341  -0.40773  -0.40584  -0.39529  -0.38105
  Beta  occ. eigenvalues --   -0.36205  -0.35903  -0.34873  -0.33747  -0.33215
  Beta  occ. eigenvalues --   -0.33098  -0.31494  -0.30975  -0.29984  -0.28622
  Beta  occ. eigenvalues --   -0.28083  -0.27306  -0.26299  -0.25899  -0.24970
  Beta  occ. eigenvalues --   -0.24196  -0.23845  -0.23370  -0.20500  -0.19743
  Beta  occ. eigenvalues --   -0.16529  -0.16098  -0.14836
  Beta virt. eigenvalues --    0.06098   0.06519   0.06745   0.07520   0.08200
  Beta virt. eigenvalues --    0.08384   0.08796   0.09237   0.09524   0.10144
  Beta virt. eigenvalues --    0.10415   0.10642   0.11049   0.11225   0.11402

 Mulliken charges and spin densities:
               1          2
     1  C   -0.044125  -0.429788
     2  C    0.074177  -0.233506
     3  C   -0.049003  -0.274426
     4  N    0.329702   0.045403
     5  C   -1.516502   1.104825
     6  C    3.187432  -3.094246
     7  C   -1.141344   0.845064
     8  C   -0.140684  -0.281613
     9  O   -0.287850   0.008426
    10  C   -0.496841   0.024726
    11  C    0.550615  -0.706973
    12  C   -0.705796   1.287137
    13  C   -0.098746  -0.601031
    14  C    0.625104  -1.217045
    15  N   -0.283070  -0.065929
    16  H   -0.034970   0.192260
    17  H   -0.246595   0.392761
    18  H    0.155620  -0.016655
    19  H   -0.043857   0.162641
    20  H   -0.158308   0.301414
    21  H    0.076983   0.073956
    22  H    0.164771   0.033304
    23  H    0.129195   0.076087
    24  H   -0.324040   0.531566
    25  H   -0.914992   1.121570
    26  H    0.266272  -0.112709
    27  H    0.205544  -0.006126
    28  H    0.146134   0.037039
    29  H    0.246423  -0.245316
    30  H   -0.037707   0.214753
    31  H    0.096570   0.046587
    32  H    0.003387   0.134484
    33  H    0.076695   0.065629
    34  H   -0.275967   0.450237
    35  H   -0.138316   0.257669
    36  H   -0.256236   0.508430
    37  H   -0.139677   0.369393
 Sum of Mulliken charges =  -1.00000   1.00000

 Dipole moment (field-independent basis, Debye):
    X=             -1.3667    Y=              1.0072    Z=              4.5800  Tot=              4.8845
 Quadrupole moment (field-independent basis, Debye-Ang):
   XX=           -166.9671   YY=           -155.0504   ZZ=           -143.0896
   XY=             11.2971   XZ=             10.1469   YZ=             -2.0174

 Summary of Natural Population Analysis:

                                       Natural Population
                Natural  -----------------------------------------------
    Atom  No    Charge         Core      Valence    Rydberg      Total
 -----------------------------------------------------------------------
      C    1   -0.28771      0.99966     2.28212    0.00593     3.28771
      C    2   -0.19376      0.99964     2.18676    0.00737     3.19376
      C    3   -0.08732      0.99960     2.07645    0.01128     3.08732
      N    4   -0.25673      0.99963     2.74486    0.01224     3.75673
      C    5   -0.12835      0.99953     2.11665    0.01218     3.12835
      C    6   -0.01025      0.99935     2.00366    0.00724     3.01025
      C    7   -0.10888      0.99926     2.10626    0.00336     3.10888
      C    8    0.35476      0.99963     1.62305    0.02256     2.64524
      O    9   -0.32642      0.99988     3.32151    0.00503     4.32642
      C   10   -0.23217      0.99959     2.22542    0.00716     3.23217
      C   11   -0.18923      0.99960     2.18098    0.00865     3.18923
      C   12   -0.11551      0.99960     2.10537    0.01055     3.11551
      C   13   -0.28614      0.99965     2.28175    0.00474     3.28614
      C   14   -0.08427      0.99960     2.07225    0.01242     3.08427
      N   15   -0.42344      0.99977     2.91290    0.01077     3.92344
      H   16    0.10038      0.00000     0.39830    0.00133     0.39962
      H   17    0.09820      0.00000     0.40096    0.00084     0.40180
      H   18    0.10005      0.00000     0.39912    0.00082     0.39995
      H   19    0.09449      0.00000     0.40382    0.00169     0.40551
      H   20    0.09573      0.00000     0.40334    0.00093     0.40427
      H   21    0.09637      0.00000     0.40250    0.00112     0.40363
      H   22    0.11181      0.00000     0.38695    0.00124     0.38819
      H   23    0.11877      0.00000     0.37934    0.00189     0.38123
      H   24    0.11737      0.00000     0.38081    0.00182     0.38263
      H   25    0.11329      0.00000     0.38477    0.00194     0.38671
      H   26    0.10534      0.00000     0.39325    0.00141     0.39466
      H   27    0.11056      0.00000     0.38834    0.00111     0.38944
      H   28    0.09924      0.00000     0.39948    0.00127     0.40076
      H   29    0.10053      0.00000     0.39698    0.00249     0.39947
      H   30    0.09507      0.00000     0.40290    0.00203     0.40493
      H   31    0.09670      0.00000     0.40243    0.00086     0.40330
      H   32    0.09936      0.00000     0.39981    0.00083     0.40064
      H   33    0.09884      0.00000     0.40041    0.00074     0.40116
      H   34    0.09162      0.00000     0.40712    0.00125     0.40838
      H   35    0.07734      0.00000     0.42098    0.00168     0.42266
      H   36    0.17942      0.00000     0.31692    0.00366     0.32058
      H   37    0.17494      0.00000     0.32222    0.00283     0.32506
 =======================================================================
   * Total *   -0.00000     14.99398    42.83073    0.17529    58.00000

 Normal termination of Gaussian 16 at Thu Dec 10 17:54:32 2020.
