 Gaussian 16, Revision A.03,

 -----------------------------------------------------------
 # opt freq B3LYP/6-31G(d) empiricaldispersion=gd3bj scf=xqc
 -----------------------------------------------------------

 ------------------------------
 CID_62269823_JID_8904_neutraal
 ------------------------------
 Symbolic Z-matrix:
 Charge =  0 Multiplicity = 1

 SCF Done:  E(RB3LYP) =  -1483.68748898     A.U. after   15 cycles
 SCF Done:  E(RB3LYP) =  -1483.69440385     A.U. after   15 cycles
 SCF Done:  E(RB3LYP) =  -1483.69380792     A.U. after   15 cycles
 SCF Done:  E(RB3LYP) =  -1483.69471106     A.U. after   13 cycles
 SCF Done:  E(RB3LYP) =  -1483.69552896     A.U. after   14 cycles
 SCF Done:  E(RB3LYP) =  -1483.69641394     A.U. after   13 cycles
 SCF Done:  E(RB3LYP) =  -1483.69626152     A.U. after   13 cycles
 SCF Done:  E(RB3LYP) =  -1483.69743638     A.U. after   14 cycles
 SCF Done:  E(RB3LYP) =  -1483.69773532     A.U. after   15 cycles
 SCF Done:  E(RB3LYP) =  -1483.69790097     A.U. after   12 cycles
 SCF Done:  E(RB3LYP) =  -1483.69907700     A.U. after   11 cycles
 SCF Done:  E(RB3LYP) =  -1483.69909802     A.U. after   10 cycles
 SCF Done:  E(RB3LYP) =  -1483.69910216     A.U. after    9 cycles
 SCF Done:  E(RB3LYP) =  -1483.69910359     A.U. after   10 cycles
 SCF Done:  E(RB3LYP) =  -1483.69910413     A.U. after    7 cycles
 SCF Done:  E(RB3LYP) =  -1483.69910419     A.U. after    7 cycles
 Optimization completed.
    -- Stationary point found.
 Normal termination of Gaussian 16 at Fri Dec 11 23:45:59 2020.

 --------------------------------------------------------------------
 #N Geom=AllCheck Guess=TCheck SCRF=Check GenChk RB3LYP/6-31G(d) Freq
 --------------------------------------------------------------------

 Structure from the checkpoint file:  "JID_8904.chk"
 ------------------------------
 CID_62269823_JID_8904_neutraal
 ------------------------------
 Charge =  0 Multiplicity = 1

 SCF Done:  E(RB3LYP) =  -1483.69910419     A.U. after    1 cycles

  Exact polarizability: 253.700  -6.736 215.110   9.842 -19.860 124.224
 Approx polarizability: 350.305 -30.626 363.143  19.991 -48.448 217.034

                      1                      2                      3
                      A                      A                      A
 Frequencies --     18.5849                27.0593                33.1381
 Red. masses --      5.3357                 3.5284                 5.1165
 Frc consts  --      0.0011                 0.0015                 0.0033
 IR Inten    --      0.5844                 0.3375                 1.8436

                      4                      5                      6
                      A                      A                      A
 Frequencies --     36.4756                47.1624                57.3122
 Red. masses --      1.1480                 3.9150                 6.6685
 Frc consts  --      0.0009                 0.0051                 0.0129
 IR Inten    --      0.5811                 0.1422                 0.5132

                      7                      8                      9
                      A                      A                      A
 Frequencies --     75.2482               107.1378               144.2201
 Red. masses --      4.2827                 7.2305                 7.7501
 Frc consts  --      0.0143                 0.0489                 0.0950
 IR Inten    --      1.7644                 1.4601                 3.5220

                     10                     11                     12
                      A                      A                      A
 Frequencies --    156.3502               175.1302               202.3423
 Red. masses --      5.4765                 6.7387                 4.1531
 Frc consts  --      0.0789                 0.1218                 0.1002
 IR Inten    --      2.1509                 0.6877                 0.1452

                     13                     14                     15
                      A                      A                      A
 Frequencies --    226.1715               258.1705               297.9768
 Red. masses --      4.4056                 2.7710                 4.7591
 Frc consts  --      0.1328                 0.1088                 0.2490
 IR Inten    --     11.2960                24.7287                 2.8407

                     16                     17                     18
                      A                      A                      A
 Frequencies --    327.6194               344.5976               371.1465
 Red. masses --      1.4514                 3.1550                 3.4089
 Frc consts  --      0.0918                 0.2207                 0.2767
 IR Inten    --    107.3777                 0.9590                27.7650

                     19                     20                     21
                      A                      A                      A
 Frequencies --    417.7729               434.8682               449.9137
 Red. masses --      4.2115                 3.5088                 8.6133
 Frc consts  --      0.4331                 0.3910                 1.0272
 IR Inten    --      2.0088                 1.1387                 3.9936

                     22                     23                     24
                      A                      A                      A
 Frequencies --    465.0016               493.4637               526.2529
 Red. masses --      6.6000                 8.2563                 6.3503
 Frc consts  --      0.8408                 1.1845                 1.0362
 IR Inten    --      2.6155                 0.8348                 5.7626

                     25                     26                     27
                      A                      A                      A
 Frequencies --    553.3233               584.0085               592.2425
 Red. masses --      5.6198                 4.7180                 3.8375
 Frc consts  --      1.0138                 0.9481                 0.7930
 IR Inten    --     11.1624                 7.2412                 1.5842

                     28                     29                     30
                      A                      A                      A
 Frequencies --    595.7233               653.8238               674.3057
 Red. masses --      5.1324                 4.9989                 7.2712
 Frc consts  --      1.0732                 1.2591                 1.9479
 IR Inten    --     11.2705                 6.3860                14.1167

                     31                     32                     33
                      A                      A                      A
 Frequencies --    712.6662               729.7590               746.0533
 Red. masses --      5.2364                 7.2772                 7.0869
 Frc consts  --      1.5670                 2.2834                 2.3241
 IR Inten    --      9.0154                 9.0587                 5.3790

                     34                     35                     36
                      A                      A                      A
 Frequencies --    787.2354               818.3738               833.9201
 Red. masses --      7.1407                 1.3077                 1.2056
 Frc consts  --      2.6074                 0.5160                 0.4940
 IR Inten    --     10.1579                22.9108                10.1476

                     37                     38                     39
                      A                      A                      A
 Frequencies --    882.5740               899.7725               900.7253
 Red. masses --      1.8578                 1.6545                 3.3682
 Frc consts  --      0.8526                 0.7892                 1.6100
 IR Inten    --      3.4746                 5.3598                24.1811

                     40                     41                     42
                      A                      A                      A
 Frequencies --    918.5192               994.3850               996.5214
 Red. masses --      4.4023                 1.3954                 1.5918
 Frc consts  --      2.1883                 0.8130                 0.9313
 IR Inten    --     22.1423                 0.0058                33.2968

                     43                     44                     45
                      A                      A                      A
 Frequencies --   1003.1557              1038.8562              1047.7146
 Red. masses --      6.3828                 1.7137                 4.9172
 Frc consts  --      3.7844                 1.0897                 3.1802
 IR Inten    --      1.6533                 2.6313                93.9364

                     46                     47                     48
                      A                      A                      A
 Frequencies --   1073.1759              1073.6384              1133.0800
 Red. masses --      1.6467                 1.6131                 1.5108
 Frc consts  --      1.1174                 1.0956                 1.1428
 IR Inten    --     16.8783                17.4272                 1.6899

                     49                     50                     51
                      A                      A                      A
 Frequencies --   1159.1685              1215.2758              1225.1869
 Red. masses --      1.9710                 2.0200                 1.1344
 Frc consts  --      1.5603                 1.7578                 1.0032
 IR Inten    --      8.4961                20.7469                28.0837

                     52                     53                     54
                      A                      A                      A
 Frequencies --   1236.4452              1244.2806              1269.3169
 Red. masses --      2.2446                 2.4943                 8.0684
 Frc consts  --      2.0218                 2.2753                 7.6591
 IR Inten    --     26.6569                93.3269                15.0350

                     55                     56                     57
                      A                      A                      A
 Frequencies --   1292.7438              1294.4783              1303.2099
 Red. masses --      1.5965                 1.8151                 1.8795
 Frc consts  --      1.5720                 1.7920                 1.8808
 IR Inten    --     14.7803                 0.7016                22.7398

                     58                     59                     60
                      A                      A                      A
 Frequencies --   1366.2507              1385.6734              1388.9521
 Red. masses --      1.2108                 2.8762                 2.7794
 Frc consts  --      1.3316                 3.2538                 3.1592
 IR Inten    --      2.6206               182.9611                 0.7216

                     61                     62                     63
                      A                      A                      A
 Frequencies --   1431.8204              1435.4380              1471.7319
 Red. masses --      1.2577                 1.2629                 1.2041
 Frc consts  --      1.5192                 1.5331                 1.5367
 IR Inten    --    174.2678                11.1297                 8.4697

                     64                     65                     66
                      A                      A                      A
 Frequencies --   1479.2487              1503.7167              1510.9542
 Red. masses --      2.3057                 1.0447                 1.1191
 Frc consts  --      2.9727                 1.3918                 1.5052
 IR Inten    --     88.7906                 6.5730                28.8595

                     67                     68                     69
                      A                      A                      A
 Frequencies --   1518.4494              1519.7862              1597.5592
 Red. masses --      1.0849                 7.1727                 5.5557
 Frc consts  --      1.4738                 9.7611                 8.3541
 IR Inten    --      1.7305                 5.8850                 4.9457

                     70                     71                     72
                      A                      A                      A
 Frequencies --   1607.1580              1626.8249              2328.2201
 Red. masses --      5.0050                 6.0257                11.9080
 Frc consts  --      7.6168                 9.3959                38.0309
 IR Inten    --    105.2202               291.0371                36.4911

                     73                     74                     75
                      A                      A                      A
 Frequencies --   2991.0925              3062.8197              3085.6686
 Red. masses --      1.0718                 1.0359                 1.0894
 Frc consts  --      5.6499                 5.7253                 6.1115
 IR Inten    --     57.7119                 9.3775                24.7597

                     76                     77                     78
                      A                      A                      A
 Frequencies --   3096.4244              3124.9803              3147.9669
 Red. masses --      1.0610                 1.1006                 1.1037
 Frc consts  --      5.9934                 6.3324                 6.4444
 IR Inten    --     11.0429                 6.8347                16.2588

                     79                     80                     81
                      A                      A                      A
 Frequencies --   3159.3939              3182.6320              3213.1295
 Red. masses --      1.1044                 1.0906                 1.0909
 Frc consts  --      6.4951                 6.5084                 6.6358
 IR Inten    --      0.3121                17.2278                10.5854

                     82                     83                     84
                      A                      A                      A
 Frequencies --   3226.3287              3239.3341              3740.5036
 Red. masses --      1.0944                 1.0960                 1.0663
 Frc consts  --      6.7120                 6.7761                 8.7897
 IR Inten    --      9.3550                 5.5963                12.4912

 - Thermochemistry -
 -------------------
 Temperature   298.150 Kelvin.  Pressure   1.00000 Atm.
 Atom     1 has atomic number  6 and mass  12.00000

 Molecular mass:   276.03911 amu.
 Principal axes and moments of inertia in atomic units:
                           1         2         3
     Eigenvalues --  3548.24894********************
           X            0.99993   0.01139   0.00204
           Y           -0.01140   0.99993   0.00388
           Z           -0.00199  -0.00391   0.99999
 This molecule is an asymmetric top.
 Rotational symmetry number  1.
 Warning -- assumption of classical behavior for rotation
           may cause significant error
 Rotational temperatures (Kelvin)      0.02441     0.00804     0.00657
 Rotational constants (GHZ):           0.50863     0.16760     0.13688
 Zero-point vibrational energy     589871.6 (Joules/Mol)
                                  140.98270 (Kcal/Mol)
 Warning -- explicit consideration of  28 degrees of freedom as
           vibrations may cause significant error
 Vibrational temperatures:     26.74    38.93    47.68    52.48    67.86
          (Kelvin)             82.46   108.27   154.15   207.50   224.95
                              251.97   291.13   325.41   371.45   428.72
                              471.37   495.80   534.00   601.08   625.68
                              647.33   669.03   709.98   757.16   796.11
                              840.26   852.10   857.11   940.71   970.18
                             1025.37  1049.96  1073.40  1132.66  1177.46
                             1199.83  1269.83  1294.57  1295.94  1321.54
                             1430.70  1433.77  1443.32  1494.68  1507.43
                             1544.06  1544.73  1630.25  1667.78  1748.51
                             1762.77  1778.97  1790.24  1826.26  1859.97
                             1862.47  1875.03  1965.73  1993.67  1998.39
                             2060.07  2065.28  2117.49  2128.31  2163.51
                             2173.93  2184.71  2186.63  2298.53  2312.34
                             2340.64  3349.79  4303.52  4406.71  4439.59
                             4455.06  4496.15  4529.22  4545.66  4579.10
                             4622.98  4641.97  4660.68  5381.75

 Zero-point correction=                           0.224670 (Hartree/Particle)
 Thermal correction to Energy=                    0.242799
 Thermal correction to Enthalpy=                  0.243743
 Thermal correction to Gibbs Free Energy=         0.174042
 Sum of electronic and zero-point Energies=          -1483.474434
 Sum of electronic and thermal Energies=             -1483.456305
 Sum of electronic and thermal Enthalpies=           -1483.455361
 Sum of electronic and thermal Free Energies=        -1483.525062

                     E (Thermal)             CV                S
                      KCal/Mol        Cal/Mol-Kelvin    Cal/Mol-Kelvin
 Total                  152.359             64.894            146.697
 Electronic               0.000              0.000              0.000
 Translational            0.889              2.981             42.745
 Rotational               0.889              2.981             34.576
 Vibrational            150.581             58.932             69.377
 Vibration     1          0.593              1.986              6.780
 Vibration     2          0.593              1.984              6.034
 Vibration     3          0.594              1.983              5.632
 Vibration     4          0.594              1.982              5.442
 Vibration     5          0.595              1.979              4.933
 Vibration     6          0.596              1.975              4.548
 Vibration     7          0.599              1.966              4.011
 Vibration     8          0.606              1.944              3.320
 Vibration     9          0.616              1.909              2.747
 Vibration    10          0.620              1.896              2.593
 Vibration    11          0.627              1.873              2.380
 Vibration    12          0.639              1.837              2.112
 Vibration    13          0.650              1.801              1.909
 Vibration    14          0.667              1.749              1.674
 Vibration    15          0.691              1.677              1.428
 Vibration    16          0.711              1.620              1.272
 Vibration    17          0.723              1.586              1.191
 Vibration    18          0.743              1.531              1.075
 Vibration    19          0.781              1.432              0.900
 Vibration    20          0.795              1.394              0.843
 Vibration    21          0.809              1.361              0.796
 Vibration    22          0.822              1.328              0.752
 Vibration    23          0.849              1.265              0.675
 Vibration    24          0.881              1.192              0.596
 Vibration    25          0.909              1.132              0.537
 Vibration    26          0.941              1.066              0.478
 Vibration    27          0.950              1.048              0.463
 Vibration    28          0.953              1.041              0.457

 Optimization completed.
    -- Stationary point found.
 Normal termination of Gaussian 16 at Fri Dec 11 23:55:37 2020.

 ----------------------------------------------------------------------
 # B3LYP/6-311++G(d,p) empiricaldispersion=gd3bj scf=xqc pop=npa geom=c
 heck
 ----------------------------------------------------------------------

 --------------------------------------
 CID_62269823_JID_8904_Energie_neutraal
 --------------------------------------
 Structure from the checkpoint file:  "JID_8904.chk"
 Charge =  0 Multiplicity = 1

 SCF Done:  E(RB3LYP) =  -1483.94498168     A.U. after   16 cycles
 Normal termination of Gaussian 16 at Fri Dec 11 23:59:55 2020.

 ----------------------------------------------------------------------
 # B3LYP/6-311++G(d,p) empiricaldispersion=gd3bj scf=xqc pop=npa geom=c
 heck
 ----------------------------------------------------------------------

 ------------------------------------
 CID_62269823_JID_8904_Energie_kation
 ------------------------------------
 Structure from the checkpoint file:  "JID_8904.chk"
 Charge =  1 Multiplicity = 2

 SCF Done:  E(UB3LYP) =  -1483.66546184     A.U. after   26 cycles
 Normal termination of Gaussian 16 at Sat Dec 12 00:09:22 2020.
 Gaussian 16:  ES64L-G16RevA.03 25-Dec-2016

 ----------------------------------------------------------------------
 # B3LYP/6-311++G(d,p) empiricaldispersion=gd3bj scf=xqc pop=npa geom=c
 heck
 ----------------------------------------------------------------------

 -----------------------------------
 CID_62269823_JID_8904_Energie_anion
 -----------------------------------
 Structure from the checkpoint file:  "JID_8904.chk"
 Charge = -1 Multiplicity = 2

                         Standard orientation:
 ---------------------------------------------------------------------
 Center     Atomic      Atomic             Coordinates (Angstroms)
 Number     Number       Type             X           Y           Z
 ---------------------------------------------------------------------
      1          6           0        4.794745    2.540308    1.119460
      2          6           0        3.814042    1.737635    0.311374
      3          7           0        3.505373    0.520224    0.777906
      4          6           0        2.632895   -0.197589    0.061817
      5          7           0        2.031251    0.169123   -1.075160
      6          6           0        2.345465    1.388385   -1.528105
      7          6           0        3.240142    2.223462   -0.871197
      8         16           0        2.287451   -1.795061    0.746773
      9          6           0        1.059749   -2.445890   -0.474476
     10          6           0       -0.350254   -2.025762   -0.230070
     11          6           0       -1.337454   -2.782914    0.354547
     12          6           0       -2.584770   -2.115223    0.459122
     13          6           0       -2.551823   -0.833082   -0.049186
     14         16           0       -0.949748   -0.445882   -0.663941
     15          6           0       -3.594648    0.110606   -0.109567
     16          6           0       -4.489829    0.928275   -0.181676
     17          6           0       -5.534441    1.953365   -0.197576
     18          8           0       -5.812604    2.504227    1.087787
     19          1           0        4.414309    2.681071    2.136790
     20          1           0        5.742662    1.998120    1.204098
     21          1           0        4.983869    3.519327    0.671325
     22          1           0        1.853810    1.697448   -2.448360
     23          1           0        3.480407    3.208811   -1.254253
     24          1           0        1.413327   -2.154925   -1.464501
     25          1           0        1.134409   -3.532554   -0.378428
     26          1           0       -1.165513   -3.797068    0.700070
     27          1           0       -3.479705   -2.549240    0.888901
     28          1           0       -6.482110    1.527032   -0.544757
     29          1           0       -5.254880    2.740059   -0.917727
     30          1           0       -4.962274    2.768300    1.473202
 ---------------------------------------------------------------------

 SCF Done:  E(UB3LYP) =  -1483.95693293     A.U. after   28 cycles

 The electronic state is 2-A.
 Alpha  occ. eigenvalues --  -88.74197 -88.73394 -19.02920 -14.18778 -14.17984
 Alpha  occ. eigenvalues --  -10.14361 -10.14075 -10.10130 -10.09500 -10.08516
 Alpha  occ. eigenvalues --  -10.07902 -10.07479 -10.07036 -10.06178 -10.05691
 Alpha  occ. eigenvalues --  -10.05290 -10.05062 -10.04663  -7.82781  -7.82066
 Alpha  occ. eigenvalues --   -5.79085  -5.78708  -5.78440  -5.78370  -5.78048
 Alpha  occ. eigenvalues --   -5.77494  -0.93077  -0.86660  -0.77046  -0.75944
 Alpha  occ. eigenvalues --   -0.70440  -0.67572  -0.65860  -0.62388  -0.61395
 Alpha  occ. eigenvalues --   -0.60875  -0.58315  -0.54850  -0.51915  -0.48775
 Alpha  occ. eigenvalues --   -0.46609  -0.42877  -0.41984  -0.40285  -0.39532
 Alpha  occ. eigenvalues --   -0.38178  -0.37264  -0.35072  -0.34524  -0.33558
 Alpha  occ. eigenvalues --   -0.32740  -0.31349  -0.30389  -0.29633  -0.28901
 Alpha  occ. eigenvalues --   -0.28116  -0.27685  -0.26656  -0.26377  -0.25397
 Alpha  occ. eigenvalues --   -0.22817  -0.21625  -0.19829  -0.19512  -0.18410
 Alpha  occ. eigenvalues --   -0.18220  -0.17950  -0.15206  -0.13291  -0.13143
 Alpha  occ. eigenvalues --   -0.11590  -0.09777   0.03558
 Alpha virt. eigenvalues --    0.05704   0.07132   0.07597   0.08448   0.08906
 Alpha virt. eigenvalues --    0.09027   0.09455   0.09945   0.10633   0.10929
 Alpha virt. eigenvalues --    0.11582   0.11756   0.12375   0.12563   0.13090

  Beta  occ. eigenvalues --  -88.74167 -88.73375 -19.02860 -14.18709 -14.17727
  Beta  occ. eigenvalues --  -10.14381 -10.14079 -10.09928 -10.09511 -10.08195
  Beta  occ. eigenvalues --  -10.07762 -10.07229 -10.07055 -10.06249 -10.05660
  Beta  occ. eigenvalues --  -10.05339 -10.04944 -10.04554  -7.82754  -7.82047
  Beta  occ. eigenvalues --   -5.79074  -5.78698  -5.78398  -5.78262  -5.78024
  Beta  occ. eigenvalues --   -5.77486  -0.92929  -0.86357  -0.76634  -0.75687
  Beta  occ. eigenvalues --   -0.70221  -0.67285  -0.65669  -0.62168  -0.61251
  Beta  occ. eigenvalues --   -0.60660  -0.58211  -0.54749  -0.51442  -0.48571
  Beta  occ. eigenvalues --   -0.46374  -0.42767  -0.41761  -0.40098  -0.39389
  Beta  occ. eigenvalues --   -0.38038  -0.37179  -0.34948  -0.34398  -0.33078
  Beta  occ. eigenvalues --   -0.32590  -0.31229  -0.30242  -0.29344  -0.28558
  Beta  occ. eigenvalues --   -0.27946  -0.27530  -0.26537  -0.25909  -0.25212
  Beta  occ. eigenvalues --   -0.22537  -0.21407  -0.19707  -0.18446  -0.18058
  Beta  occ. eigenvalues --   -0.17626  -0.17294  -0.15118  -0.13037  -0.12585
  Beta  occ. eigenvalues --   -0.11256  -0.08819
  Beta virt. eigenvalues --    0.06895   0.07121   0.07932   0.08333   0.08496
  Beta virt. eigenvalues --    0.08896   0.09255   0.09576   0.09952   0.10631
  Beta virt. eigenvalues --    0.10909   0.11639   0.11736   0.12412   0.12662

 Mulliken charges and spin densities:
               1          2
     1  C   -0.491499  -0.027653
     2  C    0.370207   0.120160
     3  N    0.067172   0.123623
     4  C   -0.604223  -0.013476
     5  N   -0.000205   0.029853
     6  C   -0.072931   0.235032
     7  C   -0.301549  -0.043601
     8  S   -0.023027   0.019119
     9  C   -1.341257  -0.028205
    10  C    1.045400   0.150628
    11  C   -0.212676  -0.018033
    12  C    0.033799   0.121696
    13  C   -0.015870   0.049893
    14  S   -0.846477   0.061125
    15  C    0.260642   0.017595
    16  C   -0.032574   0.169693
    17  C   -0.362183  -0.074156
    18  O   -0.234462  -0.025372
    19  H    0.140425   0.015804
    20  H    0.136092   0.016320
    21  H    0.126716  -0.000231
    22  H    0.146269  -0.015276
    23  H    0.116708   0.003860
    24  H    0.207439   0.020719
    25  H    0.208359  -0.000606
    26  H    0.116318   0.002813
    27  H    0.114048  -0.007709
    28  H    0.138505   0.022160
    29  H    0.140928   0.011340
    30  H    0.169907   0.062884
 Sum of Mulliken charges =  -1.00000   1.00000

 Dipole moment (field-independent basis, Debye):
    X=              2.7029    Y=              0.1988    Z=             -1.8791  Tot=              3.2979
 Quadrupole moment (field-independent basis, Debye-Ang):
   XX=           -197.0808   YY=           -131.0007   ZZ=           -134.0328
   XY=             10.8524   XZ=              2.6607   YZ=             -2.6939

 Summary of Natural Population Analysis:

                                       Natural Population
                Natural  -----------------------------------------------
    Atom  No    Charge         Core      Valence    Rydberg      Total
 -----------------------------------------------------------------------
      C    1   -0.30027      0.99964     2.29572    0.00491     3.30027
      C    2    0.15778      0.99957     1.83049    0.01216     2.84222
      N    3   -0.24067      0.99962     2.72768    0.01338     3.74067
      C    4    0.14334      0.99958     1.83570    0.02138     2.85666
      N    5   -0.26936      0.99965     2.75652    0.01319     3.76936
      C    6    0.10580      0.99960     1.88075    0.01386     2.89420
      C    7   -0.17410      0.99951     2.16712    0.00747     3.17410
      S    8    0.13106      4.99952     2.85027    0.01915     7.86894
      C    9   -0.26147      0.99950     2.25054    0.01143     3.26147
      C   10   -0.06197      0.99948     2.04953    0.01296     3.06197
      C   11   -0.14572      0.99947     2.13697    0.00927     3.14572
      C   12   -0.08781      0.99952     2.07860    0.00969     3.08781
      C   13   -0.11588      0.99930     2.10636    0.01022     3.11588
      S   14    0.23861      4.99941     2.74014    0.02185     7.76139
      C   15   -0.00819      0.99929     2.00173    0.00717     3.00819
      C   16   -0.01973      0.99925     2.01507    0.00540     3.01973
      C   17   -0.04406      0.99955     2.03280    0.01171     3.04406
      O   18   -0.36419      0.99990     3.35676    0.00753     4.36419
      H   19    0.10801      0.00000     0.39101    0.00098     0.39199
      H   20    0.10660      0.00000     0.39240    0.00101     0.39340
      H   21    0.09410      0.00000     0.40507    0.00083     0.40590
      H   22    0.08116      0.00000     0.41729    0.00155     0.41884
      H   23    0.09789      0.00000     0.40104    0.00107     0.40211
      H   24    0.12256      0.00000     0.37613    0.00132     0.37744
      H   25    0.10568      0.00000     0.39299    0.00132     0.39432
      H   26    0.09819      0.00000     0.40057    0.00124     0.40181
      H   27    0.09949      0.00000     0.39950    0.00102     0.40051
      H   28    0.09302      0.00000     0.40486    0.00213     0.40698
      H   29    0.08468      0.00000     0.41342    0.00190     0.41532
      H   30    0.22756      0.00000     0.26875    0.00369     0.27244
 =======================================================================
   * Total *    0.00208     25.99136    45.77577    0.23079    71.99792

 Normal termination of Gaussian 16 at Sat Dec 12 00:19:05 2020.
