 Gaussian 16, Revision A.03,

 -----------------------------------------------------------
 # opt freq B3LYP/6-31G(d) empiricaldispersion=gd3bj scf=xqc
 -----------------------------------------------------------

 -------------------------------
 CID_104456083_JID_6682_neutraal
 -------------------------------
 Symbolic Z-matrix:
 Charge =  0 Multiplicity = 1

 SCF Done:  E(RB3LYP) =  -728.097716648     A.U. after   15 cycles
 SCF Done:  E(RB3LYP) =  -728.101132105     A.U. after   12 cycles
 SCF Done:  E(RB3LYP) =  -728.101865270     A.U. after   13 cycles
 SCF Done:  E(RB3LYP) =  -728.102096244     A.U. after   12 cycles
 SCF Done:  E(RB3LYP) =  -728.102223793     A.U. after   12 cycles
 SCF Done:  E(RB3LYP) =  -728.102333833     A.U. after   12 cycles
 SCF Done:  E(RB3LYP) =  -728.102419649     A.U. after   13 cycles
 SCF Done:  E(RB3LYP) =  -728.102416345     A.U. after   12 cycles
 SCF Done:  E(RB3LYP) =  -728.102531320     A.U. after   10 cycles
 SCF Done:  E(RB3LYP) =  -728.102727168     A.U. after   15 cycles
 SCF Done:  E(RB3LYP) =  -728.103085654     A.U. after    9 cycles
 SCF Done:  E(RB3LYP) =  -728.103085705     A.U. after    6 cycles
 SCF Done:  E(RB3LYP) =  -728.103085754     A.U. after    7 cycles
 SCF Done:  E(RB3LYP) =  -728.103085783     A.U. after    7 cycles
 SCF Done:  E(RB3LYP) =  -728.103085793     A.U. after    6 cycles
 Optimization completed.
    -- Stationary point found.
 Normal termination of Gaussian 16 at Fri Dec 11 00:32:17 2020.

 --------------------------------------------------------------------
 #N Geom=AllCheck Guess=TCheck SCRF=Check GenChk RB3LYP/6-31G(d) Freq
 --------------------------------------------------------------------

 Structure from the checkpoint file:  "JID_6682.chk"
 -------------------------------
 CID_104456083_JID_6682_neutraal
 -------------------------------
 Charge =  0 Multiplicity = 1

 SCF Done:  E(RB3LYP) =  -728.103085793     A.U. after    1 cycles

  Exact polarizability: 154.271  -9.733 130.982  -1.712  -6.004 123.940
 Approx polarizability: 206.794 -19.621 190.147  -9.565 -13.503 196.253

                      1                      2                      3
                      A                      A                      A
 Frequencies --     10.1381                23.6940                30.0313
 Red. masses --      3.5673                 3.6279                 2.7388
 Frc consts  --      0.0002                 0.0012                 0.0015
 IR Inten    --      0.6789                 0.4859                 0.3873

                      4                      5                      6
                      A                      A                      A
 Frequencies --     45.7089                72.1314               112.5439
 Red. masses --      4.8928                 5.6966                 3.7574
 Frc consts  --      0.0060                 0.0175                 0.0280
 IR Inten    --      2.4896                 2.3729                 2.2924

                      7                      8                      9
                      A                      A                      A
 Frequencies --    140.3077               164.9396               178.7087
 Red. masses --      3.5444                 3.4502                 2.1619
 Frc consts  --      0.0411                 0.0553                 0.0407
 IR Inten    --      0.4464                 1.2044                 0.6696

                     10                     11                     12
                      A                      A                      A
 Frequencies --    224.3624               253.0205               294.3310
 Red. masses --      1.2132                 3.8503                 2.0194
 Frc consts  --      0.0360                 0.1452                 0.1031
 IR Inten    --      1.1359                 1.5935                 1.4621

                     13                     14                     15
                      A                      A                      A
 Frequencies --    305.8736               377.1677               391.4962
 Red. masses --      4.0969                 3.5408                 2.7898
 Frc consts  --      0.2258                 0.2968                 0.2519
 IR Inten    --      7.8842                 2.7388                 2.0811

                     16                     17                     18
                      A                      A                      A
 Frequencies --    409.6135               425.8478               450.5227
 Red. masses --      2.2505                 3.6437                 2.5497
 Frc consts  --      0.2225                 0.3893                 0.3049
 IR Inten    --      0.6985                 4.1815                 2.5170

                     19                     20                     21
                      A                      A                      A
 Frequencies --    485.8388               511.1695               533.7288
 Red. masses --      2.7533                 3.2651                 3.5254
 Frc consts  --      0.3829                 0.5027                 0.5917
 IR Inten    --     10.4511                 5.6301                 0.6772

                     22                     23                     24
                      A                      A                      A
 Frequencies --    620.4902               672.3766               688.7021
 Red. masses --      3.6650                 5.9226                 3.4868
 Frc consts  --      0.8314                 1.5776                 0.9744
 IR Inten    --      6.3229                 1.2007                 3.4789

                     25                     26                     27
                      A                      A                      A
 Frequencies --    701.8270               756.6652               761.6979
 Red. masses --      3.1907                 3.0099                 2.8430
 Frc consts  --      0.9260                 1.0153                 0.9718
 IR Inten    --      5.1165                17.5013                12.6895

                     28                     29                     30
                      A                      A                      A
 Frequencies --    770.9323               795.9708               804.9926
 Red. masses --      1.5482                 1.5178                 1.1727
 Frc consts  --      0.5421                 0.5666                 0.4477
 IR Inten    --      2.3686                11.7758                 2.7262

                     31                     32                     33
                      A                      A                      A
 Frequencies --    857.3621               872.9320               930.8651
 Red. masses --      2.0460                 1.3780                 1.3992
 Frc consts  --      0.8861                 0.6187                 0.7144
 IR Inten    --     11.2002                13.1694                 1.6914

                     34                     35                     36
                      A                      A                      A
 Frequencies --    940.9030               965.1766               972.0174
 Red. masses --      2.5256                 2.0700                 2.5828
 Frc consts  --      1.3173                 1.1361                 1.4377
 IR Inten    --      7.5305                15.6182                15.5872

                     37                     38                     39
                      A                      A                      A
 Frequencies --   1009.8223              1014.1231              1022.8068
 Red. masses --      1.9501                 2.9366                 2.7851
 Frc consts  --      1.1716                 1.7794                 1.7166
 IR Inten    --      8.6115                26.7499                 6.5402

                     40                     41                     42
                      A                      A                      A
 Frequencies --   1031.2743              1057.5179              1083.4009
 Red. masses --      2.4542                 3.4146                 1.2669
 Frc consts  --      1.5378                 2.2499                 0.8762
 IR Inten    --     12.3430                 6.7921                 6.0221

                     43                     44                     45
                      A                      A                      A
 Frequencies --   1106.5721              1124.9106              1128.6791
 Red. masses --      1.9972                 1.9208                 1.9893
 Frc consts  --      1.4409                 1.4320                 1.4931
 IR Inten    --     30.9939                21.6655                22.1213

                     46                     47                     48
                      A                      A                      A
 Frequencies --   1130.7825              1143.8550              1187.9290
 Red. masses --      3.3521                 2.1774                 2.0022
 Frc consts  --      2.5254                 1.6786                 1.6647
 IR Inten    --    151.4932                 2.8413                44.2872

                     49                     50                     51
                      A                      A                      A
 Frequencies --   1195.1677              1226.3124              1247.0008
 Red. masses --      2.1408                 1.4877                 1.2945
 Frc consts  --      1.8017                 1.3182                 1.1860
 IR Inten    --     28.9580                 5.0946                 2.7689

                     52                     53                     54
                      A                      A                      A
 Frequencies --   1277.9865              1280.4803              1282.3835
 Red. masses --      1.5412                 1.7516                 1.4043
 Frc consts  --      1.4830                 1.6921                 1.3607
 IR Inten    --     12.5525                 3.4374                10.3499

                     55                     56                     57
                      A                      A                      A
 Frequencies --   1297.1583              1330.9879              1354.2316
 Red. masses --      1.2650                 1.3869                 1.3219
 Frc consts  --      1.2541                 1.4476                 1.4283
 IR Inten    --     10.5982                 0.9494                 2.0355

                     58                     59                     60
                      A                      A                      A
 Frequencies --   1364.8415              1372.2150              1373.8920
 Red. masses --      1.4642                 1.4887                 1.8239
 Frc consts  --      1.6070                 1.6516                 2.0284
 IR Inten    --      8.1249                 7.7929                22.0054

                     61                     62                     63
                      A                      A                      A
 Frequencies --   1400.5427              1406.5368              1414.4439
 Red. masses --      1.6027                 1.4003                 1.5193
 Frc consts  --      1.8522                 1.6322                 1.7909
 IR Inten    --      4.1911                38.8155                 6.9018

                     64                     65                     66
                      A                      A                      A
 Frequencies --   1422.1808              1427.8443              1436.9052
 Red. masses --      3.4016                 1.6061                 1.2724
 Frc consts  --      4.0536                 1.9293                 1.5478
 IR Inten    --      2.3901                 4.4654                 8.5662

                     67                     68                     69
                      A                      A                      A
 Frequencies --   1450.1934              1491.7342              1492.1576
 Red. masses --      2.4892                 3.1888                 1.0966
 Frc consts  --      3.0844                 4.1808                 1.4386
 IR Inten    --     20.7763                21.2261                 6.7273

                     70                     71                     72
                      A                      A                      A
 Frequencies --   1502.2079              1513.2034              1518.5868
 Red. masses --      1.0847                 1.1468                 1.0505
 Frc consts  --      1.4422                 1.5472                 1.4273
 IR Inten    --     10.3937                 1.8735                 8.1542

                     73                     74                     75
                      A                      A                      A
 Frequencies --   1519.1847              1531.5708              1536.7746
 Red. masses --      1.0908                 1.0995                 1.0775
 Frc consts  --      1.4832                 1.5196                 1.4994
 IR Inten    --      6.4444                 2.4474                 4.9183

                     76                     77                     78
                      A                      A                      A
 Frequencies --   1536.8081              1616.9792              1824.0390
 Red. masses --      1.0871                 5.0558                11.0291
 Frc consts  --      1.5128                 7.7884                21.6202
 IR Inten    --      1.0838                32.7671               203.2207

                     79                     80                     81
                      A                      A                      A
 Frequencies --   2998.0309              3019.3218              3020.6527
 Red. masses --      1.0815                 1.0699                 1.0693
 Frc consts  --      5.7274                 5.7467                 5.7482
 IR Inten    --     23.9005                36.0887                 3.3405

                     82                     83                     84
                      A                      A                      A
 Frequencies --   3027.8108              3050.9208              3057.5954
 Red. masses --      1.0699                 1.0608                 1.0619
 Frc consts  --      5.7789                 5.8178                 5.8491
 IR Inten    --     20.3334                26.3573                38.8240

                     85                     86                     87
                      A                      A                      A
 Frequencies --   3060.5564              3082.7843              3093.1592
 Red. masses --      1.0355                 1.0599                 1.0973
 Frc consts  --      5.7151                 5.9349                 6.1854
 IR Inten    --     18.5008                27.5557                28.9069

                     88                     89                     90
                      A                      A                      A
 Frequencies --   3096.0138              3106.2531              3121.9134
 Red. masses --      1.0999                 1.1019                 1.1045
 Frc consts  --      6.2116                 6.2640                 6.3423
 IR Inten    --     38.7502                27.4949                 5.7905

                     91                     92                     93
                      A                      A                      A
 Frequencies --   3123.7893              3126.1476              3134.9271
 Red. masses --      1.0939                 1.0943                 1.1034
 Frc consts  --      6.2891                 6.3007                 6.3892
 IR Inten    --     19.2107                20.0704                36.3778

                     94                     95                     96
                      A                      A                      A
 Frequencies --   3151.8657              3256.8236              3264.7352
 Red. masses --      1.1044                 1.0959                 1.0975
 Frc consts  --      6.4642                 6.8486                 6.8923
 IR Inten    --     19.4565                 4.4787                 0.5279

 - Thermochemistry -
 -------------------
 Temperature   298.150 Kelvin.  Pressure   1.00000 Atm.
 Atom     1 has atomic number  6 and mass  12.00000

 Molecular mass:   222.13683 amu.
 Principal axes and moments of inertia in atomic units:
                           1         2         3
     Eigenvalues --  2088.421526798.640777735.24702
           X            0.99968  -0.02484   0.00417
           Y            0.02483   0.99969   0.00352
           Z           -0.00426  -0.00341   0.99999
 This molecule is an asymmetric top.
 Rotational symmetry number  1.
 Warning -- assumption of classical behavior for rotation
           may cause significant error
 Rotational temperatures (Kelvin)      0.04147     0.01274     0.01120
 Rotational constants (GHZ):           0.86417     0.26546     0.23331
 Zero-point vibrational energy     771792.4 (Joules/Mol)
                                  184.46281 (Kcal/Mol)
 Warning -- explicit consideration of  22 degrees of freedom as
           vibrations may cause significant error
 Vibrational temperatures:     14.59    34.09    43.21    65.76   103.78
          (Kelvin)            161.93   201.87   237.31   257.12   322.81
                              364.04   423.48   440.08   542.66   563.28
                              589.34   612.70   648.20   699.01   735.46
                              767.92   892.75   967.40   990.89  1009.77
                             1088.67  1095.91  1109.20  1145.22  1158.20
                             1233.55  1255.95  1339.31  1353.75  1388.67
                             1398.52  1452.91  1459.10  1471.59  1483.77
                             1521.53  1558.77  1592.11  1618.50  1623.92
                             1626.94  1645.75  1709.16  1719.58  1764.39
                             1794.16  1838.74  1842.33  1845.06  1866.32
                             1914.99  1948.44  1963.70  1974.31  1976.72
                             2015.07  2023.69  2035.07  2046.20  2054.35
                             2067.39  2086.50  2146.27  2146.88  2161.34
                             2177.16  2184.91  2185.77  2203.59  2211.08
                             2211.12  2326.47  2624.39  4313.50  4344.13
                             4346.05  4356.34  4389.59  4399.20  4403.46
                             4435.44  4450.37  4454.47  4469.21  4491.74
                             4494.44  4497.83  4510.46  4534.83  4685.84
                             4697.23

 Zero-point correction=                           0.293960 (Hartree/Particle)
 Thermal correction to Energy=                    0.309478
 Thermal correction to Enthalpy=                  0.310422
 Thermal correction to Gibbs Free Energy=         0.247284
 Sum of electronic and zero-point Energies=           -727.809126
 Sum of electronic and thermal Energies=              -727.793608
 Sum of electronic and thermal Enthalpies=            -727.792664
 Sum of electronic and thermal Free Energies=         -727.855801

                     E (Thermal)             CV                S
                      KCal/Mol        Cal/Mol-Kelvin    Cal/Mol-Kelvin
 Total                  194.200             57.855            132.885
 Electronic               0.000              0.000              0.000
 Translational            0.889              2.981             42.097
 Rotational               0.889              2.981             33.062
 Vibrational            192.423             51.894             57.725
 Vibration     1          0.593              1.987              7.984
 Vibration     2          0.593              1.985              6.298
 Vibration     3          0.594              1.984              5.827
 Vibration     4          0.595              1.979              4.995
 Vibration     5          0.598              1.967              4.094
 Vibration     6          0.607              1.939              3.225
 Vibration     7          0.615              1.913              2.800
 Vibration     8          0.623              1.886              2.492
 Vibration     9          0.629              1.868              2.342
 Vibration    10          0.649              1.804              1.924
 Vibration    11          0.664              1.758              1.709
 Vibration    12          0.689              1.684              1.449
 Vibration    13          0.696              1.663              1.385
 Vibration    14          0.748              1.519              1.051
 Vibration    15          0.759              1.488              0.994
 Vibration    16          0.774              1.449              0.928
 Vibration    17          0.788              1.414              0.872
 Vibration    18          0.809              1.360              0.794
 Vibration    19          0.842              1.281              0.694
 Vibration    20          0.866              1.225              0.631
 Vibration    21          0.889              1.175              0.579
 Vibration    22          0.981              0.989              0.416

 Optimization completed on the basis of negligible forces.
    -- Stationary point found.
 Normal termination of Gaussian 16 at Fri Dec 11 00:44:21 2020.

 ----------------------------------------------------------------------
 # B3LYP/6-311++G(d,p) empiricaldispersion=gd3bj scf=xqc pop=npa geom=c
 heck
 ----------------------------------------------------------------------

 ---------------------------------------
 CID_104456083_JID_6682_Energie_neutraal
 ---------------------------------------
 Structure from the checkpoint file:  "JID_6682.chk"
 Charge =  0 Multiplicity = 1

 SCF Done:  E(RB3LYP) =  -728.305973266     A.U. after   15 cycles
 Normal termination of Gaussian 16 at Fri Dec 11 00:50:30 2020.

 ----------------------------------------------------------------------
 # B3LYP/6-311++G(d,p) empiricaldispersion=gd3bj scf=xqc pop=npa geom=c
 heck
 ----------------------------------------------------------------------

 -------------------------------------
 CID_104456083_JID_6682_Energie_kation
 -------------------------------------
 Structure from the checkpoint file:  "JID_6682.chk"
 Charge =  1 Multiplicity = 2

 SCF Done:  E(UB3LYP) =  -727.995502891     A.U. after   33 cycles
 SCF Done:  E(UB3LYP) =  -727.995502922     a.u. after    2 cycles
 Normal termination of Gaussian 16 at Fri Dec 11 01:25:46 2020.
 Gaussian 16:  ES64L-G16RevA.03 25-Dec-2016

 ----------------------------------------------------------------------
 # B3LYP/6-311++G(d,p) empiricaldispersion=gd3bj scf=xqc pop=npa geom=c
 heck
 ----------------------------------------------------------------------

 ------------------------------------
 CID_104456083_JID_6682_Energie_anion
 ------------------------------------
 Structure from the checkpoint file:  "JID_6682.chk"
 Charge = -1 Multiplicity = 2

                         Standard orientation:
 ---------------------------------------------------------------------
 Center     Atomic      Atomic             Coordinates (Angstroms)
 Number     Number       Type             X           Y           Z
 ---------------------------------------------------------------------
      1          6           0       -3.514115    2.619386    0.363121
      2          6           0       -4.037270    1.356562   -0.319430
      3          7           0       -3.153781    0.218171   -0.114672
      4          6           0       -2.227016   -0.290040   -0.968526
      5          6           0       -1.564981   -1.305244   -0.297180
      6          6           0       -2.167961   -1.311929    0.985189
      7          7           0       -3.122897   -0.389729    1.094454
      8          6           0       -0.446893   -2.167979   -0.795705
      9          8           0        0.749449   -2.055892   -0.024364
     10          6           0        1.296818   -0.746985    0.082694
     11          6           0        1.866673   -0.233952   -1.245977
     12          6           0        2.526636    1.146329   -1.069702
     13          6           0        3.557652    1.140006    0.051421
     14          8           0        4.680211    1.584353   -0.090747
     15          6           0        3.070602    0.537204    1.361593
     16          6           0        2.392400   -0.827096    1.143978
     17          1           0       -3.401411    2.443734    1.436478
     18          1           0       -4.212323    3.449980    0.214080
     19          1           0       -2.539660    2.907156   -0.045604
     20          1           0       -5.019187    1.081113    0.075090
     21          1           0       -4.135235    1.500425   -1.399759
     22          1           0       -2.117097    0.088030   -1.975657
     23          1           0       -1.939589   -1.955405    1.824892
     24          1           0       -0.707819   -3.228625   -0.725036
     25          1           0       -0.255368   -1.950761   -1.856686
     26          1           0        0.515626   -0.049354    0.424805
     27          1           0        1.079875   -0.163833   -2.005244
     28          1           0        2.602995   -0.961228   -1.611384
     29          1           0        1.751911    1.881430   -0.802712
     30          1           0        3.009039    1.490511   -1.988284
     31          1           0        3.915433    0.467813    2.051704
     32          1           0        2.340528    1.236952    1.796300
     33          1           0        1.961599   -1.195009    2.080830
     34          1           0        3.134866   -1.567285    0.819754
 ---------------------------------------------------------------------

 SCF Done:  E(UB3LYP) =  -728.301562471     A.U. after   31 cycles

 The electronic state is 2-A.
 Alpha  occ. eigenvalues --  -19.03114 -18.99862 -14.29496 -14.23556 -10.14094
 Alpha  occ. eigenvalues --  -10.13237 -10.12334 -10.12119 -10.11099 -10.09594
 Alpha  occ. eigenvalues --  -10.07752 -10.07724 -10.07689 -10.07455 -10.07284
 Alpha  occ. eigenvalues --  -10.07027  -0.95750  -0.94265  -0.93251  -0.75537
 Alpha  occ. eigenvalues --   -0.73267  -0.70380  -0.66052  -0.65725  -0.62991
 Alpha  occ. eigenvalues --   -0.58369  -0.55047  -0.53241  -0.50632  -0.47866
 Alpha  occ. eigenvalues --   -0.47316  -0.43822  -0.43111  -0.40136  -0.38368
 Alpha  occ. eigenvalues --   -0.37118  -0.36916  -0.36019  -0.35519  -0.34801
 Alpha  occ. eigenvalues --   -0.34111  -0.33572  -0.32435  -0.30730  -0.30310
 Alpha  occ. eigenvalues --   -0.29393  -0.29161  -0.28633  -0.28203  -0.26528
 Alpha  occ. eigenvalues --   -0.26130  -0.25302  -0.24452  -0.24040  -0.21545
 Alpha  occ. eigenvalues --   -0.20413  -0.16982  -0.16365  -0.15209  -0.13924
 Alpha  occ. eigenvalues --    0.03925
 Alpha virt. eigenvalues --    0.06226   0.07109   0.07661   0.08206   0.08635
 Alpha virt. eigenvalues --    0.08957   0.09460   0.09711   0.10056   0.10465
 Alpha virt. eigenvalues --    0.11206   0.11295   0.11913   0.12543   0.12773

  Beta  occ. eigenvalues --  -19.03112 -18.99711 -14.29499 -14.23546 -10.13940
  Beta  occ. eigenvalues --  -10.13228 -10.12325 -10.12090 -10.11063 -10.09589
  Beta  occ. eigenvalues --  -10.07739 -10.07726 -10.07693 -10.07431 -10.07283
  Beta  occ. eigenvalues --  -10.06991  -0.95740  -0.94259  -0.92957  -0.75518
  Beta  occ. eigenvalues --   -0.73198  -0.70349  -0.66007  -0.65684  -0.62902
  Beta  occ. eigenvalues --   -0.58293  -0.54983  -0.53196  -0.50577  -0.47800
  Beta  occ. eigenvalues --   -0.47264  -0.43636  -0.43050  -0.40094  -0.38331
  Beta  occ. eigenvalues --   -0.37037  -0.36880  -0.35951  -0.35408  -0.34684
  Beta  occ. eigenvalues --   -0.34035  -0.33502  -0.32313  -0.30607  -0.30259
  Beta  occ. eigenvalues --   -0.29352  -0.29107  -0.28540  -0.28134  -0.26485
  Beta  occ. eigenvalues --   -0.26082  -0.25163  -0.24377  -0.23564  -0.21522
  Beta  occ. eigenvalues --   -0.20397  -0.16968  -0.16341  -0.15199  -0.13801
  Beta virt. eigenvalues --    0.06564   0.07274   0.07547   0.08155   0.08666
  Beta virt. eigenvalues --    0.08985   0.09387   0.09730   0.09878   0.10145
  Beta virt. eigenvalues --    0.10665   0.11408   0.11690   0.11987   0.12636

 Mulliken charges and spin densities:
               1          2
     1  C    0.651965  -1.157875
     2  C    0.172817  -0.303948
     3  N    0.360861  -0.057953
     4  C   -1.126887   0.609678
     5  C    1.229947  -0.609414
     6  C   -0.077677  -0.170632
     7  N   -0.366148   0.184739
     8  C    0.306631  -1.047251
     9  O   -0.009240   0.012143
    10  C   -0.622884  -0.014448
    11  C    0.041605   0.015079
    12  C   -0.050907  -0.308232
    13  C   -0.256360   0.175096
    14  O   -0.332172   0.061293
    15  C    0.027833  -0.236811
    16  C    0.014171  -0.034272
    17  H    0.053237   0.105919
    18  H   -0.284408   0.414039
    19  H   -0.234198   0.400912
    20  H   -0.027901   0.192749
    21  H   -0.517308   0.666296
    22  H   -1.093085   1.296041
    23  H    0.097808   0.049270
    24  H    0.105687   0.044944
    25  H    0.088618   0.076884
    26  H    0.689642  -0.514570
    27  H   -0.167731   0.315635
    28  H    0.158435  -0.010114
    29  H   -0.073362   0.237956
    30  H    0.062806   0.124497
    31  H    0.160776   0.028669
    32  H   -0.167397   0.328288
    33  H    0.059846   0.105318
    34  H    0.124978   0.020077
 Sum of Mulliken charges =  -1.00000   1.00000

 Dipole moment (field-independent basis, Debye):
    X=              0.9344    Y=             -6.0578    Z=              2.8705  Tot=              6.7683
 Quadrupole moment (field-independent basis, Debye-Ang):
   XX=           -182.4962   YY=           -138.0682   ZZ=           -132.7216
   XY=              1.3363   XZ=             -5.7485   YZ=              7.3182

 Summary of Natural Population Analysis:

                                       Natural Population
                Natural  -----------------------------------------------
    Atom  No    Charge         Core      Valence    Rydberg      Total
 -----------------------------------------------------------------------
      C    1   -0.28918      0.99966     2.28459    0.00494     3.28918
      C    2   -0.08072      0.99962     2.06983    0.01127     3.08072
      N    3   -0.10707      0.99966     2.59293    0.01448     3.60707
      C    4    0.00460      0.99949     1.98370    0.01221     2.99540
      C    5   -0.09874      0.99952     2.08959    0.00964     3.09874
      C    6   -0.00737      0.99957     1.99414    0.01366     3.00737
      N    7   -0.15249      0.99973     2.64181    0.01095     3.65249
      C    8   -0.01597      0.99953     2.00401    0.01243     3.01597
      O    9   -0.30229      0.99988     3.29397    0.00844     4.30229
      C   10    0.06042      0.99951     1.92565    0.01441     2.93958
      C   11   -0.19981      0.99960     2.19118    0.00903     3.19981
      C   12   -0.23762      0.99959     2.22865    0.00938     3.23762
      C   13    0.31224      0.99966     1.66665    0.02146     2.68776
      O   14   -0.28068      0.99987     3.27407    0.00674     4.28068
      C   15   -0.23791      0.99958     2.22959    0.00873     3.23791
      C   16   -0.19027      0.99960     2.18065    0.01002     3.19027
      H   17    0.10314      0.00000     0.39567    0.00119     0.39686
      H   18    0.10088      0.00000     0.39786    0.00126     0.39912
      H   19    0.10439      0.00000     0.39388    0.00174     0.39561
      H   20    0.09940      0.00000     0.39923    0.00137     0.40060
      H   21    0.10332      0.00000     0.39404    0.00264     0.39668
      H   22    0.11134      0.00000     0.38532    0.00333     0.38866
      H   23    0.09787      0.00000     0.40119    0.00094     0.40213
      H   24    0.09277      0.00000     0.40617    0.00107     0.40723
      H   25    0.08573      0.00000     0.41300    0.00128     0.41427
      H   26    0.08717      0.00000     0.41005    0.00278     0.41283
      H   27    0.10410      0.00000     0.39419    0.00171     0.39590
      H   28    0.09588      0.00000     0.40291    0.00122     0.40412
      H   29    0.11225      0.00000     0.38557    0.00218     0.38775
      H   30    0.10841      0.00000     0.39063    0.00096     0.39159
      H   31    0.10640      0.00000     0.39258    0.00102     0.39360
      H   32    0.10957      0.00000     0.38890    0.00154     0.39043
      H   33    0.10333      0.00000     0.39554    0.00113     0.39667
      H   34    0.09693      0.00000     0.40187    0.00121     0.40307
 =======================================================================
   * Total *   -0.00000     15.99407    43.79959    0.20634    60.00000

 Normal termination of Gaussian 16 at Fri Dec 11 01:43:48 2020.
