 Gaussian 16, Revision A.03,

 -----------------------------------------------------------
 # opt freq B3LYP/6-31G(d) empiricaldispersion=gd3bj scf=xqc
 -----------------------------------------------------------

 -------------------------------
 CID_138105687_JID_7945_neutraal
 -------------------------------
 Symbolic Z-matrix:
 Charge =  0 Multiplicity = 1

 SCF Done:  E(RB3LYP) =  -822.987323081     A.U. after   15 cycles
 SCF Done:  E(RB3LYP) =  -822.996910627     A.U. after   13 cycles
 SCF Done:  E(RB3LYP) =  -822.992484358     A.U. after   13 cycles
 SCF Done:  E(RB3LYP) =  -822.995117670     A.U. after   14 cycles
 SCF Done:  E(RB3LYP) =  -822.999303173     A.U. after   10 cycles
 SCF Done:  E(RB3LYP) =  -823.000320110     A.U. after   13 cycles
 SCF Done:  E(RB3LYP) =  -822.998823398     A.U. after   12 cycles
 SCF Done:  E(RB3LYP) =  -823.000668938     A.U. after   12 cycles
 SCF Done:  E(RB3LYP) =  -823.001204725     A.U. after   11 cycles
 SCF Done:  E(RB3LYP) =  -823.001264167     A.U. after   11 cycles
 SCF Done:  E(RB3LYP) =  -823.001533641     A.U. after    9 cycles
 SCF Done:  E(RB3LYP) =  -823.001536002     A.U. after    9 cycles
 SCF Done:  E(RB3LYP) =  -823.001537101     A.U. after    8 cycles
 SCF Done:  E(RB3LYP) =  -823.001537316     A.U. after    7 cycles
 SCF Done:  E(RB3LYP) =  -823.001537366     A.U. after    7 cycles
 Optimization completed.
    -- Stationary point found.
 Normal termination of Gaussian 16 at Fri Dec 11 13:31:03 2020.

 --------------------------------------------------------------------
 #N Geom=AllCheck Guess=TCheck SCRF=Check GenChk RB3LYP/6-31G(d) Freq
 --------------------------------------------------------------------

 Structure from the checkpoint file:  "JID_7945.chk"
 -------------------------------
 CID_138105687_JID_7945_neutraal
 -------------------------------
 Charge =  0 Multiplicity = 1

 SCF Done:  E(RB3LYP) =  -823.001537366     A.U. after    1 cycles

  Exact polarizability: 135.797  -5.024 158.644  -0.413   0.820 134.787
 Approx polarizability: 174.925  -7.063 217.680  -9.067  10.996 222.280

                      1                      2                      3
                      A                      A                      A
 Frequencies --     19.9921                54.0785                59.2501
 Red. masses --      4.4457                 4.3392                 3.4397
 Frc consts  --      0.0010                 0.0075                 0.0071
 IR Inten    --      0.0227                 0.3573                 0.2459

                      4                      5                      6
                      A                      A                      A
 Frequencies --     72.7194                80.7726                85.3371
 Red. masses --      2.7426                 2.9790                 3.4012
 Frc consts  --      0.0085                 0.0115                 0.0146
 IR Inten    --      0.0430                 1.1376                 0.1528

                      7                      8                      9
                      A                      A                      A
 Frequencies --     94.2343                98.0258               128.8006
 Red. masses --      2.7367                 2.9606                 3.3943
 Frc consts  --      0.0143                 0.0168                 0.0332
 IR Inten    --      0.3249                 0.4983                 1.8678

                     10                     11                     12
                      A                      A                      A
 Frequencies --    174.4932               180.5472               200.0465
 Red. masses --      4.3507                 2.7587                 3.2400
 Frc consts  --      0.0780                 0.0530                 0.0764
 IR Inten    --      0.1485                 2.8637                 0.6659

                     13                     14                     15
                      A                      A                      A
 Frequencies --    210.3222               230.2949               254.4853
 Red. masses --      1.1156                 1.7019                 1.2001
 Frc consts  --      0.0291                 0.0532                 0.0458
 IR Inten    --      0.0603                 1.4299                 0.4550

                     16                     17                     18
                      A                      A                      A
 Frequencies --    263.6234               278.0564               287.8880
 Red. masses --      1.4521                 3.0141                 1.6799
 Frc consts  --      0.0595                 0.1373                 0.0820
 IR Inten    --      1.7659                 3.3837                 0.0538

                     19                     20                     21
                      A                      A                      A
 Frequencies --    298.4631               326.0087               357.1400
 Red. masses --      2.3701                 3.8549                 3.1227
 Frc consts  --      0.1244                 0.2414                 0.2347
 IR Inten    --      0.6926                 5.5857                 2.2924

                     22                     23                     24
                      A                      A                      A
 Frequencies --    363.6955               373.3766               410.9140
 Red. masses --      3.4789                 2.9433                 2.0316
 Frc consts  --      0.2711                 0.2418                 0.2021
 IR Inten    --      5.9704                 4.6374                 3.7805

                     25                     26                     27
                      A                      A                      A
 Frequencies --    429.9471               446.0087               482.6179
 Red. masses --      2.9378                 3.1312                 1.3011
 Frc consts  --      0.3200                 0.3670                 0.1786
 IR Inten    --     25.0521                 1.9060               260.7298

                     28                     29                     30
                      A                      A                      A
 Frequencies --    518.9485               551.3179               575.3287
 Red. masses --      2.2237                 1.6813                 2.6803
 Frc consts  --      0.3528                 0.3011                 0.5227
 IR Inten    --     10.7168                 6.3800                20.1576

                     31                     32                     33
                      A                      A                      A
 Frequencies --    598.5524               603.5773               682.5391
 Red. masses --      3.4718                 3.7027                 3.5272
 Frc consts  --      0.7328                 0.7948                 0.9681
 IR Inten    --     12.7672                 6.1105                 1.2661

                     34                     35                     36
                      A                      A                      A
 Frequencies --    712.8018               739.9703               756.5945
 Red. masses --      5.4991                 3.9658                 1.2882
 Frc consts  --      1.6462                 1.2794                 0.4345
 IR Inten    --     47.1444                 1.9329                18.3592

                     37                     38                     39
                      A                      A                      A
 Frequencies --    764.0338               796.5721               829.0480
 Red. masses --      3.9684                 2.9661                 1.1008
 Frc consts  --      1.3649                 1.1089                 0.4458
 IR Inten    --     58.1309                11.2133                 1.8342

                     40                     41                     42
                      A                      A                      A
 Frequencies --    835.0416               865.3523               906.3980
 Red. masses --      1.1871                 2.6739                 2.3394
 Frc consts  --      0.4877                 1.1797                 1.1324
 IR Inten    --      3.3761                 4.9741                 3.0278

                     43                     44                     45
                      A                      A                      A
 Frequencies --    933.6907               950.6911               958.1834
 Red. masses --      2.2837                 1.2229                 2.4178
 Frc consts  --      1.1730                 0.6512                 1.3079
 IR Inten    --      5.3801                 0.2668                17.9953

                     46                     47                     48
                      A                      A                      A
 Frequencies --    984.8615               985.3736              1033.4414
 Red. masses --      1.5242                 2.5803                 2.4779
 Frc consts  --      0.8711                 1.4761                 1.5592
 IR Inten    --      0.8405                 8.3803                76.5058

                     49                     50                     51
                      A                      A                      A
 Frequencies --   1066.8364              1091.3592              1120.8744
 Red. masses --      2.8971                 2.5214                 1.8977
 Frc consts  --      1.9427                 1.7694                 1.4047
 IR Inten    --    132.2465               237.0466                16.1071

                     52                     53                     54
                      A                      A                      A
 Frequencies --   1126.3604              1132.0971              1140.2861
 Red. masses --      2.6179                 2.2004                 2.4625
 Frc consts  --      1.9569                 1.6616                 1.8865
 IR Inten    --     96.3650                23.7586                 3.5164

                     55                     56                     57
                      A                      A                      A
 Frequencies --   1159.0596              1176.4398              1181.9154
 Red. masses --      2.4927                 1.8819                 2.7021
 Frc consts  --      1.9730                 1.5346                 2.2239
 IR Inten    --     34.8675                93.3009               105.1634

                     58                     59                     60
                      A                      A                      A
 Frequencies --   1200.4923              1202.8680              1215.1276
 Red. masses --      1.5617                 2.2555                 1.7487
 Frc consts  --      1.3261                 1.9228                 1.5213
 IR Inten    --     11.5870                20.4191                25.4405

                     61                     62                     63
                      A                      A                      A
 Frequencies --   1227.1863              1273.4790              1310.7544
 Red. masses --      2.7478                 2.7469                 1.1117
 Frc consts  --      2.4381                 2.6246                 1.1254
 IR Inten    --     20.7317                42.0652                 0.1745

                     64                     65                     66
                      A                      A                      A
 Frequencies --   1352.8320              1360.6939              1364.9686
 Red. masses --      1.3466                 1.2315                 1.3248
 Frc consts  --      1.4520                 1.3434                 1.4543
 IR Inten    --     22.9671                25.3924                26.6240

                     67                     68                     69
                      A                      A                      A
 Frequencies --   1374.4984              1385.1842              1401.7183
 Red. masses --      1.3126                 1.3651                 1.3835
 Frc consts  --      1.4611                 1.5432                 1.6016
 IR Inten    --      9.7351                29.0340               110.3861

                     70                     71                     72
                      A                      A                      A
 Frequencies --   1420.7717              1426.4798              1428.2440
 Red. masses --      2.1159                 1.2323                 1.2362
 Frc consts  --      2.5165                 1.4774                 1.4858
 IR Inten    --    176.9222                 8.7370                 8.6343

                     73                     74                     75
                      A                      A                      A
 Frequencies --   1434.9331              1445.9613              1452.2289
 Red. masses --      1.2307                 1.2201                 1.2932
 Frc consts  --      1.4930                 1.5030                 1.6069
 IR Inten    --      2.2692                17.9777                21.2760

                     76                     77                     78
                      A                      A                      A
 Frequencies --   1456.3255              1460.7000              1507.7883
 Red. masses --      1.2370                 1.3316                 1.0797
 Frc consts  --      1.5457                 1.6740                 1.4462
 IR Inten    --      8.7788                 9.0685                11.1741

                     79                     80                     81
                      A                      A                      A
 Frequencies --   1512.9741              1514.9272              1517.9987
 Red. masses --      1.0481                 1.0440                 1.0457
 Frc consts  --      1.4136                 1.4117                 1.4197
 IR Inten    --      3.7218                 1.1313                 4.0008

                     82                     83                     84
                      A                      A                      A
 Frequencies --   1526.8144              1528.4138              1534.8587
 Red. masses --      1.0503                 1.0473                 1.0508
 Frc consts  --      1.4425                 1.4415                 1.4584
 IR Inten    --      3.7409                 0.0050                 9.4866

                     85                     86                     87
                      A                      A                      A
 Frequencies --   1535.7739              1539.1347              1555.4716
 Red. masses --      1.0556                 1.0519                 1.0874
 Frc consts  --      1.4670                 1.4681                 1.5501
 IR Inten    --      6.8493                20.0505                 4.2120

                     88                     89                     90
                      A                      A                      A
 Frequencies --   1556.3323              1610.2931              1717.9651
 Red. masses --      1.0927                 1.4008                 4.4925
 Frc consts  --      1.5593                 2.1402                 7.8121
 IR Inten    --     12.5662               252.6219               192.9086

                     91                     92                     93
                      A                      A                      A
 Frequencies --   1770.2533              3000.6829              3007.5967
 Red. masses --      9.1577                 1.0737                 1.0795
 Frc consts  --     16.9087                 5.6960                 5.7534
 IR Inten    --    226.1705                 8.9925               102.7132

                     94                     95                     96
                      A                      A                      A
 Frequencies --   3056.4314              3057.7845              3062.7097
 Red. masses --      1.0398                 1.0360                 1.0357
 Frc consts  --      5.7229                 5.7074                 5.7242
 IR Inten    --     18.4854                15.7181                15.0045

                     97                     98                     99
                      A                      A                      A
 Frequencies --   3064.3289              3072.7487              3074.2705
 Red. masses --      1.0409                 1.0849                 1.0595
 Frc consts  --      5.7586                 6.0351                 5.9000
 IR Inten    --     28.7402                 2.2741                41.4709

                    100                    101                    102
                      A                      A                      A
 Frequencies --   3084.0259              3111.0392              3122.3740
 Red. masses --      1.0939                 1.1047                 1.1031
 Frc consts  --      6.1302                 6.2993                 6.3365
 IR Inten    --     18.2523                21.8188                21.4148

                    103                    104                    105
                      A                      A                      A
 Frequencies --   3123.2096              3128.2570              3131.1224
 Red. masses --      1.1011                 1.0927                 1.0975
 Frc consts  --      6.3284                 6.3000                 6.3392
 IR Inten    --     16.6077                52.9796                14.8011

                    106                    107                    108
                      A                      A                      A
 Frequencies --   3132.7713              3140.9718              3141.9716
 Red. masses --      1.1020                 1.0711                 1.1018
 Frc consts  --      6.3723                 6.2260                 6.4083
 IR Inten    --     34.5378                37.8844                27.4204

                    109                    110                    111
                      A                      A                      A
 Frequencies --   3163.4949              3167.9419              3181.9674
 Red. masses --      1.1004                 1.0993                 1.1022
 Frc consts  --      6.4881                 6.5004                 6.5753
 IR Inten    --     22.2739                16.2149                 6.0932

                    112                    113                    114
                      A                      A                      A
 Frequencies --   3544.2810              3572.7487              3703.9213
 Red. masses --      1.0748                 1.0462                 1.1032
 Frc consts  --      7.9547                 7.8680                 8.9171
 IR Inten    --      3.2832                40.0708                78.4134

 - Thermochemistry -
 -------------------
 Temperature   298.150 Kelvin.  Pressure   1.00000 Atm.
 Atom     1 has atomic number  6 and mass  12.00000

 Molecular mass:   245.17394 amu.
 Principal axes and moments of inertia in atomic units:
                           1         2         3
     Eigenvalues --  3529.035113825.212885398.74252
           X            0.99359  -0.10485   0.04219
           Y            0.10524   0.99442  -0.00724
           Z           -0.04120   0.01164   0.99908
 This molecule is an asymmetric top.
 Rotational symmetry number  1.
 Warning -- assumption of classical behavior for rotation
           may cause significant error
 Rotational temperatures (Kelvin)      0.02454     0.02264     0.01604
 Rotational constants (GHZ):           0.51140     0.47180     0.33429
 Zero-point vibrational energy     927164.4 (Joules/Mol)
                                  221.59761 (Kcal/Mol)
 Warning -- explicit consideration of  32 degrees of freedom as
           vibrations may cause significant error
 Vibrational temperatures:     28.76    77.81    85.25   104.63   116.21
          (Kelvin)            122.78   135.58   141.04   185.32   251.06
                              259.77   287.82   302.61   331.34   366.15
                              379.30   400.06   414.21   429.42   469.05
                              513.84   523.28   537.21   591.21   618.60
                              641.71   694.38   746.65   793.22   827.77
                              861.18   868.41   982.02  1025.56  1064.65
                             1088.57  1099.27  1146.09  1192.82  1201.44
                             1245.05  1304.10  1343.37  1367.83  1378.61
                             1417.00  1417.73  1486.89  1534.94  1570.22
                             1612.69  1620.58  1628.84  1640.62  1667.63
                             1692.63  1700.51  1727.24  1730.66  1748.30
                             1765.65  1832.25  1885.88  1946.42  1957.74
                             1963.89  1977.60  1992.97  2016.76  2044.17
                             2052.39  2054.92  2064.55  2080.42  2089.43
                             2095.33  2101.62  2169.37  2176.83  2179.64
                             2184.06  2196.75  2199.05  2208.32  2209.64
                             2214.47  2237.98  2239.22  2316.85  2471.77
                             2547.00  4317.31  4327.26  4397.52  4399.47
                             4406.56  4408.89  4421.00  4423.19  4437.23
                             4476.09  4492.40  4493.60  4500.86  4504.99
                             4507.36  4519.16  4520.60  4551.56  4557.96
                             4578.14  5099.43  5140.39  5329.12

 Zero-point correction=                           0.353138 (Hartree/Particle)
 Thermal correction to Energy=                    0.372996
 Thermal correction to Enthalpy=                  0.373940
 Thermal correction to Gibbs Free Energy=         0.304812
 Sum of electronic and zero-point Energies=           -822.648399
 Sum of electronic and thermal Energies=              -822.628542
 Sum of electronic and thermal Enthalpies=            -822.627597
 Sum of electronic and thermal Free Energies=         -822.696725

                     E (Thermal)             CV                S
                      KCal/Mol        Cal/Mol-Kelvin    Cal/Mol-Kelvin
 Total                  234.058             73.527            145.491
 Electronic               0.000              0.000              0.000
 Translational            0.889              2.981             42.391
 Rotational               0.889              2.981             32.655
 Vibrational            232.281             67.566             70.445
 Vibration     1          0.593              1.986              6.635
 Vibration     2          0.596              1.976              4.662
 Vibration     3          0.597              1.974              4.482
 Vibration     4          0.599              1.967              4.078
 Vibration     5          0.600              1.962              3.872
 Vibration     6          0.601              1.959              3.764
 Vibration     7          0.603              1.953              3.570
 Vibration     8          0.603              1.951              3.493
 Vibration     9          0.611              1.924              2.964
 Vibration    10          0.627              1.874              2.387
 Vibration    11          0.629              1.866              2.323
 Vibration    12          0.638              1.840              2.133
 Vibration    13          0.642              1.825              2.041
 Vibration    14          0.652              1.795              1.877
 Vibration    15          0.665              1.755              1.699
 Vibration    16          0.670              1.740              1.638
 Vibration    17          0.679              1.714              1.546
 Vibration    18          0.685              1.696              1.486
 Vibration    19          0.692              1.677              1.426
 Vibration    20          0.710              1.623              1.280
 Vibration    21          0.732              1.561              1.135
 Vibration    22          0.737              1.547              1.106
 Vibration    23          0.745              1.527              1.066
 Vibration    24          0.775              1.447              0.923
 Vibration    25          0.791              1.405              0.859
 Vibration    26          0.805              1.370              0.808
 Vibration    27          0.839              1.289              0.703
 Vibration    28          0.874              1.208              0.612
 Vibration    29          0.907              1.137              0.541
 Vibration    30          0.932              1.085              0.494
 Vibration    31          0.957              1.035              0.452
 Vibration    32          0.962              1.024              0.444

 Optimization completed.
    -- Stationary point found.
 Normal termination of Gaussian 16 at Fri Dec 11 13:49:56 2020.

 ----------------------------------------------------------------------
 # B3LYP/6-311++G(d,p) empiricaldispersion=gd3bj scf=xqc pop=npa geom=c
 heck
 ----------------------------------------------------------------------

 ---------------------------------------
 CID_138105687_JID_7945_Energie_neutraal
 ---------------------------------------
 Structure from the checkpoint file:  "JID_7945.chk"
 Charge =  0 Multiplicity = 1

 SCF Done:  E(RB3LYP) =  -823.249819177     A.U. after   15 cycles
 Normal termination of Gaussian 16 at Fri Dec 11 13:59:33 2020.

 ----------------------------------------------------------------------
 # B3LYP/6-311++G(d,p) empiricaldispersion=gd3bj scf=xqc pop=npa geom=c
 heck
 ----------------------------------------------------------------------

 -------------------------------------
 CID_138105687_JID_7945_Energie_kation
 -------------------------------------
 Structure from the checkpoint file:  "JID_7945.chk"
 Charge =  1 Multiplicity = 2

 SCF Done:  E(UB3LYP) =  -822.942436041     A.U. after   31 cycles
 Normal termination of Gaussian 16 at Fri Dec 11 14:25:43 2020.
 Gaussian 16:  ES64L-G16RevA.03 25-Dec-2016

 ----------------------------------------------------------------------
 # B3LYP/6-311++G(d,p) empiricaldispersion=gd3bj scf=xqc pop=npa geom=c
 heck
 ----------------------------------------------------------------------

 ------------------------------------
 CID_138105687_JID_7945_Energie_anion
 ------------------------------------
 Structure from the checkpoint file:  "JID_7945.chk"
 Charge = -1 Multiplicity = 2

                         Standard orientation:
 ---------------------------------------------------------------------
 Center     Atomic      Atomic             Coordinates (Angstroms)
 Number     Number       Type             X           Y           Z
 ---------------------------------------------------------------------
      1          6           0        2.385056   -1.364490    0.989967
      2          6           0        2.266456   -1.702233   -0.493302
      3          8           0        2.191944   -0.571070   -1.378257
      4          6           0        1.094767    0.296029   -1.309634
      5          6           0       -0.311666   -0.343273   -1.433073
      6          7           0       -0.928311   -0.729299   -0.167691
      7          6           0       -1.370816    0.304132    0.693680
      8          8           0       -1.235127    0.236240    1.906088
      9          6           0       -2.222132    1.449567    0.110767
     10          6           0       -1.476408    2.645214   -0.504822
     11          6           0       -3.339306    0.918320   -0.803200
     12          6           0       -0.981524   -2.111140    0.205679
     13          7           0       -0.848280   -3.111302   -0.593450
     14          7           0       -1.269763   -2.351940    1.520614
     15          8           0        1.076187    1.082597   -0.146089
     16          6           0        2.153322    2.013487   -0.038691
     17          6           0        2.155251    2.565662    1.374647
     18          1           0        2.566402   -2.289775    1.549657
     19          1           0        1.478235   -0.898302    1.378703
     20          1           0        3.226548   -0.686413    1.169301
     21          1           0        3.168907   -2.222081   -0.828886
     22          1           0        1.417560   -2.372092   -0.663901
     23          1           0        1.236816    0.938754   -2.192317
     24          1           0       -0.951831    0.378864   -1.938468
     25          1           0       -0.235960   -1.204686   -2.093834
     26          1           0       -2.698015    1.831275    1.020092
     27          1           0       -0.996484    2.408620   -1.457908
     28          1           0       -2.197870    3.449717   -0.688077
     29          1           0       -0.707989    3.019697    0.173897
     30          1           0       -3.877744    0.090782   -0.330343
     31          1           0       -4.058656    1.719781   -1.004236
     32          1           0       -2.965097    0.563785   -1.768616
     33          1           0       -0.796580   -2.840666   -1.571376
     34          1           0       -1.021814   -1.651633    2.205500
     35          1           0       -1.220795   -3.329980    1.765441
     36          1           0        3.096922    1.504763   -0.265099
     37          1           0        2.013418    2.815912   -0.780431
     38          1           0        2.311275    1.759878    2.097966
     39          1           0        2.954999    3.304692    1.492945
     40          1           0        1.200197    3.047112    1.607626
 ---------------------------------------------------------------------

 SCF Done:  E(UB3LYP) =  -823.237727195     A.U. after   33 cycles
 SCF Done:  E(UB3LYP) =  -823.237727195     a.u. after    1 cycles

 The electronic state is 2-A.
 Alpha  occ. eigenvalues --  -19.03838 -19.03826 -19.02065 -14.26777 -14.23019
 Alpha  occ. eigenvalues --  -14.18128 -10.19898 -10.19214 -10.18265 -10.12704
 Alpha  occ. eigenvalues --  -10.12380 -10.12340 -10.09484 -10.07027 -10.06942
 Alpha  occ. eigenvalues --  -10.06884 -10.06577  -0.98516  -0.97021  -0.92223
 Alpha  occ. eigenvalues --   -0.89285  -0.82190  -0.76119  -0.70746  -0.69233
 Alpha  occ. eigenvalues --   -0.66187  -0.64150  -0.59567  -0.57025  -0.56640
 Alpha  occ. eigenvalues --   -0.53454  -0.51421  -0.49829  -0.48147  -0.45304
 Alpha  occ. eigenvalues --   -0.43002  -0.42302  -0.40139  -0.39635  -0.38679
 Alpha  occ. eigenvalues --   -0.37251  -0.36911  -0.35898  -0.35475  -0.34500
 Alpha  occ. eigenvalues --   -0.34006  -0.32767  -0.32682  -0.31022  -0.30093
 Alpha  occ. eigenvalues --   -0.29550  -0.29245  -0.28801  -0.28713  -0.27877
 Alpha  occ. eigenvalues --   -0.27683  -0.26944  -0.25511  -0.24901  -0.24314
 Alpha  occ. eigenvalues --   -0.21694  -0.19756  -0.19151  -0.18259  -0.17671
 Alpha  occ. eigenvalues --   -0.17002  -0.14783   0.04251
 Alpha virt. eigenvalues --    0.06324   0.06478   0.06783   0.07188   0.08152
 Alpha virt. eigenvalues --    0.08471   0.09263   0.09356   0.09906   0.10636
 Alpha virt. eigenvalues --    0.10753   0.11198   0.11936   0.12132   0.12612

  Beta  occ. eigenvalues --  -19.03833 -19.03826 -19.02048 -14.26781 -14.23016
  Beta  occ. eigenvalues --  -14.18121 -10.19875 -10.19211 -10.18249 -10.12680
  Beta  occ. eigenvalues --  -10.12372 -10.12317 -10.09479 -10.06985 -10.06918
  Beta  occ. eigenvalues --  -10.06873 -10.06539  -0.98502  -0.96990  -0.92216
  Beta  occ. eigenvalues --   -0.89276  -0.82180  -0.76110  -0.70711  -0.69204
  Beta  occ. eigenvalues --   -0.66165  -0.64110  -0.59489  -0.56995  -0.56589
  Beta  occ. eigenvalues --   -0.53400  -0.51375  -0.49786  -0.48126  -0.45263
  Beta  occ. eigenvalues --   -0.42977  -0.42267  -0.40111  -0.39608  -0.38650
  Beta  occ. eigenvalues --   -0.37231  -0.36877  -0.35853  -0.35430  -0.34474
  Beta  occ. eigenvalues --   -0.33987  -0.32731  -0.32632  -0.30989  -0.30063
  Beta  occ. eigenvalues --   -0.29513  -0.29217  -0.28775  -0.28670  -0.27809
  Beta  occ. eigenvalues --   -0.27654  -0.26906  -0.25481  -0.24865  -0.24259
  Beta  occ. eigenvalues --   -0.21668  -0.19737  -0.19136  -0.18239  -0.17652
  Beta  occ. eigenvalues --   -0.16991  -0.14772
  Beta virt. eigenvalues --    0.06332   0.06651   0.07195   0.07335   0.07678
  Beta virt. eigenvalues --    0.08555   0.09061   0.09561   0.09655   0.10198
  Beta virt. eigenvalues --    0.10937   0.11164   0.11440   0.12233   0.12500

 Mulliken charges and spin densities:
               1          2
     1  C   -0.074581  -0.429191
     2  C   -0.143459  -0.012224
     3  O   -0.030771  -0.004800
     4  C   -0.403174  -0.196697
     5  C    0.504329  -0.753354
     6  N   -0.010657   0.180233
     7  C    1.245240  -1.611377
     8  O   -0.243564   0.035563
     9  C   -2.475467   2.580699
    10  C    0.976384  -1.471282
    11  C    0.987225  -1.518801
    12  C   -0.001398  -0.060942
    13  N   -0.292420   0.002335
    14  N   -0.268225   0.016205
    15  O    0.052606  -0.000556
    16  C    0.272307  -0.299827
    17  C    0.127387  -0.640502
    18  H    0.131396  -0.007847
    19  H    0.233312  -0.020615
    20  H   -0.057463   0.207241
    21  H   -0.069257   0.261847
    22  H    0.117557  -0.016388
    23  H   -0.794078   1.013943
    24  H    0.396485  -0.279975
    25  H   -0.005035   0.203440
    26  H    0.084300   0.140037
    27  H   -0.175140   0.340412
    28  H   -0.511772   0.686888
    29  H    0.021372   0.100521
    30  H    0.026597   0.121481
    31  H   -0.422676   0.587912
    32  H   -0.499725   0.662248
    33  H    0.122716   0.077697
    34  H    0.281699  -0.020672
    35  H    0.235498   0.047355
    36  H    0.031389   0.124940
    37  H   -0.102802   0.258840
    38  H    0.072398   0.061874
    39  H   -0.363273   0.510204
    40  H    0.024740   0.123134
 Sum of Mulliken charges =  -1.00000   1.00000

 Dipole moment (field-independent basis, Debye):
    X=              1.8335    Y=             -5.1604    Z=              4.4200  Tot=              7.0376
 Quadrupole moment (field-independent basis, Debye-Ang):
   XX=           -169.7960   YY=           -168.2269   ZZ=           -148.5293
   XY=              0.8154   XZ=             -6.4872   YZ=              2.4300

 Summary of Natural Population Analysis:

                                       Natural Population
                Natural  -----------------------------------------------
    Atom  No    Charge         Core      Valence    Rydberg      Total
 -----------------------------------------------------------------------
      C    1   -0.30375      0.99965     2.29855    0.00555     3.30375
      C    2   -0.01958      0.99956     2.00844    0.01157     3.01958
      O    3   -0.30363      0.99988     3.29525    0.00851     4.30363
      C    4    0.21962      0.99957     1.75979    0.02102     2.78038
      C    5   -0.10442      0.99955     2.09176    0.01310     3.10442
      N    6   -0.28588      0.99960     2.77379    0.01250     3.78588
      C    7    0.38577      0.99962     1.58905    0.02556     2.61423
      O    8   -0.30871      0.99986     3.30326    0.00559     4.30871
      C    9   -0.15353      0.99955     2.14355    0.01043     3.15353
      C   10   -0.27569      0.99963     2.26938    0.00668     3.27569
      C   11   -0.28242      0.99964     2.27704    0.00574     3.28242
      C   12    0.31141      0.99965     1.67017    0.01877     2.68859
      N   13   -0.39423      0.99971     2.88688    0.00764     3.89423
      N   14   -0.40577      0.99969     2.89879    0.00729     3.90577
      O   15   -0.31473      0.99987     3.30105    0.01382     4.31473
      C   16   -0.01025      0.99958     1.99934    0.01133     3.01025
      C   17   -0.29167      0.99965     2.28648    0.00554     3.29167
      H   18    0.09722      0.00000     0.40193    0.00085     0.40278
      H   19    0.10769      0.00000     0.39068    0.00162     0.39231
      H   20    0.09862      0.00000     0.40042    0.00096     0.40138
      H   21    0.08679      0.00000     0.41214    0.00107     0.41321
      H   22    0.09012      0.00000     0.40792    0.00196     0.40988
      H   23    0.08326      0.00000     0.41423    0.00251     0.41674
      H   24    0.11132      0.00000     0.38653    0.00215     0.38868
      H   25    0.10493      0.00000     0.39351    0.00156     0.39507
      H   26    0.10871      0.00000     0.38943    0.00186     0.39129
      H   27    0.09795      0.00000     0.40000    0.00205     0.40205
      H   28    0.10077      0.00000     0.39791    0.00133     0.39923
      H   29    0.10433      0.00000     0.39397    0.00171     0.39567
      H   30    0.10083      0.00000     0.39801    0.00116     0.39917
      H   31    0.10528      0.00000     0.39330    0.00141     0.39472
      H   32    0.09924      0.00000     0.39936    0.00141     0.40076
      H   33    0.16630      0.00000     0.33144    0.00225     0.33370
      H   34    0.20780      0.00000     0.29024    0.00196     0.29220
      H   35    0.19334      0.00000     0.30524    0.00142     0.30666
      H   36    0.08832      0.00000     0.41011    0.00157     0.41168
      H   37    0.08281      0.00000     0.41548    0.00171     0.41719
      H   38    0.10025      0.00000     0.39866    0.00109     0.39975
      H   39    0.10047      0.00000     0.39859    0.00094     0.39953
      H   40    0.10111      0.00000     0.39777    0.00112     0.39889
 =======================================================================
   * Total *   -0.00000     16.99427    49.77944    0.22630    67.00000

 Normal termination of Gaussian 16 at Fri Dec 11 14:54:15 2020.
