 Gaussian 16, Revision A.03,

 -----------------------------------------------------------
 # opt freq B3LYP/6-31G(d) empiricaldispersion=gd3bj scf=xqc
 -----------------------------------------------------------

 -------------------------------
 CID_108864873_JID_8831_neutraal
 -------------------------------
 Symbolic Z-matrix:
 Charge =  0 Multiplicity = 1

 SCF Done:  E(RB3LYP) =  -799.268569128     A.U. after   15 cycles
 SCF Done:  E(RB3LYP) =  -799.294178050     A.U. after   13 cycles
 SCF Done:  E(RB3LYP) =  -799.295710713     A.U. after   13 cycles
 SCF Done:  E(RB3LYP) =  -799.296315890     A.U. after   13 cycles
 SCF Done:  E(RB3LYP) =  -799.296397588     A.U. after   12 cycles
 SCF Done:  E(RB3LYP) =  -799.296655565     A.U. after   12 cycles
 SCF Done:  E(RB3LYP) =  -799.296722728     A.U. after   11 cycles
 SCF Done:  E(RB3LYP) =  -799.296767407     A.U. after   12 cycles
 SCF Done:  E(RB3LYP) =  -799.296792551     A.U. after   12 cycles
 SCF Done:  E(RB3LYP) =  -799.296830446     A.U. after   11 cycles
 SCF Done:  E(RB3LYP) =  -799.296886600     A.U. after   10 cycles
 SCF Done:  E(RB3LYP) =  -799.296888767     A.U. after    9 cycles
 SCF Done:  E(RB3LYP) =  -799.296889668     A.U. after    9 cycles
 SCF Done:  E(RB3LYP) =  -799.296889878     A.U. after    8 cycles
 SCF Done:  E(RB3LYP) =  -799.296889979     A.U. after    8 cycles
 Optimization completed.
    -- Stationary point found.
 Normal termination of Gaussian 16 at Fri Dec 11 22:20:02 2020.

 --------------------------------------------------------------------
 #N Geom=AllCheck Guess=TCheck SCRF=Check GenChk RB3LYP/6-31G(d) Freq
 --------------------------------------------------------------------

 Structure from the checkpoint file:  "JID_8831.chk"
 -------------------------------
 CID_108864873_JID_8831_neutraal
 -------------------------------
 Charge =  0 Multiplicity = 1

 SCF Done:  E(RB3LYP) =  -799.296889979     A.U. after    1 cycles

  Exact polarizability: 211.642   1.012 146.619 -11.594   7.530 107.923
 Approx polarizability: 276.735   3.543 260.246 -19.598  13.425 171.832

                      1                      2                      3
                      A                      A                      A
 Frequencies --     25.6803                33.3944                47.6178
 Red. masses --      6.8026                 5.2073                 6.7403
 Frc consts  --      0.0026                 0.0034                 0.0090
 IR Inten    --      0.2040                 2.4892                 4.3147

                      4                      5                      6
                      A                      A                      A
 Frequencies --     56.3366                81.4823               100.9611
 Red. masses --      4.5846                 4.4824                 5.4145
 Frc consts  --      0.0086                 0.0175                 0.0325
 IR Inten    --      2.4587                 6.5990                 1.0546

                      7                      8                      9
                      A                      A                      A
 Frequencies --    111.2191               185.6110               227.5502
 Red. masses --      4.8516                 4.1089                 4.5039
 Frc consts  --      0.0354                 0.0834                 0.1374
 IR Inten    --      1.2042                 0.2754                 5.7559

                     10                     11                     12
                      A                      A                      A
 Frequencies --    262.1431               277.1483               309.4187
 Red. masses --      4.5954                 5.0807                 3.7794
 Frc consts  --      0.1861                 0.2299                 0.2132
 IR Inten    --      1.6188                 3.8078                 6.4331

                     13                     14                     15
                      A                      A                      A
 Frequencies --    320.8981               353.0423               373.1364
 Red. masses --      2.9390                 2.9531                 3.0643
 Frc consts  --      0.1783                 0.2169                 0.2514
 IR Inten    --     11.7878                 2.0360                 7.6500

                     16                     17                     18
                      A                      A                      A
 Frequencies --    416.8341               433.2127               454.1799
 Red. masses --      2.9854                 2.3921                 2.8855
 Frc consts  --      0.3056                 0.2645                 0.3507
 IR Inten    --      2.8759                 0.2422                 7.8662

                     19                     20                     21
                      A                      A                      A
 Frequencies --    472.1823               520.5058               527.4027
 Red. masses --      3.0465                 4.1781                 2.8979
 Frc consts  --      0.4002                 0.6669                 0.4749
 IR Inten    --      9.4000                12.0107                 8.3633

                     22                     23                     24
                      A                      A                      A
 Frequencies --    542.8944               568.9939               594.6755
 Red. masses --      2.8297                 4.2277                 5.7775
 Frc consts  --      0.4914                 0.8064                 1.2038
 IR Inten    --      7.8338                 0.9137                22.3340

                     25                     26                     27
                      A                      A                      A
 Frequencies --    620.0535               636.1197               707.7088
 Red. masses --      2.4838                 5.7573                 2.0025
 Frc consts  --      0.5626                 1.3726                 0.5909
 IR Inten    --     18.4849                 0.7810                17.7272

                     28                     29                     30
                      A                      A                      A
 Frequencies --    725.8537               740.1954               766.2241
 Red. masses --      2.7788                 4.8240                 1.8130
 Frc consts  --      0.8626                 1.5572                 0.6271
 IR Inten    --      2.3605                 3.9329                40.8718

                     31                     32                     33
                      A                      A                      A
 Frequencies --    769.5551               805.0225               828.1811
 Red. masses --      2.6148                 2.9387                 1.2509
 Frc consts  --      0.9123                 1.1221                 0.5055
 IR Inten    --     35.4096                81.7174                 0.1731

                     34                     35                     36
                      A                      A                      A
 Frequencies --    863.8573               885.7290               904.4397
 Red. masses --      1.5941                 1.4687                 3.1751
 Frc consts  --      0.7009                 0.6789                 1.5303
 IR Inten    --      0.5635                 5.5615                15.7356

                     37                     38                     39
                      A                      A                      A
 Frequencies --    917.1547               932.2054               953.1754
 Red. masses --      4.2912                 2.2645                 1.3223
 Frc consts  --      2.1267                 1.1594                 0.7078
 IR Inten    --     19.7665                 2.1303                 0.1784

                     40                     41                     42
                      A                      A                      A
 Frequencies --    972.5265               980.0704              1009.7900
 Red. masses --      2.2343                 1.2481                 2.6054
 Frc consts  --      1.2451                 0.7063                 1.5653
 IR Inten    --      1.8062                 0.4322                41.8717

                     43                     44                     45
                      A                      A                      A
 Frequencies --   1012.3251              1038.3289              1067.0377
 Red. masses --      4.6639                 2.4215                 2.2566
 Frc consts  --      2.8161                 1.5382                 1.5138
 IR Inten    --     28.2679                82.1813                 3.3335

                     46                     47                     48
                      A                      A                      A
 Frequencies --   1081.5483              1091.6379              1121.7365
 Red. masses --      1.8197                 2.1905                 1.8266
 Frc consts  --      1.2541                 1.5380                 1.3541
 IR Inten    --      6.2851                 4.9872                 3.3240

                     49                     50                     51
                      A                      A                      A
 Frequencies --   1133.5944              1161.8272              1177.6107
 Red. masses --      2.8838                 2.7805                 3.1040
 Frc consts  --      2.1834                 2.2113                 2.5362
 IR Inten    --     21.6911                28.6010                34.9579

                     52                     53                     54
                      A                      A                      A
 Frequencies --   1195.7274              1223.2614              1230.9074
 Red. masses --      1.0871                 1.5965                 1.3072
 Frc consts  --      0.9158                 1.4075                 1.1669
 IR Inten    --      1.3405                 6.3481                 5.7936

                     55                     56                     57
                      A                      A                      A
 Frequencies --   1247.4577              1255.8382              1271.8198
 Red. masses --      1.5525                 1.6230                 1.5489
 Frc consts  --      1.4235                 1.5081                 1.4762
 IR Inten    --    150.9983                81.8154                38.3405

                     58                     59                     60
                      A                      A                      A
 Frequencies --   1311.3680              1319.8357              1349.5190
 Red. masses --      1.6064                 1.3099                 2.8889
 Frc consts  --      1.6276                 1.3444                 3.0999
 IR Inten    --     33.8515                37.7198                 0.3511

                     61                     62                     63
                      A                      A                      A
 Frequencies --   1365.3829              1381.5120              1395.1553
 Red. masses --      1.4897                 1.4468                 1.2912
 Frc consts  --      1.6363                 1.6270                 1.4808
 IR Inten    --      5.1667                 4.1513                 6.2412

                     64                     65                     66
                      A                      A                      A
 Frequencies --   1403.6184              1409.6051              1419.9018
 Red. masses --      1.2640                 1.4994                 1.6111
 Frc consts  --      1.4672                 1.7554                 1.9138
 IR Inten    --     13.8563                 5.8322                34.2018

                     67                     68                     69
                      A                      A                      A
 Frequencies --   1433.3549              1466.4760              1486.9810
 Red. masses --      1.4854                 1.6515                 1.5406
 Frc consts  --      1.7980                 2.0926                 2.0070
 IR Inten    --     56.2282               209.4282                41.2606

                     70                     71                     72
                      A                      A                      A
 Frequencies --   1503.5790              1506.6984              1514.0033
 Red. masses --      2.0395                 1.2978                 1.1701
 Frc consts  --      2.7166                 1.7358                 1.5803
 IR Inten    --      0.4184               119.6155                 3.9108

                     73                     74                     75
                      A                      A                      A
 Frequencies --   1520.4104              1527.8485              1543.0860
 Red. masses --      1.0997                 1.1081                 1.0947
 Frc consts  --      1.4977                 1.5241                 1.5357
 IR Inten    --     18.3155                 9.8656                 9.0841

                     76                     77                     78
                      A                      A                      A
 Frequencies --   1554.0107              1636.0362              1667.4875
 Red. masses --      2.2556                 5.4249                 5.5517
 Frc consts  --      3.2094                 8.5552                 9.0950
 IR Inten    --    118.7927                10.3969               115.2876

                     79                     80                     81
                      A                      A                      A
 Frequencies --   1797.5212              2366.6464              3027.8659
 Red. masses --      7.6912                12.5827                 1.0724
 Frc consts  --     14.6417                41.5232                 5.7928
 IR Inten    --    413.4917                 0.5368                19.6950

                     82                     83                     84
                      A                      A                      A
 Frequencies --   3030.9700              3056.1414              3075.7681
 Red. masses --      1.0732                 1.0691                 1.0699
 Frc consts  --      5.8092                 5.8830                 5.9633
 IR Inten    --     31.5789                43.8821                36.3491

                     85                     86                     87
                      A                      A                      A
 Frequencies --   3078.1406              3118.3589              3134.4036
 Red. masses --      1.0620                 1.1017                 1.0968
 Frc consts  --      5.9289                 6.3122                 6.3486
 IR Inten    --     14.7100                 6.3710                20.9946

                     88                     89                     90
                      A                      A                      A
 Frequencies --   3158.6314              3162.2260              3165.2129
 Red. masses --      1.0901                 1.0931                 1.0953
 Frc consts  --      6.4076                 6.4399                 6.4655
 IR Inten    --     27.1092                 3.5576                16.8751

                     91                     92                     93
                      A                      A                      A
 Frequencies --   3182.4982              3188.9899              3209.1383
 Red. masses --      1.0852                 1.0892                 1.0920
 Frc consts  --      6.4760                 6.5263                 6.6262
 IR Inten    --      6.6604                12.9419                36.2051

                     94                     95                     96
                      A                      A                      A
 Frequencies --   3216.2287              3225.3085              3572.6498
 Red. masses --      1.0940                 1.0916                 1.0754
 Frc consts  --      6.6677                 6.6904                 8.0874
 IR Inten    --     21.2686                11.5917                29.9310

 - Thermochemistry -
 -------------------
 Temperature   298.150 Kelvin.  Pressure   1.00000 Atm.
 Atom     1 has atomic number  6 and mass  12.00000

 Molecular mass:   244.13241 amu.
 Principal axes and moments of inertia in atomic units:
                           1         2         3
     Eigenvalues --  1780.353948329.759678407.95250
           X            0.99996  -0.00043  -0.00856
           Y            0.00649  -0.61339   0.78976
           Z            0.00559   0.78978   0.61336
 This molecule is an asymmetric top.
 Rotational symmetry number  1.
 Warning -- assumption of classical behavior for rotation
           may cause significant error
 Rotational temperatures (Kelvin)      0.04865     0.01040     0.01030
 Rotational constants (GHZ):           1.01370     0.21666     0.21465
 Zero-point vibrational energy     748309.7 (Joules/Mol)
                                  178.85031 (Kcal/Mol)
 Warning -- explicit consideration of  25 degrees of freedom as
           vibrations may cause significant error
 Vibrational temperatures:     36.95    48.05    68.51    81.06   117.23
          (Kelvin)            145.26   160.02   267.05   327.39   377.17
                              398.75   445.18   461.70   507.95   536.86
                              599.73   623.30   653.46   679.37   748.89
                              758.81   781.10   818.66   855.61   892.12
                              915.23  1018.24  1044.34  1064.98  1102.43
                             1107.22  1158.25  1191.57  1242.90  1274.37
                             1301.29  1319.58  1341.24  1371.41  1399.25
                             1410.10  1452.86  1456.51  1493.92  1535.23
                             1556.11  1570.62  1613.93  1630.99  1671.61
                             1694.32  1720.39  1760.00  1771.00  1794.81
                             1806.87  1829.87  1886.77  1898.95  1941.66
                             1964.48  1987.69  2007.32  2019.49  2028.11
                             2042.92  2062.28  2109.93  2139.43  2163.31
                             2167.80  2178.31  2187.53  2198.23  2220.16
                             2235.87  2353.89  2399.14  2586.23  3405.08
                             4356.42  4360.89  4397.11  4425.34  4428.76
                             4486.62  4509.71  4544.57  4549.74  4554.04
                             4578.91  4588.25  4617.23  4627.44  4640.50
                             5140.25

 Zero-point correction=                           0.285016 (Hartree/Particle)
 Thermal correction to Energy=                    0.300833
 Thermal correction to Enthalpy=                  0.301777
 Thermal correction to Gibbs Free Energy=         0.239856
 Sum of electronic and zero-point Energies=           -799.011874
 Sum of electronic and thermal Energies=              -798.996057
 Sum of electronic and thermal Enthalpies=            -798.995113
 Sum of electronic and thermal Free Energies=         -799.057034

                     E (Thermal)             CV                S
                      KCal/Mol        Cal/Mol-Kelvin    Cal/Mol-Kelvin
 Total                  188.775             61.040            130.323
 Electronic               0.000              0.000              0.000
 Translational            0.889              2.981             42.378
 Rotational               0.889              2.981             33.189
 Vibrational            186.998             55.079             54.756
 Vibration     1          0.593              1.985              6.138
 Vibration     2          0.594              1.983              5.617
 Vibration     3          0.595              1.978              4.914
 Vibration     4          0.596              1.975              4.582
 Vibration     5          0.600              1.962              3.855
 Vibration     6          0.604              1.948              3.436
 Vibration     7          0.607              1.940              3.248
 Vibration     8          0.632              1.860              2.271
 Vibration     9          0.651              1.799              1.898
 Vibration    10          0.669              1.742              1.647
 Vibration    11          0.678              1.716              1.551
 Vibration    12          0.699              1.656              1.365
 Vibration    13          0.706              1.634              1.306
 Vibration    14          0.729              1.569              1.153
 Vibration    15          0.745              1.527              1.067
 Vibration    16          0.780              1.434              0.903
 Vibration    17          0.794              1.398              0.848
 Vibration    18          0.813              1.352              0.783
 Vibration    19          0.829              1.312              0.731
 Vibration    20          0.875              1.205              0.609
 Vibration    21          0.882              1.189              0.593
 Vibration    22          0.898              1.155              0.559
 Vibration    23          0.925              1.098              0.506
 Vibration    24          0.952              1.043              0.459
 Vibration    25          0.980              0.990              0.416

                           ! Non-Optimized Parameters !
 Normal termination of Gaussian 16 at Fri Dec 11 22:35:19 2020.

 ----------------------------------------------------------------------
 # B3LYP/6-311++G(d,p) empiricaldispersion=gd3bj scf=xqc pop=npa geom=c
 heck
 ----------------------------------------------------------------------

 ---------------------------------------
 CID_108864873_JID_8831_Energie_neutraal
 ---------------------------------------
 Structure from the checkpoint file:  "JID_8831.chk"
 Charge =  0 Multiplicity = 1

 SCF Done:  E(RB3LYP) =  -799.517198391     A.U. after   16 cycles
 Normal termination of Gaussian 16 at Fri Dec 11 22:42:36 2020.

 ----------------------------------------------------------------------
 # B3LYP/6-311++G(d,p) empiricaldispersion=gd3bj scf=xqc pop=npa geom=c
 heck
 ----------------------------------------------------------------------

 -------------------------------------
 CID_108864873_JID_8831_Energie_kation
 -------------------------------------
 Structure from the checkpoint file:  "JID_8831.chk"
 Charge =  1 Multiplicity = 2

 SCF Done:  E(UB3LYP) =  -799.249905766     A.U. after   21 cycles
 Normal termination of Gaussian 16 at Fri Dec 11 22:56:17 2020.
 Gaussian 16:  ES64L-G16RevA.03 25-Dec-2016

 ----------------------------------------------------------------------
 # B3LYP/6-311++G(d,p) empiricaldispersion=gd3bj scf=xqc pop=npa geom=c
 heck
 ----------------------------------------------------------------------

 ------------------------------------
 CID_108864873_JID_8831_Energie_anion
 ------------------------------------
 Structure from the checkpoint file:  "JID_8831.chk"
 Charge = -1 Multiplicity = 2

                         Standard orientation:
 ---------------------------------------------------------------------
 Center     Atomic      Atomic             Coordinates (Angstroms)
 Number     Number       Type             X           Y           Z
 ---------------------------------------------------------------------
      1          6           0       -0.081367   -0.477661   -1.263506
      2          6           0        0.640559   -1.202769   -0.117805
      3          7           0        1.333352   -0.212212    0.704249
      4          6           0        0.455723    0.825931    1.240492
      5          6           0       -0.253073    1.517112    0.068039
      6          7           0       -0.985422    0.551981   -0.762714
      7          6           0       -2.296815    0.195501   -0.386880
      8          6           0       -3.212415    1.199348   -0.008957
      9          6           0       -4.524648    0.886136    0.325073
     10          6           0       -4.980900   -0.433393    0.282808
     11          6           0       -4.091014   -1.432204   -0.102472
     12          6           0       -2.767540   -1.130704   -0.425373
     13          6           0        2.586634   -0.359212    1.238648
     14          8           0        2.949525    0.154960    2.287279
     15          7           0        3.490658   -1.135395    0.470721
     16          6           0        3.670310   -0.849375   -0.954325
     17          6           0        3.576699    0.581719   -1.308034
     18          7           0        3.463080    1.705382   -1.574367
     19          1           0        0.667033    0.021290   -1.892003
     20          1           0       -0.630693   -1.177317   -1.896527
     21          1           0        1.345481   -1.951780   -0.478265
     22          1           0       -0.095582   -1.725892    0.509213
     23          1           0       -0.287139    0.383193    1.920066
     24          1           0        1.067142    1.526292    1.810004
     25          1           0        0.496507    2.010797   -0.561086
     26          1           0       -0.932409    2.280942    0.444689
     27          1           0       -2.903222    2.238852   -0.009631
     28          1           0       -5.201988    1.687789    0.607211
     29          1           0       -6.007492   -0.673690    0.541046
     30          1           0       -4.417638   -2.468036   -0.142631
     31          1           0       -2.105625   -1.944596   -0.695396
     32          1           0        4.373053   -1.126487    0.971173
     33          1           0        4.653714   -1.224907   -1.252393
     34          1           0        2.938075   -1.387004   -1.565187
 ---------------------------------------------------------------------

 SCF Done:  E(UB3LYP) =  -799.513197605     A.U. after   33 cycles
 SCF Done:  E(UB3LYP) =  -799.513197604     a.u. after    1 cycles

 The electronic state is 2-A.
 Alpha  occ. eigenvalues --  -19.00174 -14.25521 -14.24769 -14.24552 -14.22627
 Alpha  occ. eigenvalues --  -10.20986 -10.15682 -10.13542 -10.12409 -10.12337
 Alpha  occ. eigenvalues --  -10.12307 -10.12116 -10.11877 -10.09653 -10.09426
 Alpha  occ. eigenvalues --  -10.09086 -10.08791 -10.08698  -0.96812  -0.88401
 Alpha  occ. eigenvalues --   -0.85269  -0.83493  -0.81499  -0.76782  -0.69701
 Alpha  occ. eigenvalues --   -0.67799  -0.66626  -0.65717  -0.62225  -0.58015
 Alpha  occ. eigenvalues --   -0.55741  -0.52374  -0.51025  -0.48184  -0.46853
 Alpha  occ. eigenvalues --   -0.44116  -0.42721  -0.41091  -0.40166  -0.39685
 Alpha  occ. eigenvalues --   -0.39101  -0.38151  -0.37359  -0.36097  -0.35688
 Alpha  occ. eigenvalues --   -0.34647  -0.33939  -0.33411  -0.31980  -0.31088
 Alpha  occ. eigenvalues --   -0.29376  -0.29134  -0.28507  -0.28378  -0.28028
 Alpha  occ. eigenvalues --   -0.27681  -0.25800  -0.25536  -0.24317  -0.21073
 Alpha  occ. eigenvalues --   -0.20299  -0.17626  -0.17419  -0.16536  -0.11750
 Alpha  occ. eigenvalues --    0.03662
 Alpha virt. eigenvalues --    0.05219   0.06360   0.06423   0.06861   0.07292
 Alpha virt. eigenvalues --    0.07855   0.08393   0.08997   0.09403   0.10102
 Alpha virt. eigenvalues --    0.10426   0.10693   0.10921   0.10992   0.11850

  Beta  occ. eigenvalues --  -19.00172 -14.25516 -14.24746 -14.24552 -14.22605
  Beta  occ. eigenvalues --  -10.20987 -10.15600 -10.13540 -10.12401 -10.12303
  Beta  occ. eigenvalues --  -10.12303 -10.12114 -10.11857 -10.09646 -10.09417
  Beta  occ. eigenvalues --  -10.09083 -10.08776 -10.08690  -0.96804  -0.88390
  Beta  occ. eigenvalues --   -0.85243  -0.83456  -0.81456  -0.76765  -0.69675
  Beta  occ. eigenvalues --   -0.67773  -0.66603  -0.65590  -0.62188  -0.57976
  Beta  occ. eigenvalues --   -0.55711  -0.52347  -0.50995  -0.48153  -0.46800
  Beta  occ. eigenvalues --   -0.44070  -0.42669  -0.40962  -0.40143  -0.39666
  Beta  occ. eigenvalues --   -0.39058  -0.38119  -0.37328  -0.36069  -0.35643
  Beta  occ. eigenvalues --   -0.34626  -0.33906  -0.33378  -0.31951  -0.31060
  Beta  occ. eigenvalues --   -0.29356  -0.29111  -0.28478  -0.28347  -0.28007
  Beta  occ. eigenvalues --   -0.27662  -0.25780  -0.25451  -0.24270  -0.21056
  Beta  occ. eigenvalues --   -0.20279  -0.17607  -0.17396  -0.16523  -0.11738
  Beta virt. eigenvalues --    0.05401   0.06419   0.06735   0.06894   0.07368
  Beta virt. eigenvalues --    0.07560   0.08318   0.08726   0.09238   0.09623
  Beta virt. eigenvalues --    0.10516   0.10799   0.10857   0.11060   0.11178

 Mulliken charges and spin densities:
               1          2
     1  C   -0.561889   0.398677
     2  C    1.020768  -1.518776
     3  N   -0.061280   0.074889
     4  C   -0.024301  -0.224198
     5  C   -0.456206  -0.032887
     6  N    0.380242  -0.054150
     7  C   -0.532664   0.567353
     8  C   -0.937324   0.282918
     9  C   -0.578016   0.308497
    10  C    0.572743  -0.908013
    11  C    0.544129  -0.911027
    12  C    0.839813  -0.307172
    13  C    0.097924  -0.067071
    14  O   -0.338243  -0.003114
    15  N   -0.183812   0.110726
    16  C    0.980071  -1.353794
    17  C    0.509421  -0.293359
    18  N   -0.341654   0.030734
    19  H    0.034547   0.178658
    20  H   -0.352338   0.569727
    21  H   -0.482949   0.677657
    22  H    0.174914   0.026771
    23  H    0.133650   0.029228
    24  H    0.207498   0.006205
    25  H    0.133506   0.052846
    26  H    0.083954   0.018776
    27  H    0.089600   0.041420
    28  H   -0.035015   0.195854
    29  H    0.055120   0.075866
    30  H   -0.307088   0.490944
    31  H    0.023875   0.095526
    32  H    0.056941   0.259520
    33  H   -1.322382   1.580409
    34  H   -0.423555   0.600360
 Sum of Mulliken charges =  -1.00000   1.00000

 Dipole moment (field-independent basis, Debye):
    X=             -7.7621    Y=              4.4231    Z=              3.0071  Tot=              9.4264
 Quadrupole moment (field-independent basis, Debye-Ang):
   XX=           -210.7757   YY=           -149.2576   ZZ=           -148.5795
   XY=              2.7219   XZ=              6.4083   YZ=             -5.3571

 Summary of Natural Population Analysis:

                                       Natural Population
                Natural  -----------------------------------------------
    Atom  No    Charge         Core      Valence    Rydberg      Total
 -----------------------------------------------------------------------
      C    1   -0.09333      0.99961     2.08103    0.01270     3.09333
      C    2   -0.09361      0.99960     2.08254    0.01147     3.09361
      N    3   -0.27084      0.99963     2.76050    0.01072     3.77084
      C    4   -0.09042      0.99961     2.08232    0.00848     3.09042
      C    5   -0.08719      0.99960     2.07854    0.00905     3.08719
      N    6   -0.25623      0.99968     2.74582    0.01074     3.75623
      C    7    0.09331      0.99947     1.89490    0.01231     2.90669
      C    8   -0.12184      0.99953     2.11446    0.00784     3.12184
      C    9   -0.09525      0.99957     2.08609    0.00958     3.09525
      C   10   -0.12430      0.99956     2.11481    0.00992     3.12430
      C   11   -0.09133      0.99957     2.08137    0.01039     3.09133
      C   12   -0.12965      0.99953     2.12085    0.00927     3.12965
      C   13    0.41589      0.99965     1.56077    0.02369     2.58411
      O   14   -0.32856      0.99987     3.32380    0.00489     4.32856
      N   15   -0.33257      0.99970     2.82088    0.01199     3.83257
      C   16   -0.14678      0.99952     2.13232    0.01494     3.14678
      C   17    0.15440      0.99965     1.83001    0.01594     2.84560
      N   18   -0.18084      0.99979     2.66963    0.01142     3.68084
      H   19    0.10270      0.00000     0.39569    0.00161     0.39730
      H   20    0.10657      0.00000     0.39198    0.00144     0.39343
      H   21    0.11317      0.00000     0.38439    0.00243     0.38683
      H   22    0.09495      0.00000     0.40356    0.00149     0.40505
      H   23    0.09246      0.00000     0.40645    0.00109     0.40754
      H   24    0.11557      0.00000     0.38350    0.00093     0.38443
      H   25    0.10428      0.00000     0.39452    0.00120     0.39572
      H   26    0.09983      0.00000     0.39918    0.00099     0.40017
      H   27    0.09984      0.00000     0.39886    0.00130     0.40016
      H   28    0.09880      0.00000     0.40040    0.00079     0.40120
      H   29    0.09994      0.00000     0.39928    0.00078     0.40006
      H   30    0.10165      0.00000     0.39742    0.00094     0.39835
      H   31    0.10505      0.00000     0.39307    0.00188     0.39495
      H   32    0.19639      0.00000     0.30109    0.00252     0.30361
      H   33    0.12963      0.00000     0.36121    0.00916     0.37037
      H   34    0.11829      0.00000     0.37651    0.00520     0.38171
 =======================================================================
   * Total *    0.00000     17.99313    46.76775    0.23912    65.00000

 Normal termination of Gaussian 16 at Fri Dec 11 23:17:33 2020.
