 Gaussian 16, Revision A.03,

 -----------------------------------------------------------
 # opt freq B3LYP/6-31G(d) empiricaldispersion=gd3bj scf=xqc
 -----------------------------------------------------------

 ------------------------------
 CID_149968681_JID_108_neutraal
 ------------------------------
 Symbolic Z-matrix:
 Charge =  0 Multiplicity = 1

 SCF Done:  E(RB3LYP) =  -485.600975305     A.U. after   17 cycles
 SCF Done:  E(RB3LYP) =  -485.609346487     A.U. after   15 cycles
 SCF Done:  E(RB3LYP) =  -485.611637579     A.U. after   14 cycles
 SCF Done:  E(RB3LYP) =  -485.614480185     A.U. after   15 cycles
 SCF Done:  E(RB3LYP) =  -485.616325006     A.U. after   15 cycles
 SCF Done:  E(RB3LYP) =  -485.617388763     A.U. after   14 cycles
 SCF Done:  E(RB3LYP) =  -485.617776639     A.U. after   14 cycles
 SCF Done:  E(RB3LYP) =  -485.618048530     A.U. after   14 cycles
 SCF Done:  E(RB3LYP) =  -485.618324080     A.U. after   14 cycles
 SCF Done:  E(RB3LYP) =  -485.618541144     A.U. after   14 cycles
 SCF Done:  E(RB3LYP) =  -485.619791473     A.U. after   12 cycles
 SCF Done:  E(RB3LYP) =  -485.619804884     A.U. after   12 cycles
 SCF Done:  E(RB3LYP) =  -485.619807094     A.U. after   10 cycles
 SCF Done:  E(RB3LYP) =  -485.619807996     A.U. after    8 cycles
 SCF Done:  E(RB3LYP) =  -485.619808281     A.U. after    9 cycles
 SCF Done:  E(RB3LYP) =  -485.619808323     A.U. after    8 cycles
 Optimization completed.
    -- Stationary point found.
 Normal termination of Gaussian 16 at Tue Dec  8 10:19:56 2020.

 --------------------------------------------------------------------
 #N Geom=AllCheck Guess=TCheck SCRF=Check GenChk RB3LYP/6-31G(d) Freq
 --------------------------------------------------------------------

 Structure from the checkpoint file:  "JID_108.chk"
 ------------------------------
 CID_149968681_JID_108_neutraal
 ------------------------------
 Charge =  0 Multiplicity = 1

 SCF Done:  E(RB3LYP) =  -485.619808323     A.U. after    1 cycles

  Exact polarizability: 116.965  -8.965  73.461   4.098   1.797  55.599
 Approx polarizability: 185.709 -36.698 120.372  10.578   1.965  85.323

                      1                      2                      3
                      A                      A                      A
 Frequencies --     28.0014                51.8560               135.6046
 Red. masses --      5.9042                 4.2777                 5.5977
 Frc consts  --      0.0027                 0.0068                 0.0606
 IR Inten    --      0.0886                 0.1370                 5.0527

                      4                      5                      6
                      A                      A                      A
 Frequencies --    204.5175               255.0988               262.4547
 Red. masses --      6.0008                 1.2665                 2.4612
 Frc consts  --      0.1479                 0.0486                 0.0999
 IR Inten    --      0.9776                 0.2355                 1.6259

                      7                      8                      9
                      A                      A                      A
 Frequencies --    296.5417               332.3431               372.2834
 Red. masses --      1.0704                 2.5585                 3.6443
 Frc consts  --      0.0555                 0.1665                 0.2976
 IR Inten    --      0.1731                 0.8145                 4.2537

                     10                     11                     12
                      A                      A                      A
 Frequencies --    432.7494               488.0936               538.0496
 Red. masses --      3.5826                 5.3978                 4.6869
 Frc consts  --      0.3953                 0.7577                 0.7994
 IR Inten    --      3.4192                21.8771                10.4664

                     13                     14                     15
                      A                      A                      A
 Frequencies --    561.8761               648.8003               714.8709
 Red. masses --      9.1578                 4.9406                 5.9031
 Frc consts  --      1.7034                 1.2253                 1.7774
 IR Inten    --      8.1073                25.3189                17.4995

                     16                     17                     18
                      A                      A                      A
 Frequencies --    782.1863               800.4497               848.5779
 Red. masses --      3.1928                 5.3115                 3.1083
 Frc consts  --      1.1509                 2.0051                 1.3187
 IR Inten    --      2.9748                 2.6335                14.0609

                     19                     20                     21
                      A                      A                      A
 Frequencies --    876.1749               944.4600               965.8426
 Red. masses --      3.8987                 1.6498                 6.8587
 Frc consts  --      1.7634                 0.8671                 3.7697
 IR Inten    --      3.8299                 8.5701                57.1698

                     22                     23                     24
                      A                      A                      A
 Frequencies --   1050.9847              1096.3761              1117.7100
 Red. masses --      1.8886                 3.1649                 2.3545
 Frc consts  --      1.2291                 2.2415                 1.7330
 IR Inten    --      5.0251                53.5660                15.6789

                     25                     26                     27
                      A                      A                      A
 Frequencies --   1144.2809              1164.4782              1205.7360
 Red. masses --      2.3043                 1.4842                 2.3022
 Frc consts  --      1.7777                 1.1858                 1.9719
 IR Inten    --     29.0971                 6.0376                14.3149

                     28                     29                     30
                      A                      A                      A
 Frequencies --   1237.3267              1245.5482              1316.3911
 Red. masses --      5.3198                 3.6065                 1.2613
 Frc consts  --      4.7986                 3.2965                 1.2878
 IR Inten    --     54.2855                62.7031                 4.6022

                     31                     32                     33
                      A                      A                      A
 Frequencies --   1343.6296              1396.5298              1438.4848
 Red. masses --      1.2692                 1.3717                 1.3031
 Frc consts  --      1.3500                 1.5762                 1.5887
 IR Inten    --     14.3427                20.2778                11.9713

                     34                     35                     36
                      A                      A                      A
 Frequencies --   1476.0798              1512.9749              1521.3136
 Red. masses --      1.1580                 1.0563                 1.0464
 Frc consts  --      1.4865                 1.4246                 1.4269
 IR Inten    --      1.7093                11.1355                 4.5455

                     37                     38                     39
                      A                      A                      A
 Frequencies --   1530.5331              1542.6740              1716.4640
 Red. masses --      1.0482                 1.0454                 8.6340
 Frc consts  --      1.4467                 1.4659                14.9876
 IR Inten    --      5.3978                 7.7440                97.6402

                     40                     41                     42
                      A                      A                      A
 Frequencies --   2226.4060              3016.8786              3029.0975
 Red. masses --     13.9835                 1.0525                 1.0842
 Frc consts  --     40.8390                 5.6438                 5.8610
 IR Inten    --    539.5718                60.2084                24.0541

                     43                     44                     45
                      A                      A                      A
 Frequencies --   3073.3343              3121.4824              3147.2486
 Red. masses --      1.0354                 1.0827                 1.1029
 Frc consts  --      5.7620                 6.2155                 6.4363
 IR Inten    --     16.6463                17.2711                18.1492

                     46                     47                     48
                      A                      A                      A
 Frequencies --   3152.2825              3160.1725              3239.1105
 Red. masses --      1.1034                 1.1044                 1.0972
 Frc consts  --      6.4599                 6.4985                 6.7825
 IR Inten    --     21.6634                15.8027                 6.6268

 - Thermochemistry -
 -------------------
 Temperature   298.150 Kelvin.  Pressure   1.00000 Atm.
 Atom     1 has atomic number  6 and mass  12.00000

 Molecular mass:   140.08104 amu.
 Principal axes and moments of inertia in atomic units:
                           1         2         3
     Eigenvalues --   620.345471939.398752312.61646
           X            0.99961   0.02628   0.00936
           Y           -0.02611   0.99951  -0.01754
           Z           -0.00982   0.01728   0.99980
 This molecule is an asymmetric top.
 Rotational symmetry number  1.
 Warning -- assumption of classical behavior for rotation
           may cause significant error
 Rotational temperatures (Kelvin)      0.13962     0.04466     0.03745
 Rotational constants (GHZ):           2.90925     0.93057     0.78039
 Zero-point vibrational energy     369432.9 (Joules/Mol)
                                   88.29659 (Kcal/Mol)
 Warning -- explicit consideration of  13 degrees of freedom as
           vibrations may cause significant error
 Vibrational temperatures:     40.29    74.61   195.10   294.26   367.03
          (Kelvin)            377.61   426.66   478.17   535.63   622.63
                              702.26   774.13   808.41   933.48  1028.54
                             1125.39  1151.67  1220.91  1260.62  1358.87
                             1389.63  1512.13  1577.44  1608.14  1646.37
                             1675.42  1734.79  1780.24  1792.07  1893.99
                             1933.18  2009.29  2069.66  2123.75  2176.83
                             2188.83  2202.10  2219.56  2469.61  3203.30
                             4340.62  4358.20  4421.84  4491.12  4528.19
                             4535.43  4546.78  4660.36

 Zero-point correction=                           0.140710 (Hartree/Particle)
 Thermal correction to Energy=                    0.150299
 Thermal correction to Enthalpy=                  0.151243
 Thermal correction to Gibbs Free Energy=         0.104816
 Sum of electronic and zero-point Energies=           -485.479099
 Sum of electronic and thermal Energies=              -485.469509
 Sum of electronic and thermal Enthalpies=            -485.468565
 Sum of electronic and thermal Free Energies=         -485.514992

                     E (Thermal)             CV                S
                      KCal/Mol        Cal/Mol-Kelvin    Cal/Mol-Kelvin
 Total                   94.314             34.741             97.715
 Electronic               0.000              0.000              0.000
 Translational            0.889              2.981             40.723
 Rotational               0.889              2.981             29.410
 Vibrational             92.537             28.780             27.582
 Vibration     1          0.593              1.984              5.966
 Vibration     2          0.596              1.977              4.745
 Vibration     3          0.613              1.918              2.865
 Vibration     4          0.640              1.833              2.092
 Vibration     5          0.665              1.754              1.695
 Vibration     6          0.670              1.742              1.645
 Vibration     7          0.690              1.680              1.436
 Vibration     8          0.714              1.611              1.249
 Vibration     9          0.744              1.529              1.070
 Vibration    10          0.794              1.399              0.850
 Vibration    11          0.844              1.276              0.689
 Vibration    12          0.893              1.166              0.569
 Vibration    13          0.918              1.114              0.520

 Optimization completed.
    -- Stationary point found.
 Normal termination of Gaussian 16 at Tue Dec  8 10:22:43 2020.

 ----------------------------------------------------------------------
 # B3LYP/6-311++G(d,p) empiricaldispersion=gd3bj scf=xqc pop=npa geom=c
 heck
 ----------------------------------------------------------------------

 --------------------------------------
 CID_149968681_JID_108_Energie_neutraal
 --------------------------------------
 Structure from the checkpoint file:  "JID_108.chk"
 Charge =  0 Multiplicity = 1

 SCF Done:  E(RB3LYP) =  -485.754447008     A.U. after   15 cycles
 Normal termination of Gaussian 16 at Tue Dec  8 10:23:28 2020.

 ----------------------------------------------------------------------
 # B3LYP/6-311++G(d,p) empiricaldispersion=gd3bj scf=xqc pop=npa geom=c
 heck
 ----------------------------------------------------------------------

 ------------------------------------
 CID_149968681_JID_108_Energie_kation
 ------------------------------------
 Structure from the checkpoint file:  "JID_108.chk"
 Charge =  1 Multiplicity = 2

 SCF Done:  E(UB3LYP) =  -485.438949487     A.U. after   24 cycles
 Normal termination of Gaussian 16 at Tue Dec  8 10:25:21 2020.
 Gaussian 16:  ES64L-G16RevA.03 25-Dec-2016

 ----------------------------------------------------------------------
 # B3LYP/6-311++G(d,p) empiricaldispersion=gd3bj scf=xqc pop=npa geom=c
 heck
 ----------------------------------------------------------------------

 -----------------------------------
 CID_149968681_JID_108_Energie_anion
 -----------------------------------
 Structure from the checkpoint file:  "JID_108.chk"
 Charge = -1 Multiplicity = 2

                         Standard orientation:
 ---------------------------------------------------------------------
 Center     Atomic      Atomic             Coordinates (Angstroms)
 Number     Number       Type             X           Y           Z
 ---------------------------------------------------------------------
      1          6           0       -2.876660   -0.562009   -0.409773
      2          6           0       -1.554735    0.166147   -0.607231
      3          7           0       -1.510566    1.434924    0.149988
      4          6           0       -0.347504    1.500654    0.647959
      5          7           0        0.495375    0.361633    0.462770
      6          7           0       -0.337736   -0.597516   -0.208493
      7          6           0       -0.526212   -1.735276    0.696460
      8          7           0        1.627636    0.791888   -0.379349
      9          7           0        2.579746   -0.001899   -0.239700
     10          7           0        3.511788   -0.657886   -0.235531
     11          1           0       -2.913210   -1.482238   -1.000229
     12          1           0       -3.682479    0.095679   -0.745843
     13          1           0       -3.053493   -0.802513    0.641898
     14          1           0       -1.463441    0.443263   -1.666856
     15          1           0        0.051813    2.340774    1.206421
     16          1           0       -1.015768   -1.476285    1.647139
     17          1           0       -1.114757   -2.501435    0.186853
     18          1           0        0.458286   -2.152335    0.918330
 ---------------------------------------------------------------------

 SCF Done:  E(UB3LYP) =  -485.753003146     A.U. after   32 cycles

 The electronic state is 2-A.
 Alpha  occ. eigenvalues --  -14.27514 -14.23369 -14.20938 -14.20848 -14.19467
 Alpha  occ. eigenvalues --  -14.17261 -10.10709 -10.10068 -10.07113 -10.04970
 Alpha  occ. eigenvalues --   -0.96640  -0.90504  -0.81022  -0.75981  -0.69490
 Alpha  occ. eigenvalues --   -0.61689  -0.56396  -0.48244  -0.46505  -0.42316
 Alpha  occ. eigenvalues --   -0.37972  -0.36397  -0.34232  -0.33012  -0.31463
 Alpha  occ. eigenvalues --   -0.30112  -0.28467  -0.28198  -0.27402  -0.26874
 Alpha  occ. eigenvalues --   -0.25017  -0.22128  -0.18630  -0.16597  -0.14775
 Alpha  occ. eigenvalues --   -0.10019  -0.08242   0.05658
 Alpha virt. eigenvalues --    0.07348   0.09643   0.10173   0.10457   0.11342
 Alpha virt. eigenvalues --    0.11740   0.13136   0.13868   0.14825   0.15664
 Alpha virt. eigenvalues --    0.16711   0.17203   0.18399   0.19464   0.19685

  Beta  occ. eigenvalues --  -14.27005 -14.23118 -14.20931 -14.20827 -14.18811
  Beta  occ. eigenvalues --  -14.17148 -10.10710 -10.09963 -10.07106 -10.04923
  Beta  occ. eigenvalues --   -0.95728  -0.90163  -0.80559  -0.75801  -0.69124
  Beta  occ. eigenvalues --   -0.61539  -0.56296  -0.47890  -0.46303  -0.41782
  Beta  occ. eigenvalues --   -0.37832  -0.36167  -0.32699  -0.32607  -0.31193
  Beta  occ. eigenvalues --   -0.29816  -0.27946  -0.27455  -0.26834  -0.26730
  Beta  occ. eigenvalues --   -0.24919  -0.21354  -0.17538  -0.16281  -0.14435
  Beta  occ. eigenvalues --   -0.09848  -0.07907
  Beta virt. eigenvalues --    0.08054   0.09850   0.10198   0.10806   0.11787
  Beta virt. eigenvalues --    0.12063   0.12920   0.13675   0.14315   0.15021
  Beta virt. eigenvalues --    0.15731   0.16902   0.17458   0.18496   0.19548

 Mulliken charges and spin densities:
               1          2
     1  C    0.873364  -1.300847
     2  C   -1.176526   0.528415
     3  N   -0.081933   0.055731
     4  C    0.073276   0.046222
     5  N   -0.005365   0.060377
     6  N   -0.055151   0.020741
     7  C   -0.072983  -0.276739
     8  N   -0.466615  -0.036064
     9  N    0.245360   0.149658
    10  N   -0.197394   0.396645
    11  H   -0.296726   0.447841
    12  H   -0.071429   0.231085
    13  H   -0.211401   0.357559
    14  H    0.182123   0.022318
    15  H    0.138537   0.013445
    16  H    0.127589   0.016476
    17  H   -0.023669   0.134145
    18  H    0.018940   0.132993
 Sum of Mulliken charges =  -1.00000   1.00000

 Dipole moment (field-independent basis, Debye):
    X=             -1.2618    Y=              1.4161    Z=              1.4081  Tot=              2.3623
 Quadrupole moment (field-independent basis, Debye-Ang):
   XX=           -116.7400   YY=            -79.3286   ZZ=            -70.7536
   XY=              1.5058   XZ=              0.6111   YZ=             -0.1839

 Summary of Natural Population Analysis:

                                       Natural Population
                Natural  -----------------------------------------------
    Atom  No    Charge         Core      Valence    Rydberg      Total
 -----------------------------------------------------------------------
      C    1   -0.29551      0.99964     2.28863    0.00724     3.29551
      C    2    0.06773      0.99962     1.91471    0.01794     2.93227
      N    3   -0.24322      0.99970     2.73300    0.01052     3.74322
      C    4    0.15802      0.99963     1.82413    0.01822     2.84198
      N    5   -0.09555      0.99969     2.58017    0.01569     3.59555
      N    6   -0.19163      0.99972     2.67813    0.01379     3.69163
      C    7   -0.18102      0.99964     2.17100    0.01038     3.18102
      N    8   -0.16152      0.99972     2.64617    0.01563     3.66152
      N    9    0.15141      0.99971     2.33334    0.01553     3.34859
      N   10    0.03128      0.99982     2.45551    0.01340     3.46872
      H   11    0.10150      0.00000     0.39712    0.00138     0.39850
      H   12    0.10523      0.00000     0.39341    0.00136     0.39477
      H   13    0.10054      0.00000     0.39840    0.00106     0.39946
      H   14    0.08938      0.00000     0.40884    0.00178     0.41062
      H   15    0.08773      0.00000     0.41124    0.00102     0.41227
      H   16    0.08121      0.00000     0.41740    0.00139     0.41879
      H   17    0.09269      0.00000     0.40605    0.00127     0.40731
      H   18    0.10174      0.00000     0.39647    0.00179     0.39826
 =======================================================================
   * Total *    0.00000      9.99689    26.85371    0.14940    37.00000

 Normal termination of Gaussian 16 at Tue Dec  8 10:27:53 2020.
