 Gaussian 16, Revision A.03,

 -----------------------------------------------------------
 # opt freq B3LYP/6-31G(d) empiricaldispersion=gd3bj scf=xqc
 -----------------------------------------------------------

 -------------------------------
 CID_130048626_JID_3577_neutraal
 -------------------------------
 Symbolic Z-matrix:
 Charge =  0 Multiplicity = 1

 SCF Done:  E(RB3LYP) =  -592.872687725     A.U. after   15 cycles
 SCF Done:  E(RB3LYP) =  -592.875598115     A.U. after   12 cycles
 SCF Done:  E(RB3LYP) =  -592.876018406     A.U. after   11 cycles
 SCF Done:  E(RB3LYP) =  -592.876100756     A.U. after   11 cycles
 SCF Done:  E(RB3LYP) =  -592.876131715     A.U. after   10 cycles
 SCF Done:  E(RB3LYP) =  -592.876137229     A.U. after    9 cycles
 SCF Done:  E(RB3LYP) =  -592.876141311     A.U. after    8 cycles
 SCF Done:  E(RB3LYP) =  -592.876142838     A.U. after    8 cycles
 SCF Done:  E(RB3LYP) =  -592.876143074     A.U. after    7 cycles
 Optimization completed.
    -- Stationary point found.
 Normal termination of Gaussian 16 at Wed Dec  9 23:39:55 2020.

 --------------------------------------------------------------------
 #N Geom=AllCheck Guess=TCheck SCRF=Check GenChk RB3LYP/6-31G(d) Freq
 --------------------------------------------------------------------

 Structure from the checkpoint file:  "JID_3577.chk"
 -------------------------------
 CID_130048626_JID_3577_neutraal
 -------------------------------
 Charge =  0 Multiplicity = 1

 SCF Done:  E(RB3LYP) =  -592.876143074     A.U. after    1 cycles

  Exact polarizability: 146.629   5.663 136.782  -6.032   1.593  60.777
 Approx polarizability: 234.612   1.384 221.271 -17.253   4.503  91.003

                      1                      2                      3
                      A                      A                      A
 Frequencies --     42.2025                84.9564               101.2862
 Red. masses --      2.4723                 3.3446                 4.0948
 Frc consts  --      0.0026                 0.0142                 0.0248
 IR Inten    --      0.2174                 4.0862                 1.3119

                      4                      5                      6
                      A                      A                      A
 Frequencies --    176.4837               185.9324               219.1113
 Red. masses --      3.0180                 2.6103                 2.0500
 Frc consts  --      0.0554                 0.0532                 0.0580
 IR Inten    --      0.5590                 0.8485                 0.5985

                      7                      8                      9
                      A                      A                      A
 Frequencies --    221.0247               245.6032               295.1945
 Red. masses --      2.8025                 1.4744                 2.1001
 Frc consts  --      0.0807                 0.0524                 0.1078
 IR Inten    --      0.0849                 0.3334                 0.2975

                     10                     11                     12
                      A                      A                      A
 Frequencies --    304.4288               378.0804               396.5349
 Red. masses --      2.5164                 3.0216                 5.1624
 Frc consts  --      0.1374                 0.2545                 0.4783
 IR Inten    --      0.7142                 2.5237                 3.0383

                     13                     14                     15
                      A                      A                      A
 Frequencies --    470.6400               515.0261               562.5003
 Red. masses --      5.5480                 4.8749                 4.7465
 Frc consts  --      0.7240                 0.7619                 0.8848
 IR Inten    --      0.8925                 3.8256                 2.4236

                     16                     17                     18
                      A                      A                      A
 Frequencies --    568.5241               634.0268               662.8819
 Red. masses --      6.2329                 6.0370                 3.2593
 Frc consts  --      1.1870                 1.4298                 0.8438
 IR Inten    --      0.2321                 4.2540                 2.9501

                     19                     20                     21
                      A                      A                      A
 Frequencies --    690.7583               745.4063               803.1874
 Red. masses --      4.3886                 5.0887                 1.3445
 Frc consts  --      1.2338                 1.6659                 0.5110
 IR Inten    --      6.6624                 3.3506                 3.3346

                     22                     23                     24
                      A                      A                      A
 Frequencies --    813.6876               855.9559               863.7133
 Red. masses --      3.3700                 1.3727                 1.4136
 Frc consts  --      1.3146                 0.5926                 0.6213
 IR Inten    --     17.0018                11.3223                12.4030

                     25                     26                     27
                      A                      A                      A
 Frequencies --    889.7642               896.6891               936.5546
 Red. masses --      1.3728                10.3832                 3.1174
 Frc consts  --      0.6403                 4.9189                 1.6110
 IR Inten    --     16.2321                32.0478                12.7003

                     28                     29                     30
                      A                      A                      A
 Frequencies --    944.3110              1013.3526              1039.4447
 Red. masses --      7.6403                 3.5065                 3.7295
 Frc consts  --      4.0141                 2.1215                 2.3741
 IR Inten    --      3.5560                12.5737                25.9940

                     31                     32                     33
                      A                      A                      A
 Frequencies --   1091.1896              1101.3298              1164.5604
 Red. masses --      1.7797                 1.5577                 2.1573
 Frc consts  --      1.2485                 1.1132                 1.7238
 IR Inten    --      6.0524                 3.8293                16.7874

                     34                     35                     36
                      A                      A                      A
 Frequencies --   1186.3778              1191.5851              1226.3865
 Red. masses --      1.2707                 2.3330                 1.4716
 Frc consts  --      1.0537                 1.9517                 1.3040
 IR Inten    --      0.8405                84.4000                14.2461

                     37                     38                     39
                      A                      A                      A
 Frequencies --   1236.6852              1267.1636              1290.3051
 Red. masses --      1.7283                 3.1394                 1.4712
 Frc consts  --      1.5573                 2.9701                 1.4431
 IR Inten    --      7.4800                44.3773                 6.7255

                     40                     41                     42
                      A                      A                      A
 Frequencies --   1309.2918              1361.6619              1377.1553
 Red. masses --      1.5312                 2.0704                 2.5407
 Frc consts  --      1.5465                 2.2618                 2.8390
 IR Inten    --     27.1197                91.8417                78.2305

                     43                     44                     45
                      A                      A                      A
 Frequencies --   1425.9374              1437.2620              1459.5232
 Red. masses --      5.1269                 1.2870                 3.5337
 Frc consts  --      6.1419                 1.5664                 4.4351
 IR Inten    --     32.1600                 8.1086                 0.7402

                     46                     47                     48
                      A                      A                      A
 Frequencies --   1492.4462              1511.0429              1518.1772
 Red. masses --      2.0945                 1.9139                 1.0761
 Frc consts  --      2.7487                 2.5747                 1.4613
 IR Inten    --     37.6816                15.2458                 2.2086

                     49                     50                     51
                      A                      A                      A
 Frequencies --   1520.2995              1526.2667              1534.1679
 Red. masses --      1.0477                 1.0428                 1.0564
 Frc consts  --      1.4267                 1.4312                 1.4650
 IR Inten    --      7.0416                 8.3271                28.3488

                     52                     53                     54
                      A                      A                      A
 Frequencies --   1538.3908              1592.1789              1661.4330
 Red. masses --      1.0836                 4.6258                 6.9398
 Frc consts  --      1.5110                 6.9091                11.2866
 IR Inten    --      2.2577                57.5206               102.3182

                     55                     56                     57
                      A                      A                      A
 Frequencies --   1673.6449              3030.3046              3043.3968
 Red. masses --      7.9871                 1.0347                 1.0625
 Frc consts  --     13.1815                 5.5978                 5.7984
 IR Inten    --      0.0233                45.3818                32.0204

                     58                     59                     60
                      A                      A                      A
 Frequencies --   3049.8808              3082.5195              3090.8466
 Red. masses --      1.0347                 1.1011                 1.1069
 Frc consts  --      5.6705                 6.1642                 6.2301
 IR Inten    --     31.9060                 9.1234                39.1761

                     61                     62                     63
                      A                      A                      A
 Frequencies --   3119.6194              3124.5261              3168.5511
 Red. masses --      1.1026                 1.1035                 1.1001
 Frc consts  --      6.3225                 6.3472                 6.5071
 IR Inten    --     49.2440                33.8800                21.0860

                     64                     65                     66
                      A                      A                      A
 Frequencies --   3204.0273              3214.4423              3257.1349
 Red. masses --      1.0910                 1.0888                 1.0958
 Frc consts  --      6.5989                 6.6282                 6.8492
 IR Inten    --      8.9012                 7.4660                 4.2058

 - Thermochemistry -
 -------------------
 Temperature   298.150 Kelvin.  Pressure   1.00000 Atm.
 Atom     1 has atomic number  6 and mass  12.00000

 Molecular mass:   177.07898 amu.
 Principal axes and moments of inertia in atomic units:
                           1         2         3
     Eigenvalues --  1731.978762630.953994189.70236
           X            0.99980  -0.01859   0.00728
           Y            0.01860   0.99983  -0.00119
           Z           -0.00725   0.00133   0.99997
 This molecule is an asymmetric top.
 Rotational symmetry number  1.
 Warning -- assumption of classical behavior for rotation
           may cause significant error
 Rotational temperatures (Kelvin)      0.05001     0.03292     0.02067
 Rotational constants (GHZ):           1.04201     0.68596     0.43076
 Zero-point vibrational energy     512222.9 (Joules/Mol)
                                  122.42420 (Kcal/Mol)
 Warning -- explicit consideration of  16 degrees of freedom as
           vibrations may cause significant error
 Vibrational temperatures:     60.72   122.23   145.73   253.92   267.52
          (Kelvin)            315.25   318.01   353.37   424.72   438.01
                              543.97   570.53   677.15   741.01   809.31
                              817.98   912.22   953.74   993.85  1072.47
                             1155.61  1170.72  1231.53  1242.69  1280.17
                             1290.14  1347.49  1358.65  1457.99  1495.53
                             1569.98  1584.57  1675.54  1706.93  1714.43
                             1764.50  1779.31  1823.17  1856.46  1883.78
                             1959.13  1981.42  2051.61  2067.90  2099.93
                             2147.30  2174.05  2184.32  2187.37  2195.96
                             2207.33  2213.40  2290.79  2390.43  2408.00
                             4359.93  4378.77  4388.10  4435.06  4447.04
                             4488.44  4495.50  4558.84  4609.88  4624.87
                             4686.29

 Zero-point correction=                           0.195095 (Hartree/Particle)
 Thermal correction to Energy=                    0.206590
 Thermal correction to Enthalpy=                  0.207534
 Thermal correction to Gibbs Free Energy=         0.157170
 Sum of electronic and zero-point Energies=           -592.681048
 Sum of electronic and thermal Energies=              -592.669553
 Sum of electronic and thermal Enthalpies=            -592.668609
 Sum of electronic and thermal Free Energies=         -592.718973

                     E (Thermal)             CV                S
                      KCal/Mol        Cal/Mol-Kelvin    Cal/Mol-Kelvin
 Total                  129.637             43.702            106.000
 Electronic               0.000              0.000              0.000
 Translational            0.889              2.981             41.421
 Rotational               0.889              2.981             31.324
 Vibrational            127.860             37.740             33.254
 Vibration     1          0.595              1.980              5.153
 Vibration     2          0.601              1.960              3.773
 Vibration     3          0.604              1.948              3.429
 Vibration     4          0.628              1.871              2.365
 Vibration     5          0.632              1.859              2.268
 Vibration     6          0.647              1.812              1.966
 Vibration     7          0.648              1.809              1.951
 Vibration     8          0.660              1.770              1.762
 Vibration     9          0.689              1.683              1.444
 Vibration    10          0.695              1.665              1.392
 Vibration    11          0.748              1.517              1.047
 Vibration    12          0.763              1.478              0.975
 Vibration    13          0.828              1.315              0.736
 Vibration    14          0.870              1.217              0.622
 Vibration    15          0.918              1.112              0.519
 Vibration    16          0.925              1.099              0.507

                           ! Non-Optimized Parameters !
 Normal termination of Gaussian 16 at Wed Dec  9 23:45:48 2020.

 ----------------------------------------------------------------------
 # B3LYP/6-311++G(d,p) empiricaldispersion=gd3bj scf=xqc pop=npa geom=c
 heck
 ----------------------------------------------------------------------

 ---------------------------------------
 CID_130048626_JID_3577_Energie_neutraal
 ---------------------------------------
 Structure from the checkpoint file:  "JID_3577.chk"
 Charge =  0 Multiplicity = 1

 SCF Done:  E(RB3LYP) =  -593.033103484     A.U. after   16 cycles
 Normal termination of Gaussian 16 at Wed Dec  9 23:48:35 2020.

 ----------------------------------------------------------------------
 # B3LYP/6-311++G(d,p) empiricaldispersion=gd3bj scf=xqc pop=npa geom=c
 heck
 ----------------------------------------------------------------------

 -------------------------------------
 CID_130048626_JID_3577_Energie_kation
 -------------------------------------
 Structure from the checkpoint file:  "JID_3577.chk"
 Charge =  1 Multiplicity = 2

 SCF Done:  E(UB3LYP) =  -592.735039263     A.U. after   23 cycles
 Normal termination of Gaussian 16 at Wed Dec  9 23:54:17 2020.
 Gaussian 16:  ES64L-G16RevA.03 25-Dec-2016

 ----------------------------------------------------------------------
 # B3LYP/6-311++G(d,p) empiricaldispersion=gd3bj scf=xqc pop=npa geom=c
 heck
 ----------------------------------------------------------------------

 ------------------------------------
 CID_130048626_JID_3577_Energie_anion
 ------------------------------------
 Structure from the checkpoint file:  "JID_3577.chk"
 Charge = -1 Multiplicity = 2

                         Standard orientation:
 ---------------------------------------------------------------------
 Center     Atomic      Atomic             Coordinates (Angstroms)
 Number     Number       Type             X           Y           Z
 ---------------------------------------------------------------------
      1          6           0        3.682825   -0.689794    0.819890
      2          6           0        2.919571   -0.851789   -0.504515
      3          6           0        1.435533   -0.600095   -0.351674
      4          6           0        0.537894   -1.654443   -0.273791
      5          6           0       -0.822494   -1.351323   -0.085268
      6          6           0       -1.251724   -0.028528    0.019073
      7          6           0       -0.363833    1.058938   -0.058135
      8          6           0        0.977753    0.739859   -0.244429
      9          8           0       -0.892835    2.303210    0.050763
     10          6           0        0.002546    3.402575   -0.022613
     11          8           0       -2.594776    0.023501    0.192070
     12          7           0       -3.083128   -1.299236    0.205351
     13          6           0       -2.049707   -2.082379    0.043598
     14          1           0        3.560175    0.321717    1.223008
     15          1           0        4.754258   -0.873103    0.681931
     16          1           0        3.307338   -1.392941    1.571139
     17          1           0        3.336693   -0.161960   -1.249726
     18          1           0        3.077538   -1.863965   -0.894490
     19          1           0        0.878998   -2.681744   -0.356312
     20          1           0        1.711526    1.535325   -0.315005
     21          1           0        0.746209    3.365335    0.783812
     22          1           0        0.519206    3.432171   -0.990544
     23          1           0       -0.613262    4.295709    0.089624
     24          1           0       -2.206091   -3.153713    0.023632
 ---------------------------------------------------------------------

 SCF Done:  E(UB3LYP) =  -593.025457657     A.U. after   33 cycles
 SCF Done:  E(UB3LYP) =  -593.025457657     a.u. after    1 cycles

 The electronic state is 2-A.
 Alpha  occ. eigenvalues --  -19.07629 -19.04787 -14.23240 -10.12197 -10.11912
 Alpha  occ. eigenvalues --  -10.11114 -10.08444 -10.06792 -10.06522 -10.06505
 Alpha  occ. eigenvalues --  -10.05610 -10.05437 -10.05233  -1.01181  -0.96466
 Alpha  occ. eigenvalues --   -0.75052  -0.74782  -0.68229  -0.64647  -0.62458
 Alpha  occ. eigenvalues --   -0.59350  -0.53364  -0.50837  -0.48614  -0.47281
 Alpha  occ. eigenvalues --   -0.42187  -0.40705  -0.38058  -0.36970  -0.35833
 Alpha  occ. eigenvalues --   -0.34568  -0.33734  -0.32541  -0.30948  -0.29944
 Alpha  occ. eigenvalues --   -0.28112  -0.27378  -0.25541  -0.25452  -0.24514
 Alpha  occ. eigenvalues --   -0.23575  -0.22315  -0.21650  -0.18916  -0.18392
 Alpha  occ. eigenvalues --   -0.13322  -0.10776   0.04604
 Alpha virt. eigenvalues --    0.06399   0.06929   0.08431   0.08978   0.09488
 Alpha virt. eigenvalues --    0.10250   0.10987   0.11659   0.11859   0.12448
 Alpha virt. eigenvalues --    0.12895   0.13723   0.14228   0.14764   0.15550

  Beta  occ. eigenvalues --  -19.07560 -19.04756 -14.22885 -10.12098 -10.11875
  Beta  occ. eigenvalues --  -10.11132 -10.08375 -10.06829 -10.06509 -10.06491
  Beta  occ. eigenvalues --  -10.05529 -10.05402 -10.05075  -1.00971  -0.96385
  Beta  occ. eigenvalues --   -0.74720  -0.74592  -0.68157  -0.64421  -0.62344
  Beta  occ. eigenvalues --   -0.59198  -0.53241  -0.50562  -0.48490  -0.47190
  Beta  occ. eigenvalues --   -0.42108  -0.40595  -0.37908  -0.36792  -0.35742
  Beta  occ. eigenvalues --   -0.34093  -0.33659  -0.32476  -0.30861  -0.29883
  Beta  occ. eigenvalues --   -0.28018  -0.27282  -0.25405  -0.25145  -0.24440
  Beta  occ. eigenvalues --   -0.23517  -0.22267  -0.21216  -0.18479  -0.17612
  Beta  occ. eigenvalues --   -0.12606  -0.10141
  Beta virt. eigenvalues --    0.07012   0.07690   0.08533   0.08584   0.09281
  Beta virt. eigenvalues --    0.10012   0.10624   0.11449   0.11834   0.12034
  Beta virt. eigenvalues --    0.12764   0.13038   0.14000   0.14494   0.14996

 Mulliken charges and spin densities:
               1          2
     1  C    0.903083  -1.523032
     2  C   -1.078601   0.753627
     3  C    1.879341  -0.984466
     4  C   -2.275224   0.307089
     5  C    1.975727  -0.689502
     6  C   -0.017023  -0.609089
     7  C   -0.326968  -0.098091
     8  C   -1.108385   1.540305
     9  O   -0.228089   0.054684
    10  C    0.493803  -0.781971
    11  O    0.034627   0.016203
    12  N   -0.285237   0.150720
    13  C    0.382316  -0.098005
    14  H   -0.246230   0.383753
    15  H   -0.472373   0.592012
    16  H    0.050497   0.075924
    17  H   -0.097777   0.230334
    18  H   -0.236432   0.392459
    19  H   -0.014817   0.117442
    20  H    0.215180  -0.025401
    21  H   -0.195701   0.352832
    22  H   -0.290068   0.443294
    23  H   -0.217649   0.398521
    24  H    0.156000   0.000360
 Sum of Mulliken charges =  -1.00000   1.00000

 Dipole moment (field-independent basis, Debye):
    X=             -1.9036    Y=             -2.5129    Z=             -0.5422  Tot=              3.1988
 Quadrupole moment (field-independent basis, Debye-Ang):
   XX=           -147.5807   YY=           -112.1316   ZZ=            -96.6169
   XY=             -0.7156   XZ=             -0.7528   YZ=              0.1043

 Summary of Natural Population Analysis:

                                       Natural Population
                Natural  -----------------------------------------------
    Atom  No    Charge         Core      Valence    Rydberg      Total
 -----------------------------------------------------------------------
      C    1   -0.28050      0.99966     2.27590    0.00494     3.28050
      C    2   -0.19550      0.99961     2.18595    0.00994     3.19550
      C    3   -0.02198      0.99953     2.01199    0.01045     3.02198
      C    4   -0.08024      0.99948     2.07320    0.00756     3.08024
      C    5   -0.07008      0.99949     2.06300    0.00760     3.07008
      C    6    0.13783      0.99934     1.84894    0.01389     2.86217
      C    7    0.15785      0.99934     1.82922    0.01359     2.84215
      C    8   -0.13095      0.99950     2.12308    0.00838     3.13095
      O    9   -0.26523      0.99985     3.25574    0.00964     4.26523
      C   10   -0.10091      0.99961     2.09226    0.00905     3.10091
      O   11   -0.16725      0.99986     3.15740    0.01000     4.16725
      N   12   -0.02568      0.99970     2.51314    0.01283     3.52568
      C   13   -0.00040      0.99962     1.98560    0.01518     3.00040
      H   14    0.09932      0.00000     0.39945    0.00123     0.40068
      H   15    0.09655      0.00000     0.40168    0.00177     0.40345
      H   16    0.09522      0.00000     0.40377    0.00101     0.40478
      H   17    0.09766      0.00000     0.40108    0.00126     0.40234
      H   18    0.09664      0.00000     0.40221    0.00115     0.40336
      H   19    0.09536      0.00000     0.40341    0.00123     0.40464
      H   20    0.10315      0.00000     0.39536    0.00150     0.39685
      H   21    0.08556      0.00000     0.41296    0.00149     0.41444
      H   22    0.08538      0.00000     0.41286    0.00177     0.41462
      H   23    0.09157      0.00000     0.40741    0.00102     0.40843
      H   24    0.09666      0.00000     0.40199    0.00135     0.40334
 =======================================================================
   * Total *   -0.00000     12.99458    33.85760    0.14782    47.00000

 Normal termination of Gaussian 16 at Thu Dec 10 00:02:27 2020.
