 Gaussian 16, Revision A.03,

 -----------------------------------------------------------
 # opt freq B3LYP/6-31G(d) empiricaldispersion=gd3bj scf=xqc
 -----------------------------------------------------------

 ------------------------------
 CID_61260151_JID_6234_neutraal
 ------------------------------
 Symbolic Z-matrix:
 Charge =  0 Multiplicity = 1

 SCF Done:  E(RB3LYP) =  -781.256225276     A.U. after   15 cycles
 SCF Done:  E(RB3LYP) =  -781.260314721     A.U. after   13 cycles
 SCF Done:  E(RB3LYP) =  -781.258112076     A.U. after   13 cycles
 SCF Done:  E(RB3LYP) =  -781.261517023     A.U. after   12 cycles
 SCF Done:  E(RB3LYP) =  -781.262297883     A.U. after   12 cycles
 SCF Done:  E(RB3LYP) =  -781.262770057     A.U. after   11 cycles
 SCF Done:  E(RB3LYP) =  -781.262903559     A.U. after   11 cycles
 SCF Done:  E(RB3LYP) =  -781.262972169     A.U. after   11 cycles
 SCF Done:  E(RB3LYP) =  -781.263000170     A.U. after   10 cycles
 SCF Done:  E(RB3LYP) =  -781.263013494     A.U. after   10 cycles
 SCF Done:  E(RB3LYP) =  -781.263034992     A.U. after    7 cycles
 SCF Done:  E(RB3LYP) =  -781.263035437     A.U. after    8 cycles
 SCF Done:  E(RB3LYP) =  -781.263035661     A.U. after    7 cycles
 SCF Done:  E(RB3LYP) =  -781.263035729     A.U. after    7 cycles
 Optimization completed.
    -- Stationary point found.
 Normal termination of Gaussian 16 at Thu Dec 10 21:23:35 2020.

 --------------------------------------------------------------------
 #N Geom=AllCheck Guess=TCheck SCRF=Check GenChk RB3LYP/6-31G(d) Freq
 --------------------------------------------------------------------

 Structure from the checkpoint file:  "JID_6234.chk"
 ------------------------------
 CID_61260151_JID_6234_neutraal
 ------------------------------
 Charge =  0 Multiplicity = 1

 SCF Done:  E(RB3LYP) =  -781.263035729     A.U. after    1 cycles

  Exact polarizability: 157.846  -0.391 133.980  -9.801   5.373 102.412
 Approx polarizability: 201.807   0.325 218.681 -15.723   8.946 148.589

                      1                      2                      3
                      A                      A                      A
 Frequencies --     28.1256                41.9255                45.3388
 Red. masses --      4.1093                 4.1744                 3.9778
 Frc consts  --      0.0019                 0.0043                 0.0048
 IR Inten    --      0.7310                 0.2044                 0.3638

                      4                      5                      6
                      A                      A                      A
 Frequencies --     70.9232                95.6348               101.7647
 Red. masses --      4.1830                 1.9123                 1.5039
 Frc consts  --      0.0124                 0.0103                 0.0092
 IR Inten    --      1.1048                 3.1939                 0.7268

                      7                      8                      9
                      A                      A                      A
 Frequencies --    123.7155               127.0713               151.5953
 Red. masses --      2.4269                 1.6993                 1.6391
 Frc consts  --      0.0219                 0.0162                 0.0222
 IR Inten    --      0.2088                 2.2436                 0.2048

                     10                     11                     12
                      A                      A                      A
 Frequencies --    162.3272               172.9370               175.8388
 Red. masses --      1.4426                 1.4309                 2.7277
 Frc consts  --      0.0224                 0.0252                 0.0497
 IR Inten    --      0.7191                 0.6087                 2.4118

                     13                     14                     15
                      A                      A                      A
 Frequencies --    203.2467               239.9042               251.9263
 Red. masses --      1.7310                 4.0556                 3.3133
 Frc consts  --      0.0421                 0.1375                 0.1239
 IR Inten    --      3.3669                11.6576                 8.9718

                     16                     17                     18
                      A                      A                      A
 Frequencies --    278.6491               301.7062               312.2037
 Red. masses --      3.0479                 3.6587                 2.8222
 Frc consts  --      0.1394                 0.1962                 0.1621
 IR Inten    --      1.3196                 5.9775                 1.9629

                     19                     20                     21
                      A                      A                      A
 Frequencies --    335.3794               378.0922               401.6738
 Red. masses --      4.0501                 4.8407                 3.6420
 Frc consts  --      0.2684                 0.4077                 0.3462
 IR Inten    --      0.5513                 4.4314                 0.4295

                     22                     23                     24
                      A                      A                      A
 Frequencies --    444.1318               486.3265               536.7855
 Red. masses --      5.4571                 1.4639                 3.6038
 Frc consts  --      0.6342                 0.2040                 0.6118
 IR Inten    --      4.1633                59.1931                 8.6254

                     25                     26                     27
                      A                      A                      A
 Frequencies --    575.3852               600.3894               637.4900
 Red. masses --      3.1239                 3.6920                 4.6647
 Frc consts  --      0.6093                 0.7841                 1.1169
 IR Inten    --     12.4980                37.9507                 3.3155

                     28                     29                     30
                      A                      A                      A
 Frequencies --    655.7420               682.2546               704.4174
 Red. masses --      2.5976                 3.1629                 3.6618
 Frc consts  --      0.6581                 0.8674                 1.0705
 IR Inten    --     24.0439                19.3525                31.1166

                     31                     32                     33
                      A                      A                      A
 Frequencies --    772.7736               776.4273               812.4663
 Red. masses --      2.5113                 3.5749                 3.9172
 Frc consts  --      0.8836                 1.2697                 1.5235
 IR Inten    --     11.9491                19.2748                42.7954

                     34                     35                     36
                      A                      A                      A
 Frequencies --    861.5274               954.6783              1006.3477
 Red. masses --      2.4052                 4.3939                 1.5561
 Frc consts  --      1.0518                 2.3595                 0.9285
 IR Inten    --      6.0428                33.6826                 7.1387

                     37                     38                     39
                      A                      A                      A
 Frequencies --   1030.0335              1042.2826              1072.7937
 Red. masses --      1.7972                 2.8821                 2.8383
 Frc consts  --      1.1234                 1.8447                 1.9246
 IR Inten    --     14.0687                95.9636                 8.8226

                     40                     41                     42
                      A                      A                      A
 Frequencies --   1078.9151              1083.1791              1090.1506
 Red. masses --      1.6339                 1.5347                 3.4447
 Frc consts  --      1.1206                 1.0609                 2.4120
 IR Inten    --      3.5981                 4.7230                71.3948

                     43                     44                     45
                      A                      A                      A
 Frequencies --   1117.1496              1140.1172              1163.0193
 Red. masses --      5.9836                 2.8210                 3.8983
 Frc consts  --      4.3998                 2.1605                 3.1067
 IR Inten    --    200.5490                 1.3250               218.1708

                     46                     47                     48
                      A                      A                      A
 Frequencies --   1169.7473              1187.6531              1191.7666
 Red. masses --      3.6553                 1.3724                 1.2867
 Frc consts  --      2.9468                 1.1405                 1.0768
 IR Inten    --     72.5265                 6.2421                 4.9507

                     49                     50                     51
                      A                      A                      A
 Frequencies --   1193.5674              1223.3310              1231.0415
 Red. masses --      3.6030                 1.5339                 1.5155
 Frc consts  --      3.0242                 1.3525                 1.3532
 IR Inten    --     14.1486                39.6676                18.2452

                     52                     53                     54
                      A                      A                      A
 Frequencies --   1283.8803              1317.9005              1350.0367
 Red. masses --      1.4589                 2.1247                 1.4769
 Frc consts  --      1.4169                 2.1743                 1.5860
 IR Inten    --     35.6318                12.2498                66.9056

                     55                     56                     57
                      A                      A                      A
 Frequencies --   1380.8989              1413.2990              1425.4823
 Red. masses --      2.4973                 1.1699                 1.7419
 Frc consts  --      2.8057                 1.3768                 2.0855
 IR Inten    --     53.0661                16.6866                 3.0626

                     58                     59                     60
                      A                      A                      A
 Frequencies --   1438.4609              1442.8525              1454.4419
 Red. masses --      1.4815                 1.4303                 1.6210
 Frc consts  --      1.8061                 1.7543                 2.0203
 IR Inten    --     19.0731                 3.3278                 3.5385

                     61                     62                     63
                      A                      A                      A
 Frequencies --   1484.2268              1489.4653              1497.5875
 Red. masses --      1.6145                 1.1538                 1.5614
 Frc consts  --      2.0955                 1.5081                 2.0632
 IR Inten    --     41.1999                 0.1545               102.4664

                     64                     65                     66
                      A                      A                      A
 Frequencies --   1504.3908              1506.0070              1511.0931
 Red. masses --      1.1838                 1.0609                 1.4422
 Frc consts  --      1.5785                 1.4177                 1.9402
 IR Inten    --      2.3986                 7.5096                17.5394

                     67                     68                     69
                      A                      A                      A
 Frequencies --   1514.6669              1517.9871              1522.2016
 Red. masses --      1.0538                 1.4471                 1.0721
 Frc consts  --      1.4244                 1.9646                 1.4636
 IR Inten    --      3.2812                98.0527                 5.8886

                     70                     71                     72
                      A                      A                      A
 Frequencies --   1529.3555              1537.4678              1539.3811
 Red. masses --      1.1668                 1.1824                 1.3925
 Frc consts  --      1.6080                 1.6467                 1.9441
 IR Inten    --      7.2643                 9.9565                18.6504

                     73                     74                     75
                      A                      A                      A
 Frequencies --   1543.9557              1546.1232              1618.5117
 Red. masses --      1.0663                 1.7198                 4.5397
 Frc consts  --      1.4976                 2.4222                 7.0067
 IR Inten    --      3.4370                11.0154                26.2211

                     76                     77                     78
                      A                      A                      A
 Frequencies --   1763.3834              3022.5261              3029.1105
 Red. masses --      8.2894                 1.0408                 1.0505
 Frc consts  --     15.1867                 5.6024                 5.6792
 IR Inten    --    357.1131                50.4477                17.8343

                     79                     80                     81
                      A                      A                      A
 Frequencies --   3041.2870              3046.3374              3056.4500
 Red. masses --      1.0594                 1.0436                 1.0825
 Frc consts  --      5.7736                 5.7059                 5.9580
 IR Inten    --     36.7853                25.2097                85.6768

                     82                     83                     84
                      A                      A                      A
 Frequencies --   3060.6339              3093.2166              3101.4363
 Red. masses --      1.0403                 1.0974                 1.0999
 Frc consts  --      5.7417                 6.1866                 6.2336
 IR Inten    --     21.6391                35.4856                43.6171

                     85                     86                     87
                      A                      A                      A
 Frequencies --   3103.0046              3123.2810              3148.1050
 Red. masses --      1.0982                 1.0948                 1.1032
 Frc consts  --      6.2301                 6.2921                 6.4420
 IR Inten    --     15.6401                12.3808                27.0611

                     88                     89                     90
                      A                      A                      A
 Frequencies --   3150.2600              3154.0302              3157.1693
 Red. masses --      1.0989                 1.1021                 1.1042
 Frc consts  --      6.4257                 6.4594                 6.4847
 IR Inten    --      6.7923                23.0492                 9.7323

                     91                     92                     93
                      A                      A                      A
 Frequencies --   3176.7721              3570.7906              3657.8338
 Red. masses --      1.0900                 1.0747                 1.0811
 Frc consts  --      6.4814                 8.0735                 8.5222
 IR Inten    --      7.0744                26.2951                67.5244

 - Thermochemistry -
 -------------------
 Temperature   298.150 Kelvin.  Pressure   1.00000 Atm.
 Atom     1 has atomic number  6 and mass  12.00000

 Molecular mass:   227.12699 amu.
 Principal axes and moments of inertia in atomic units:
                           1         2         3
     Eigenvalues --  1947.443206445.772547216.78757
           X            0.99998  -0.00484  -0.00395
           Y            0.00496   0.99950   0.03108
           Z            0.00380  -0.03110   0.99951
 This molecule is an asymmetric top.
 Rotational symmetry number  1.
 Warning -- assumption of classical behavior for rotation
           may cause significant error
 Rotational temperatures (Kelvin)      0.04448     0.01344     0.01200
 Rotational constants (GHZ):           0.92672     0.27999     0.25008
 Zero-point vibrational energy     731798.6 (Joules/Mol)
                                  174.90406 (Kcal/Mol)
 Warning -- explicit consideration of  26 degrees of freedom as
           vibrations may cause significant error
 Vibrational temperatures:     40.47    60.32    65.23   102.04   137.60
          (Kelvin)            146.42   178.00   182.83   218.11   233.55
                              248.82   252.99   292.43   345.17   362.47
                              400.91   434.09   449.19   482.54   543.99
                              577.92   639.01   699.72   772.31   827.85
                              863.83   917.21   943.47   981.61  1013.50
                             1111.85  1117.11  1168.96  1239.55  1373.57
                             1447.91  1481.99  1499.61  1543.51  1552.32
                             1558.45  1568.48  1607.33  1640.37  1673.33
                             1683.01  1708.77  1714.69  1717.28  1760.10
                             1771.19  1847.22  1896.16  1942.40  1986.81
                             2033.42  2050.95  2069.62  2075.94  2092.62
                             2135.47  2143.01  2154.69  2164.48  2166.81
                             2174.13  2179.27  2184.04  2190.11  2200.40
                             2212.07  2214.83  2221.41  2224.53  2328.68
                             2537.12  4348.74  4358.21  4375.73  4383.00
                             4397.55  4403.57  4450.45  4462.28  4464.53
                             4493.70  4529.42  4532.52  4537.95  4542.46
                             4570.67  5137.57  5262.81

 Zero-point correction=                           0.278727 (Hartree/Particle)
 Thermal correction to Energy=                    0.296478
 Thermal correction to Enthalpy=                  0.297422
 Thermal correction to Gibbs Free Energy=         0.231852
 Sum of electronic and zero-point Energies=           -780.984308
 Sum of electronic and thermal Energies=              -780.966558
 Sum of electronic and thermal Enthalpies=            -780.965614
 Sum of electronic and thermal Free Energies=         -781.031184

                     E (Thermal)             CV                S
                      KCal/Mol        Cal/Mol-Kelvin    Cal/Mol-Kelvin
 Total                  186.043             62.941            138.004
 Electronic               0.000              0.000              0.000
 Translational            0.889              2.981             42.163
 Rotational               0.889              2.981             32.871
 Vibrational            184.265             56.979             62.969
 Vibration     1          0.593              1.984              5.957
 Vibration     2          0.595              1.980              5.166
 Vibration     3          0.595              1.979              5.011
 Vibration     4          0.598              1.968              4.128
 Vibration     5          0.603              1.952              3.541
 Vibration     6          0.604              1.948              3.420
 Vibration     7          0.610              1.929              3.041
 Vibration     8          0.611              1.926              2.990
 Vibration     9          0.619              1.901              2.652
 Vibration    10          0.622              1.889              2.522
 Vibration    11          0.626              1.876              2.403
 Vibration    12          0.628              1.872              2.372
 Vibration    13          0.639              1.835              2.104
 Vibration    14          0.657              1.779              1.804
 Vibration    15          0.664              1.760              1.717
 Vibration    16          0.679              1.713              1.542
 Vibration    17          0.694              1.670              1.407
 Vibration    18          0.701              1.650              1.351
 Vibration    19          0.716              1.605              1.234
 Vibration    20          0.748              1.517              1.047
 Vibration    21          0.767              1.467              0.957
 Vibration    22          0.804              1.374              0.814
 Vibration    23          0.842              1.280              0.693
 Vibration    24          0.892              1.169              0.572
 Vibration    25          0.932              1.084              0.494
 Vibration    26          0.959              1.031              0.449

                           ! Non-Optimized Parameters !
 Normal termination of Gaussian 16 at Thu Dec 10 21:35:21 2020.

 ----------------------------------------------------------------------
 # B3LYP/6-311++G(d,p) empiricaldispersion=gd3bj scf=xqc pop=npa geom=c
 heck
 ----------------------------------------------------------------------

 --------------------------------------
 CID_61260151_JID_6234_Energie_neutraal
 --------------------------------------
 Structure from the checkpoint file:  "JID_6234.chk"
 Charge =  0 Multiplicity = 1

 SCF Done:  E(RB3LYP) =  -781.492573775     A.U. after   16 cycles
 Normal termination of Gaussian 16 at Thu Dec 10 21:41:23 2020.

 ----------------------------------------------------------------------
 # B3LYP/6-311++G(d,p) empiricaldispersion=gd3bj scf=xqc pop=npa geom=c
 heck
 ----------------------------------------------------------------------

 ------------------------------------
 CID_61260151_JID_6234_Energie_kation
 ------------------------------------
 Structure from the checkpoint file:  "JID_6234.chk"
 Charge =  1 Multiplicity = 2

 SCF Done:  E(UB3LYP) =  -781.176251009     A.U. after   33 cycles
 SCF Done:  E(UB3LYP) =  -781.179160818     a.u. after   15 cycles
 Normal termination of Gaussian 16 at Fri Dec 11 00:33:24 2020.
 Gaussian 16:  ES64L-G16RevA.03 25-Dec-2016

 ----------------------------------------------------------------------
 # B3LYP/6-311++G(d,p) empiricaldispersion=gd3bj scf=xqc pop=npa geom=c
 heck
 ----------------------------------------------------------------------

 -----------------------------------
 CID_61260151_JID_6234_Energie_anion
 -----------------------------------
 Structure from the checkpoint file:  "JID_6234.chk"
 Charge = -1 Multiplicity = 2

                         Standard orientation:
 ---------------------------------------------------------------------
 Center     Atomic      Atomic             Coordinates (Angstroms)
 Number     Number       Type             X           Y           Z
 ---------------------------------------------------------------------
      1          6           0       -0.582624   -1.736548   -1.517253
      2          6           0       -1.676760   -1.136438   -0.694277
      3          6           0       -1.868538    0.141096   -0.170473
      4          6           0       -3.152637    0.102403    0.455341
      5          7           0       -3.698552   -1.105209    0.352579
      6          7           0       -2.789180   -1.831470   -0.349696
      7          6           0       -3.863595    1.213420    1.158921
      8          6           0       -1.036749    1.354739   -0.321412
      9          8           0       -1.536456    2.458155   -0.521943
     10          7           0        0.339840    1.203901   -0.279598
     11          6           0        1.054374    0.253720    0.560781
     12          6           0        2.351508   -0.178321   -0.118087
     13          8           0        3.177228    0.961612   -0.140824
     14          6           0        4.317992    0.821716   -0.977840
     15          8           0        2.966461   -1.293303    0.486812
     16          6           0        3.342960   -1.121257    1.850597
     17          1           0       -0.044598   -0.948622   -2.049160
     18          1           0        0.147340   -2.282102   -0.905615
     19          1           0       -0.985555   -2.435827   -2.258117
     20          1           0       -3.012647   -2.785172   -0.592088
     21          1           0       -3.289561    1.567677    2.023186
     22          1           0       -3.990326    2.068713    0.489800
     23          1           0       -4.840052    0.865736    1.505124
     24          1           0        0.811857    2.095913   -0.386969
     25          1           0        1.290350    0.699318    1.536756
     26          1           0        0.426338   -0.618272    0.736555
     27          1           0        2.143181   -0.512208   -1.142968
     28          1           0        4.958152   -0.003664   -0.645966
     29          1           0        4.019691    0.642497   -2.021091
     30          1           0        4.869976    1.761927   -0.917363
     31          1           0        3.859197   -0.167161    2.003878
     32          1           0        2.476611   -1.174716    2.523288
     33          1           0        4.021836   -1.943479    2.087609
 ---------------------------------------------------------------------

 SCF Done:  E(UB3LYP) =  -781.484045051     A.U. after   33 cycles
 SCF Done:  E(UB3LYP) =  -781.484045051     a.u. after    1 cycles

 The electronic state is 2-A.
 Alpha  occ. eigenvalues --  -19.05163 -19.04585 -18.99971 -14.29206 -14.24606
 Alpha  occ. eigenvalues --  -14.23858 -10.18834 -10.18588 -10.13537 -10.12727
 Alpha  occ. eigenvalues --  -10.12402 -10.12374 -10.11192 -10.08929 -10.08302
 Alpha  occ. eigenvalues --  -10.07824  -0.99276  -0.95742  -0.94818  -0.92991
 Alpha  occ. eigenvalues --   -0.83474  -0.74953  -0.71479  -0.67844  -0.63217
 Alpha  occ. eigenvalues --   -0.62451  -0.61457  -0.60053  -0.55960  -0.51031
 Alpha  occ. eigenvalues --   -0.48667  -0.47157  -0.44222  -0.43336  -0.42207
 Alpha  occ. eigenvalues --   -0.41377  -0.39580  -0.37877  -0.37080  -0.35845
 Alpha  occ. eigenvalues --   -0.34969  -0.34621  -0.34415  -0.33363  -0.32650
 Alpha  occ. eigenvalues --   -0.32082  -0.31383  -0.30569  -0.30387  -0.30018
 Alpha  occ. eigenvalues --   -0.29323  -0.28232  -0.27881  -0.22738  -0.20717
 Alpha  occ. eigenvalues --   -0.20224  -0.19744  -0.18293  -0.16498  -0.16138
 Alpha  occ. eigenvalues --   -0.15605   0.03831
 Alpha virt. eigenvalues --    0.05554   0.06370   0.07082   0.07581   0.08119
 Alpha virt. eigenvalues --    0.08516   0.09339   0.09802   0.09992   0.10446
 Alpha virt. eigenvalues --    0.10670   0.11114   0.11623   0.12268   0.12507

  Beta  occ. eigenvalues --  -19.05154 -19.04580 -18.99962 -14.29162 -14.24605
  Beta  occ. eigenvalues --  -14.23854 -10.18824 -10.18580 -10.13536 -10.12692
  Beta  occ. eigenvalues --  -10.12364 -10.12364 -10.11191 -10.08881 -10.08298
  Beta  occ. eigenvalues --  -10.07823  -0.99262  -0.95713  -0.94799  -0.92978
  Beta  occ. eigenvalues --   -0.83466  -0.74915  -0.71450  -0.67819  -0.63181
  Beta  occ. eigenvalues --   -0.62399  -0.61404  -0.59999  -0.55921  -0.50977
  Beta  occ. eigenvalues --   -0.48627  -0.47132  -0.44188  -0.43296  -0.42158
  Beta  occ. eigenvalues --   -0.41358  -0.39553  -0.37849  -0.37050  -0.35817
  Beta  occ. eigenvalues --   -0.34933  -0.34584  -0.34381  -0.33340  -0.32619
  Beta  occ. eigenvalues --   -0.32052  -0.31351  -0.30545  -0.30364  -0.29990
  Beta  occ. eigenvalues --   -0.29285  -0.28208  -0.27843  -0.22701  -0.20697
  Beta  occ. eigenvalues --   -0.20201  -0.19728  -0.18278  -0.16487  -0.16121
  Beta  occ. eigenvalues --   -0.15586
  Beta virt. eigenvalues --    0.06028   0.06846   0.07118   0.07338   0.07729
  Beta virt. eigenvalues --    0.08597   0.08995   0.09850   0.09918   0.10495
  Beta virt. eigenvalues --    0.10680   0.10911   0.11404   0.11908   0.12339

 Mulliken charges and spin densities:
               1          2
     1  C    1.484249  -2.178448
     2  C   -0.187707   0.639400
     3  C    0.504660   0.049498
     4  C    0.049209  -0.135362
     5  N   -0.211136   0.147410
     6  N   -0.005776  -0.136254
     7  C   -0.491003  -0.113538
     8  C   -0.713536   0.117821
     9  O   -0.328543   0.006273
    10  N   -0.200514   0.081808
    11  C    0.187154  -0.455963
    12  C   -1.434532   0.524303
    13  O   -0.130527   0.024398
    14  C    0.894528  -1.099503
    15  O   -0.062815   0.063709
    16  C    0.716693  -0.960073
    17  H   -0.026092   0.218992
    18  H   -0.235485   0.443331
    19  H   -0.756177   0.950016
    20  H   -0.257521   0.606388
    21  H    0.116969   0.031628
    22  H    0.185243   0.004533
    23  H    0.140156  -0.002009
    24  H    0.247221   0.065063
    25  H    0.231870  -0.001566
    26  H    0.168311   0.080066
    27  H    0.469195  -0.206406
    28  H   -0.215531   0.371296
    29  H   -0.317154   0.445071
    30  H   -0.166715   0.310782
    31  H   -0.124318   0.288411
    32  H   -0.214546   0.336846
    33  H   -0.315831   0.482081
 Sum of Mulliken charges =  -1.00000   1.00000

 Dipole moment (field-independent basis, Debye):
    X=             -1.0380    Y=              4.4277    Z=              2.3706  Tot=              5.1285
 Quadrupole moment (field-independent basis, Debye-Ang):
   XX=           -179.5372   YY=           -153.1864   ZZ=           -132.3883
   XY=             -4.2875   XZ=             -6.3677   YZ=             -1.1195

 Summary of Natural Population Analysis:

                                       Natural Population
                Natural  -----------------------------------------------
    Atom  No    Charge         Core      Valence    Rydberg      Total
 -----------------------------------------------------------------------
      C    1   -0.30949      0.99963     2.30289    0.00697     3.30949
      C    2    0.10467      0.99952     1.88402    0.01179     2.89533
      C    3   -0.13098      0.99936     2.12153    0.01009     3.13098
      C    4    0.09569      0.99957     1.88989    0.01485     2.90431
      N    5   -0.16165      0.99970     2.64930    0.01266     3.66165
      N    6   -0.16623      0.99964     2.65346    0.01313     3.66623
      C    7   -0.30027      0.99963     2.29631    0.00433     3.30027
      C    8    0.34122      0.99962     1.63760    0.02156     2.65878
      O    9   -0.31829      0.99988     3.31317    0.00524     4.31829
      N   10   -0.32078      0.99968     2.81181    0.00929     3.82078
      C   11   -0.10826      0.99957     2.09812    0.01056     3.10826
      C   12    0.21799      0.99957     1.76299    0.01944     2.78201
      O   13   -0.30654      0.99987     3.29784    0.00883     4.30654
      C   14   -0.10125      0.99961     2.09243    0.00921     3.10125
      O   15   -0.30180      0.99988     3.29163    0.01028     4.30180
      C   16   -0.10674      0.99960     2.09754    0.00960     3.10674
      H   17    0.11309      0.00000     0.38530    0.00161     0.38691
      H   18    0.11344      0.00000     0.38479    0.00178     0.38656
      H   19    0.11406      0.00000     0.38375    0.00219     0.38594
      H   20    0.20422      0.00000     0.28814    0.00764     0.29578
      H   21    0.10349      0.00000     0.39560    0.00090     0.39651
      H   22    0.11415      0.00000     0.38488    0.00097     0.38585
      H   23    0.10509      0.00000     0.39405    0.00085     0.39491
      H   24    0.19492      0.00000     0.30242    0.00267     0.30508
      H   25    0.09545      0.00000     0.40297    0.00159     0.40455
      H   26    0.11050      0.00000     0.38802    0.00148     0.38950
      H   27    0.08185      0.00000     0.41564    0.00252     0.41815
      H   28    0.08783      0.00000     0.41058    0.00159     0.41217
      H   29    0.08226      0.00000     0.41628    0.00146     0.41774
      H   30    0.09074      0.00000     0.40822    0.00104     0.40926
      H   31    0.08717      0.00000     0.41134    0.00149     0.41283
      H   32    0.08089      0.00000     0.41776    0.00135     0.41911
      H   33    0.09356      0.00000     0.40517    0.00126     0.40644
 =======================================================================
   * Total *    0.00000     15.99432    44.79544    0.21024    61.00000

 Normal termination of Gaussian 16 at Fri Dec 11 00:50:53 2020.
