 Gaussian 16, Revision A.03,

 -----------------------------------------------------------
 # opt freq B3LYP/6-31G(d) empiricaldispersion=gd3bj scf=xqc
 -----------------------------------------------------------

 ------------------------------
 CID_147362080_JID_781_neutraal
 ------------------------------
 Symbolic Z-matrix:
 Charge =  0 Multiplicity = 1

 SCF Done:  E(RB3LYP) =  -388.161577136     A.U. after   22 cycles
 SCF Done:  E(RB3LYP) =  -388.184252836     A.U. after   16 cycles
 SCF Done:  E(RB3LYP) =  -388.198189345     A.U. after   15 cycles
 SCF Done:  E(RB3LYP) =  -388.204279237     A.U. after   14 cycles
 SCF Done:  E(RB3LYP) =  -388.206969459     A.U. after   14 cycles
 SCF Done:  E(RB3LYP) =  -388.207599467     A.U. after   13 cycles
 SCF Done:  E(RB3LYP) =  -388.207675605     A.U. after   12 cycles
 SCF Done:  E(RB3LYP) =  -388.207727818     A.U. after   12 cycles
 SCF Done:  E(RB3LYP) =  -388.207760254     A.U. after   12 cycles
 SCF Done:  E(RB3LYP) =  -388.207774067     A.U. after   11 cycles
 SCF Done:  E(RB3LYP) =  -388.207776052     A.U. after    9 cycles
 SCF Done:  E(RB3LYP) =  -388.207776257     A.U. after    8 cycles
 Optimization completed.
    -- Stationary point found.
 Normal termination of Gaussian 16 at Tue Dec  8 12:41:53 2020.

 --------------------------------------------------------------------
 #N Geom=AllCheck Guess=TCheck SCRF=Check GenChk RB3LYP/6-31G(d) Freq
 --------------------------------------------------------------------

 Structure from the checkpoint file:  "JID_781.chk"
 ------------------------------
 CID_147362080_JID_781_neutraal
 ------------------------------
 Charge =  0 Multiplicity = 1

 SCF Done:  E(RB3LYP) =  -388.207776257     A.U. after    1 cycles

  Exact polarizability: 124.502   1.218 101.896   4.268   3.981  65.858
 Approx polarizability: 193.552   1.677 162.635   7.763  11.740 105.308

                      1                      2                      3
                      A                      A                      A
 Frequencies --     87.8885               156.7150               219.4243
 Red. masses --      2.8958                 2.0877                 1.9050
 Frc consts  --      0.0132                 0.0302                 0.0540
 IR Inten    --      0.2443                 0.1832                 0.3181

                      4                      5                      6
                      A                      A                      A
 Frequencies --    224.9735               251.2354               365.3335
 Red. masses --      2.2163                 1.5149                 2.4762
 Frc consts  --      0.0661                 0.0563                 0.1947
 IR Inten    --      1.4683                 0.4663                12.4673

                      7                      8                      9
                      A                      A                      A
 Frequencies --    397.1862               429.4700               438.5995
 Red. masses --      2.4644                 2.9055                 2.7708
 Frc consts  --      0.2291                 0.3157                 0.3140
 IR Inten    --      3.6000                 0.9109                 2.5590

                     10                     11                     12
                      A                      A                      A
 Frequencies --    484.1951               547.9568               579.9481
 Red. masses --      4.8571                 3.0475                 3.5614
 Frc consts  --      0.6709                 0.5391                 0.7057
 IR Inten    --     23.0053                 7.1857                 9.8335

                     13                     14                     15
                      A                      A                      A
 Frequencies --    604.7691               656.7258               742.1254
 Red. masses --      3.9476                 3.1864                 1.7497
 Frc consts  --      0.8507                 0.8097                 0.5678
 IR Inten    --      9.1651                31.9775                50.7277

                     16                     17                     18
                      A                      A                      A
 Frequencies --    797.3166               828.2548               857.5793
 Red. masses --      2.1136                 1.5072                 1.7634
 Frc consts  --      0.7916                 0.6092                 0.7641
 IR Inten    --      4.3577                 7.8329                 3.5323

                     19                     20                     21
                      A                      A                      A
 Frequencies --    867.6684               904.1794               946.7239
 Red. masses --      1.6234                 2.1863                 1.8420
 Frc consts  --      0.7201                 1.0531                 0.9727
 IR Inten    --      9.7109                 1.0236                 3.8905

                     22                     23                     24
                      A                      A                      A
 Frequencies --    972.6183               991.2710              1016.8617
 Red. masses --      1.5158                 2.2848                 2.1252
 Frc consts  --      0.8449                 1.3228                 1.2947
 IR Inten    --      1.6865                 1.5558                 1.3111

                     25                     26                     27
                      A                      A                      A
 Frequencies --   1067.6267              1083.0116              1099.0176
 Red. masses --      3.1572                 1.5722                 2.3374
 Frc consts  --      2.1203                 1.0865                 1.6634
 IR Inten    --      2.7103                 5.2406                 3.2246

                     28                     29                     30
                      A                      A                      A
 Frequencies --   1138.3841              1161.2964              1165.6738
 Red. masses --      1.8712                 1.7057                 2.0804
 Frc consts  --      1.4287                 1.3553                 1.6655
 IR Inten    --      5.0312                 5.5061                 2.3940

                     31                     32                     33
                      A                      A                      A
 Frequencies --   1178.4415              1230.9663              1242.6217
 Red. masses --      1.4466                 1.4604                 1.3286
 Frc consts  --      1.1836                 1.3038                 1.2087
 IR Inten    --      1.2952                 0.9474                 0.6424

                     34                     35                     36
                      A                      A                      A
 Frequencies --   1276.2314              1298.2369              1315.2532
 Red. masses --      1.4169                 1.4504                 1.4765
 Frc consts  --      1.3597                 1.4403                 1.5049
 IR Inten    --      0.2720                 0.8970                12.9249

                     37                     38                     39
                      A                      A                      A
 Frequencies --   1330.2835              1340.9049              1366.4271
 Red. masses --      1.3946                 1.3976                 1.4511
 Frc consts  --      1.4540                 1.4806                 1.5963
 IR Inten    --      5.8326                 8.7710                 3.8904

                     40                     41                     42
                      A                      A                      A
 Frequencies --   1401.0927              1438.6868              1441.5648
 Red. masses --      1.5122                 2.3435                 1.3959
 Frc consts  --      1.7490                 2.8579                 1.7091
 IR Inten    --      4.0938                18.1142                 6.5902

                     43                     44                     45
                      A                      A                      A
 Frequencies --   1500.4276              1524.9944              1527.6035
 Red. masses --      1.0796                 1.0594                 1.0601
 Frc consts  --      1.4320                 1.4516                 1.4575
 IR Inten    --      2.7038                 1.4603                 2.4438

                     46                     47                     48
                      A                      A                      A
 Frequencies --   1530.8868              1659.9962              1825.0301
 Red. masses --      1.0714                 8.2715                 9.9743
 Frc consts  --      1.4794                13.4292                19.5736
 IR Inten    --      6.9594                 9.8526                 1.0912

                     49                     50                     51
                      A                      A                      A
 Frequencies --   2960.0611              3014.7499              3039.8975
 Red. masses --      1.0797                 1.0830                 1.0486
 Frc consts  --      5.5737                 5.7991                 5.7094
 IR Inten    --     13.7289                16.0822                20.2067

                     52                     53                     54
                      A                      A                      A
 Frequencies --   3041.3057              3045.4648              3080.5133
 Red. masses --      1.0595                 1.0600                 1.0964
 Frc consts  --      5.7742                 5.7925                 6.1300
 IR Inten    --      6.5588                56.9665                30.5943

                     55                     56                     57
                      A                      A                      A
 Frequencies --   3102.8753              3108.2021              3112.4870
 Red. masses --      1.1006                 1.1011                 1.1024
 Frc consts  --      6.2434                 6.2673                 6.2920
 IR Inten    --     12.0093                59.5169                33.6694

                     58                     59                     60
                      A                      A                      A
 Frequencies --   3158.1270              3169.8524              3180.6371
 Red. masses --      1.0895                 1.0884                 1.0927
 Frc consts  --      6.4023                 6.4432                 6.5131
 IR Inten    --     28.6904                19.5679                33.7212

 - Thermochemistry -
 -------------------
 Temperature   298.150 Kelvin.  Pressure   1.00000 Atm.
 Atom     1 has atomic number  6 and mass  12.00000

 Molecular mass:   132.09390 amu.
 Principal axes and moments of inertia in atomic units:
                           1         2         3
     Eigenvalues --   749.415601473.212092113.06907
           X            0.99929   0.03754   0.00154
           Y           -0.03754   0.99929  -0.00166
           Z           -0.00160   0.00160   1.00000
 This molecule is an asymmetric top.
 Rotational symmetry number  1.
 Warning -- assumption of classical behavior for rotation
           may cause significant error
 Rotational temperatures (Kelvin)      0.11558     0.05879     0.04099
 Rotational constants (GHZ):           2.40820     1.22504     0.85409
 Zero-point vibrational energy     499607.5 (Joules/Mol)
                                  119.40906 (Kcal/Mol)
 Warning -- explicit consideration of  13 degrees of freedom as
           vibrations may cause significant error
 Vibrational temperatures:    126.45   225.48   315.70   323.69   361.47
          (Kelvin)            525.63   571.46   617.91   631.05   696.65
                              788.39   834.42   870.13   944.88  1067.75
                             1147.16  1191.67  1233.87  1248.38  1300.91
                             1362.12  1399.38  1426.22  1463.04  1536.08
                             1558.21  1581.24  1637.88  1670.85  1677.14
                             1695.51  1771.09  1787.86  1836.21  1867.87
                             1892.36  1913.98  1929.26  1965.98  2015.86
                             2069.95  2074.09  2158.78  2194.13  2197.88
                             2202.60  2388.36  2625.81  4258.87  4337.55
                             4373.73  4375.76  4381.74  4432.17  4464.35
                             4472.01  4478.17  4543.84  4560.71  4576.23

 Zero-point correction=                           0.190290 (Hartree/Particle)
 Thermal correction to Energy=                    0.199024
 Thermal correction to Enthalpy=                  0.199969
 Thermal correction to Gibbs Free Energy=         0.157102
 Sum of electronic and zero-point Energies=           -388.017486
 Sum of electronic and thermal Energies=              -388.008752
 Sum of electronic and thermal Enthalpies=            -388.007808
 Sum of electronic and thermal Free Energies=         -388.050675

                     E (Thermal)             CV                S
                      KCal/Mol        Cal/Mol-Kelvin    Cal/Mol-Kelvin
 Total                  124.890             35.290             90.221
 Electronic               0.000              0.000              0.000
 Translational            0.889              2.981             40.548
 Rotational               0.889              2.981             29.235
 Vibrational            123.112             29.329             20.438
 Vibration     1          0.601              1.958              3.707
 Vibration     2          0.620              1.895              2.589
 Vibration     3          0.647              1.811              1.964
 Vibration     4          0.650              1.803              1.919
 Vibration     5          0.663              1.761              1.722
 Vibration     6          0.739              1.544              1.099
 Vibration     7          0.764              1.476              0.973
 Vibration     8          0.791              1.406              0.860
 Vibration     9          0.799              1.386              0.831
 Vibration    10          0.840              1.285              0.699
 Vibration    11          0.903              1.144              0.548
 Vibration    12          0.937              1.075              0.485
 Vibration    13          0.963              1.022              0.442

 Optimization completed.
    -- Stationary point found.
 Normal termination of Gaussian 16 at Tue Dec  8 12:51:44 2020.

 ----------------------------------------------------------------------
 # B3LYP/6-311++G(d,p) empiricaldispersion=gd3bj scf=xqc pop=npa geom=c
 heck
 ----------------------------------------------------------------------

 --------------------------------------
 CID_147362080_JID_781_Energie_neutraal
 --------------------------------------
 Structure from the checkpoint file:  "JID_781.chk"
 Charge =  0 Multiplicity = 1

 SCF Done:  E(RB3LYP) =  -388.310299684     A.U. after   15 cycles
 Normal termination of Gaussian 16 at Tue Dec  8 13:04:05 2020.

 ----------------------------------------------------------------------
 # B3LYP/6-311++G(d,p) empiricaldispersion=gd3bj scf=xqc pop=npa geom=c
 heck
 ----------------------------------------------------------------------

 ------------------------------------
 CID_147362080_JID_781_Energie_kation
 ------------------------------------
 Structure from the checkpoint file:  "JID_781.chk"
 Charge =  1 Multiplicity = 2

 SCF Done:  E(UB3LYP) =  -388.029254572     A.U. after   22 cycles
 Normal termination of Gaussian 16 at Tue Dec  8 13:10:10 2020.
 Gaussian 16:  ES64L-G16RevA.03 25-Dec-2016

 ----------------------------------------------------------------------
 # B3LYP/6-311++G(d,p) empiricaldispersion=gd3bj scf=xqc pop=npa geom=c
 heck
 ----------------------------------------------------------------------

 -----------------------------------
 CID_147362080_JID_781_Energie_anion
 -----------------------------------
 Structure from the checkpoint file:  "JID_781.chk"
 Charge = -1 Multiplicity = 2

                         Standard orientation:
 ---------------------------------------------------------------------
 Center     Atomic      Atomic             Coordinates (Angstroms)
 Number     Number       Type             X           Y           Z
 ---------------------------------------------------------------------
      1          6           0       -2.522704   -1.335179    0.179259
      2          6           0       -1.505023   -0.305378   -0.297682
      3          6           0       -1.831842    1.153028    0.084812
      4          6           0       -0.508280    1.926098   -0.127308
      5          6           0        0.580209    0.885948    0.035797
      6          6           0        1.913693    1.012641   -0.088467
      7          6           0        2.698357   -0.212744    0.221513
      8          6           0        2.058158   -1.337668   -0.100711
      9          6           0        0.763729   -1.577169   -0.294894
     10          6           0       -0.095677   -0.487080    0.299566
     11          1           0       -3.507985   -1.156390   -0.266350
     12          1           0       -2.633337   -1.294281    1.270153
     13          1           0       -2.214241   -2.352743   -0.086658
     14          1           0       -1.416478   -0.363710   -1.393221
     15          1           0       -2.666287    1.567425   -0.490157
     16          1           0       -2.120541    1.184146    1.144025
     17          1           0       -0.465133    2.339206   -1.143848
     18          1           0       -0.399506    2.774725    0.558150
     19          1           0        2.392182    1.970449   -0.280701
     20          1           0        3.587069   -0.152732    0.846512
     21          1           0        0.357683   -2.276712   -1.023846
     22          1           0       -0.217144   -0.574359    1.394621
 ---------------------------------------------------------------------

 SCF Done:  E(UB3LYP) =  -388.321333412     A.U. after   29 cycles

 The electronic state is 2-A.
 Alpha  occ. eigenvalues --  -10.04034 -10.03856 -10.03631 -10.03162 -10.01319
 Alpha  occ. eigenvalues --   -9.99655  -9.99417  -9.97066  -9.96842  -9.95464
 Alpha  occ. eigenvalues --   -0.70909  -0.64345  -0.61390  -0.55979  -0.53996
 Alpha  occ. eigenvalues --   -0.50413  -0.44216  -0.42052  -0.38073  -0.33904
 Alpha  occ. eigenvalues --   -0.32330  -0.30339  -0.29221  -0.28618  -0.27432
 Alpha  occ. eigenvalues --   -0.24735  -0.24139  -0.22923  -0.20909  -0.20541
 Alpha  occ. eigenvalues --   -0.19153  -0.18817  -0.15890  -0.11900  -0.05967
 Alpha  occ. eigenvalues --   -0.03060   0.05249
 Alpha virt. eigenvalues --    0.08418   0.09771   0.10570   0.11028   0.12299
 Alpha virt. eigenvalues --    0.12573   0.12787   0.13446   0.13930   0.14684
 Alpha virt. eigenvalues --    0.15698   0.16056   0.17195   0.18481   0.18861

  Beta  occ. eigenvalues --  -10.04032 -10.03850 -10.03591 -10.03171 -10.01284
  Beta  occ. eigenvalues --   -9.99437  -9.99354  -9.96832  -9.96584  -9.94843
  Beta  occ. eigenvalues --   -0.70671  -0.63876  -0.61181  -0.55660  -0.53394
  Beta  occ. eigenvalues --   -0.50125  -0.43884  -0.41867  -0.37566  -0.33640
  Beta  occ. eigenvalues --   -0.32082  -0.30196  -0.29100  -0.28350  -0.27009
  Beta  occ. eigenvalues --   -0.24267  -0.23990  -0.22485  -0.20707  -0.20391
  Beta  occ. eigenvalues --   -0.18771  -0.18513  -0.15585  -0.10985  -0.04964
  Beta  occ. eigenvalues --   -0.00447
  Beta virt. eigenvalues --    0.08334   0.09707   0.10390   0.10940   0.11852
  Beta virt. eigenvalues --    0.12254   0.12725   0.13151   0.13458   0.13955
  Beta virt. eigenvalues --    0.14673   0.15763   0.16065   0.17656   0.18722

 Mulliken charges and spin densities:
               1          2
     1  C   -0.686608  -0.001029
     2  C    0.266213  -0.075166
     3  C   -0.316445  -0.022984
     4  C   -0.816927  -0.014664
     5  C    0.490100   0.135310
     6  C   -0.190081  -0.091938
     7  C   -0.922218   0.605004
     8  C    0.558355  -0.110757
     9  C   -1.222797   0.466244
    10  C    0.716983  -0.161790
    11  H    0.103575   0.008288
    12  H    0.120999  -0.000450
    13  H    0.142338   0.002949
    14  H    0.159085  -0.000200
    15  H    0.063154   0.047931
    16  H    0.116999  -0.000790
    17  H    0.075593   0.065235
    18  H    0.128106  -0.002358
    19  H    0.064939   0.019800
    20  H    0.051567   0.014573
    21  H    0.024769   0.029672
    22  H    0.072302   0.087119
 Sum of Mulliken charges =  -1.00000   1.00000

 Dipole moment (field-independent basis, Debye):
    X=             -6.6680    Y=              3.1790    Z=              0.4270  Tot=              7.3993
 Quadrupole moment (field-independent basis, Debye-Ang):
   XX=            -93.1552   YY=            -81.9563   ZZ=            -70.9033
   XY=              9.1545   XZ=              1.7860   YZ=              0.6833

 Summary of Natural Population Analysis:

                                       Natural Population
                Natural  -----------------------------------------------
    Atom  No    Charge         Core      Valence    Rydberg      Total
 -----------------------------------------------------------------------
      C    1   -0.28073      0.99965     2.27653    0.00454     3.28073
      C    2   -0.10349      0.99958     2.09421    0.00970     3.10349
      C    3   -0.18290      0.99963     2.17534    0.00792     3.18290
      C    4   -0.20273      0.99960     2.19571    0.00741     3.20273
      C    5    0.04663      0.99951     1.94296    0.01089     2.95337
      C    6   -0.12701      0.99942     2.11663    0.01096     3.12701
      C    7   -0.14577      0.99945     2.13149    0.01483     3.14577
      C    8    0.15328      0.99913     1.83277    0.01481     2.84672
      C    9   -0.13575      0.99943     2.12393    0.01239     3.13575
      C   10   -0.11958      0.99954     2.10600    0.01404     3.11958
      H   11    0.08926      0.00000     0.40988    0.00086     0.41074
      H   12    0.09316      0.00000     0.40592    0.00092     0.40684
      H   13    0.10055      0.00000     0.39866    0.00079     0.39945
      H   14    0.08926      0.00000     0.40917    0.00157     0.41074
      H   15    0.08847      0.00000     0.41004    0.00149     0.41153
      H   16    0.08850      0.00000     0.41050    0.00100     0.41150
      H   17    0.09822      0.00000     0.40017    0.00160     0.40178
      H   18    0.09625      0.00000     0.40289    0.00086     0.40375
      H   19    0.08468      0.00000     0.41401    0.00131     0.41532
      H   20    0.08848      0.00000     0.41020    0.00132     0.41152
      H   21    0.08327      0.00000     0.41463    0.00210     0.41673
      H   22    0.09793      0.00000     0.39993    0.00213     0.40207
 =======================================================================
   * Total *    0.00000      9.99495    25.88159    0.12346    36.00000

 Normal termination of Gaussian 16 at Tue Dec  8 13:23:57 2020.
