 Gaussian 16, Revision A.03,

 -----------------------------------------------------------
 # opt freq B3LYP/6-31G(d) empiricaldispersion=gd3bj scf=xqc
 -----------------------------------------------------------

 ------------------------------
 CID_57269651_JID_1971_neutraal
 ------------------------------
 Symbolic Z-matrix:
 Charge =  0 Multiplicity = 1

 SCF Done:  E(RB3LYP) =  -532.710903253     A.U. after   15 cycles
 SCF Done:  E(RB3LYP) =  -532.714078861     A.U. after   13 cycles
 SCF Done:  E(RB3LYP) =  -532.714487033     A.U. after   12 cycles
 SCF Done:  E(RB3LYP) =  -532.714401536     A.U. after   12 cycles
 SCF Done:  E(RB3LYP) =  -532.714659782     A.U. after   11 cycles
 SCF Done:  E(RB3LYP) =  -532.714662143     A.U. after   10 cycles
 SCF Done:  E(RB3LYP) =  -532.714665958     A.U. after    9 cycles
 SCF Done:  E(RB3LYP) =  -532.714666467     A.U. after    8 cycles
 SCF Done:  E(RB3LYP) =  -532.714666651     A.U. after    9 cycles
 SCF Done:  E(RB3LYP) =  -532.714666758     A.U. after    7 cycles
 SCF Done:  E(RB3LYP) =  -532.714666772     A.U. after    7 cycles
 Optimization completed.
    -- Stationary point found.
 Normal termination of Gaussian 16 at Tue Dec  8 20:43:40 2020.

 --------------------------------------------------------------------
 #N Geom=AllCheck Guess=TCheck SCRF=Check GenChk RB3LYP/6-31G(d) Freq
 --------------------------------------------------------------------

 Structure from the checkpoint file:  "JID_1971.chk"
 ------------------------------
 CID_57269651_JID_1971_neutraal
 ------------------------------
 Charge =  0 Multiplicity = 1

 SCF Done:  E(RB3LYP) =  -532.714666772     A.U. after    1 cycles

  Exact polarizability: 113.024   6.841  82.969  -6.071   4.437  65.159
 Approx polarizability: 142.694  13.495 152.588  -8.588  21.197 100.671

                      1                      2                      3
                      A                      A                      A
 Frequencies --     32.3446                56.4738                68.4923
 Red. masses --      4.0701                 3.5854                 4.6055
 Frc consts  --      0.0025                 0.0067                 0.0127
 IR Inten    --      0.6640                 1.9874                 5.3217

                      4                      5                      6
                      A                      A                      A
 Frequencies --    142.9043               190.2915               212.8364
 Red. masses --      6.0600                 4.2449                 4.8777
 Frc consts  --      0.0729                 0.0906                 0.1302
 IR Inten    --      4.3388                 7.7731                 6.8005

                      7                      8                      9
                      A                      A                      A
 Frequencies --    238.1949               262.0589               300.1831
 Red. masses --      1.0562                 1.1335                 3.4849
 Frc consts  --      0.0353                 0.0459                 0.1850
 IR Inten    --      0.2220                 0.9336                 0.2448

                     10                     11                     12
                      A                      A                      A
 Frequencies --    375.2240               391.4312               421.9302
 Red. masses --      2.7933                 2.6061                 2.0540
 Frc consts  --      0.2317                 0.2353                 0.2154
 IR Inten    --      0.6375                 0.8109                 0.5223

                     13                     14                     15
                      A                      A                      A
 Frequencies --    517.2094               599.0069               664.0589
 Red. masses --      7.0223                 3.9941                 4.1428
 Frc consts  --      1.1068                 0.8444                 1.0764
 IR Inten    --      2.5788                17.2976                11.0502

                     16                     17                     18
                      A                      A                      A
 Frequencies --    695.2178               777.4301               844.4556
 Red. masses --      6.4561                 5.4305                 2.6870
 Frc consts  --      1.8385                 1.9338                 1.1289
 IR Inten    --     19.5841                12.4573                 1.2102

                     19                     20                     21
                      A                      A                      A
 Frequencies --    857.2029               907.7926               947.5648
 Red. masses --      1.6084                 1.5775                 1.1881
 Frc consts  --      0.6963                 0.7660                 0.6285
 IR Inten    --      6.7142                 0.9275                 3.2605

                     22                     23                     24
                      A                      A                      A
 Frequencies --    968.2125               972.7166               980.4256
 Red. masses --      2.2175                 4.9932                 2.1652
 Frc consts  --      1.2248                 2.7836                 1.2262
 IR Inten    --      2.7260                 3.4785                 3.7012

                     25                     26                     27
                      A                      A                      A
 Frequencies --    982.8700              1024.1100              1054.4849
 Red. masses --      3.3700                 9.9140                 2.7762
 Frc consts  --      1.9181                 6.1262                 1.8188
 IR Inten    --     12.2073                14.9123                68.0300

                     28                     29                     30
                      A                      A                      A
 Frequencies --   1140.5971              1148.5379              1166.6592
 Red. masses --      3.8117                 2.3470                 1.9192
 Frc consts  --      2.9217                 1.8241                 1.5391
 IR Inten    --     31.1990                 3.5154                38.1529

                     31                     32                     33
                      A                      A                      A
 Frequencies --   1204.5260              1250.5282              1275.5536
 Red. masses --      1.7538                 1.6040                 1.4404
 Frc consts  --      1.4992                 1.4779                 1.3808
 IR Inten    --      4.5903                12.8776                 0.9627

                     34                     35                     36
                      A                      A                      A
 Frequencies --   1321.7010              1367.2893              1388.9996
 Red. masses --      1.5306                 2.3059                 1.3686
 Frc consts  --      1.5753                 2.5398                 1.5557
 IR Inten    --      3.2460                29.9874                 1.6736

                     37                     38                     39
                      A                      A                      A
 Frequencies --   1394.7575              1433.6371              1452.6442
 Red. masses --      1.9435                 1.2672                 1.2318
 Frc consts  --      2.2276                 1.5345                 1.5315
 IR Inten    --     81.4866                 4.9211                 3.2343

                     40                     41                     42
                      A                      A                      A
 Frequencies --   1504.7848              1517.4583              1524.3702
 Red. masses --      1.1112                 1.0513                 1.0558
 Frc consts  --      1.4825                 1.4262                 1.4454
 IR Inten    --      6.2649                 2.0611                 5.7033

                     43                     44                     45
                      A                      A                      A
 Frequencies --   1534.9650              1539.3682              1540.9848
 Red. masses --      1.0588                 1.0763                 4.5530
 Frc consts  --      1.4699                 1.5026                 6.3701
 IR Inten    --      4.0241                11.9882                34.5952

                     46                     47                     48
                      A                      A                      A
 Frequencies --   1560.6987              1795.2067              3041.9339
 Red. masses --     11.2771                11.7175                 1.0373
 Frc consts  --     16.1840                22.2491                 5.6552
 IR Inten    --     16.1280               138.2927                29.7703

                     49                     50                     51
                      A                      A                      A
 Frequencies --   3045.7220              3048.2533              3068.8529
 Red. masses --      1.0712                 1.0459                 1.0606
 Frc consts  --      5.8546                 5.7256                 5.8849
 IR Inten    --      7.4090                14.6136                 8.0886

                     52                     53                     54
                      A                      A                      A
 Frequencies --   3108.3187              3112.8937              3115.1814
 Red. masses --      1.1021                 1.1021                 1.1028
 Frc consts  --      6.2739                 6.2920                 6.3054
 IR Inten    --     19.2088                31.7796                16.3008

                     55                     56                     57
                      A                      A                      A
 Frequencies --   3119.9533              3129.5431              3315.2632
 Red. masses --      1.1023                 1.1027                 1.1006
 Frc consts  --      6.3217                 6.3631                 7.1271
 IR Inten    --     52.5058                18.7561                 0.8914

 - Thermochemistry -
 -------------------
 Temperature   298.150 Kelvin.  Pressure   1.00000 Atm.
 Atom     1 has atomic number  6 and mass  12.00000

 Molecular mass:   154.07423 amu.
 Principal axes and moments of inertia in atomic units:
                           1         2         3
     Eigenvalues --   786.782242752.288753119.43557
           X            0.99983  -0.01816  -0.00410
           Y            0.01797   0.99894  -0.04231
           Z            0.00487   0.04223   0.99910
 This molecule is an asymmetric top.
 Rotational symmetry number  1.
 Warning -- assumption of classical behavior for rotation
           may cause significant error
 Rotational temperatures (Kelvin)      0.11009     0.03147     0.02777
 Rotational constants (GHZ):           2.29383     0.65572     0.57855
 Zero-point vibrational energy     446531.9 (Joules/Mol)
                                  106.72369 (Kcal/Mol)
 Warning -- explicit consideration of  14 degrees of freedom as
           vibrations may cause significant error
 Vibrational temperatures:     46.54    81.25    98.55   205.61   273.79
          (Kelvin)            306.22   342.71   377.04   431.90   539.86
                              563.18   607.06   744.15   861.84   955.43
                             1000.26  1118.55  1214.98  1233.32  1306.11
                             1363.33  1393.04  1399.52  1410.61  1414.13
                             1473.47  1517.17  1641.06  1652.49  1678.56
                             1733.04  1799.23  1835.24  1901.63  1967.22
                             1998.46  2006.74  2062.68  2090.03  2165.05
                             2183.28  2193.23  2208.47  2214.81  2217.13
                             2245.50  2582.90  4376.66  4382.11  4385.76
                             4415.39  4472.18  4478.76  4482.05  4488.92
                             4502.71  4769.92

 Zero-point correction=                           0.170075 (Hartree/Particle)
 Thermal correction to Energy=                    0.180838
 Thermal correction to Enthalpy=                  0.181783
 Thermal correction to Gibbs Free Energy=         0.132301
 Sum of electronic and zero-point Energies=           -532.544592
 Sum of electronic and thermal Energies=              -532.533828
 Sum of electronic and thermal Enthalpies=            -532.532884
 Sum of electronic and thermal Free Energies=         -532.582366

                     E (Thermal)             CV                S
                      KCal/Mol        Cal/Mol-Kelvin    Cal/Mol-Kelvin
 Total                  113.478             38.542            104.143
 Electronic               0.000              0.000              0.000
 Translational            0.889              2.981             41.006
 Rotational               0.889              2.981             30.292
 Vibrational            111.700             32.580             32.845
 Vibration     1          0.594              1.983              5.680
 Vibration     2          0.596              1.975              4.577
 Vibration     3          0.598              1.969              4.196
 Vibration     4          0.616              1.910              2.765
 Vibration     5          0.634              1.853              2.225
 Vibration     6          0.644              1.821              2.019
 Vibration     7          0.656              1.782              1.816
 Vibration     8          0.669              1.742              1.648
 Vibration     9          0.693              1.673              1.416
 Vibration    10          0.746              1.523              1.058
 Vibration    11          0.759              1.488              0.995
 Vibration    12          0.784              1.423              0.885
 Vibration    13          0.872              1.212              0.616
 Vibration    14          0.957              1.034              0.451

 Optimization completed.
    -- Stationary point found.
 Normal termination of Gaussian 16 at Tue Dec  8 20:48:07 2020.

 ----------------------------------------------------------------------
 # B3LYP/6-311++G(d,p) empiricaldispersion=gd3bj scf=xqc pop=npa geom=c
 heck
 ----------------------------------------------------------------------

 --------------------------------------
 CID_57269651_JID_1971_Energie_neutraal
 --------------------------------------
 Structure from the checkpoint file:  "JID_1971.chk"
 Charge =  0 Multiplicity = 1

 SCF Done:  E(RB3LYP) =  -532.864141649     A.U. after   14 cycles
 Normal termination of Gaussian 16 at Tue Dec  8 20:51:12 2020.

 ----------------------------------------------------------------------
 # B3LYP/6-311++G(d,p) empiricaldispersion=gd3bj scf=xqc pop=npa geom=c
 heck
 ----------------------------------------------------------------------

 ------------------------------------
 CID_57269651_JID_1971_Energie_kation
 ------------------------------------
 Structure from the checkpoint file:  "JID_1971.chk"
 Charge =  1 Multiplicity = 2

 SCF Done:  E(UB3LYP) =  -532.502339083     A.U. after   29 cycles
 Normal termination of Gaussian 16 at Tue Dec  8 20:57:11 2020.
 Gaussian 16:  ES64L-G16RevA.03 25-Dec-2016

 ----------------------------------------------------------------------
 # B3LYP/6-311++G(d,p) empiricaldispersion=gd3bj scf=xqc pop=npa geom=c
 heck
 ----------------------------------------------------------------------

 -----------------------------------
 CID_57269651_JID_1971_Energie_anion
 -----------------------------------
 Structure from the checkpoint file:  "JID_1971.chk"
 Charge = -1 Multiplicity = 2

                         Standard orientation:
 ---------------------------------------------------------------------
 Center     Atomic      Atomic             Coordinates (Angstroms)
 Number     Number       Type             X           Y           Z
 ---------------------------------------------------------------------
      1          6           0        1.780799   -0.988500    1.265016
      2          6           0        2.336696    0.009851    0.241782
      3          6           0        3.606394   -0.528669   -0.424217
      4          6           0        1.285348    0.360550   -0.839562
      5          6           0        0.066468    1.010785   -0.225902
      6          8           0        0.066710    2.129159    0.253757
      7          6           0       -1.175002    0.189560   -0.188223
      8          7           0       -1.361079   -1.016617   -0.640488
      9          7           0       -2.681591   -1.352860   -0.351372
     10          6           0       -3.179603   -0.317395    0.250949
     11          8           0       -2.300087    0.697667    0.395290
     12          1           0        1.442483   -1.907848    0.772402
     13          1           0        0.930135   -0.574057    1.818044
     14          1           0        2.549452   -1.258474    1.997341
     15          1           0        2.581394    0.944482    0.763406
     16          1           0        3.398512   -1.460701   -0.964388
     17          1           0        4.019790    0.190808   -1.140188
     18          1           0        4.377318   -0.741778    0.324792
     19          1           0        1.717703    1.083791   -1.540323
     20          1           0        1.002071   -0.539506   -1.393104
     21          1           0       -4.179759   -0.182091    0.633612
 ---------------------------------------------------------------------

 SCF Done:  E(UB3LYP) =  -532.891931269     A.U. after   24 cycles

 The electronic state is 2-A.
 Alpha  occ. eigenvalues --  -19.03713 -18.90848 -14.18511 -14.15774 -10.10124
 Alpha  occ. eigenvalues --  -10.07712 -10.05427 -10.04706 -10.04669 -10.03218
 Alpha  occ. eigenvalues --  -10.01844  -0.99486  -0.85402  -0.81738  -0.68242
 Alpha  occ. eigenvalues --   -0.66994  -0.57397  -0.56345  -0.50089  -0.48421
 Alpha  occ. eigenvalues --   -0.43744  -0.39637  -0.36341  -0.34099  -0.33717
 Alpha  occ. eigenvalues --   -0.31499  -0.30202  -0.29092  -0.27252  -0.26864
 Alpha  occ. eigenvalues --   -0.24437  -0.23468  -0.22961  -0.21202  -0.19830
 Alpha  occ. eigenvalues --   -0.19106  -0.18635  -0.17100  -0.12582  -0.12362
 Alpha  occ. eigenvalues --   -0.07683   0.04330
 Alpha virt. eigenvalues --    0.08377   0.09986   0.10539   0.11587   0.11854
 Alpha virt. eigenvalues --    0.13607   0.13880   0.14647   0.14998   0.15266
 Alpha virt. eigenvalues --    0.15536   0.16721   0.17672   0.18758   0.19887

  Beta  occ. eigenvalues --  -19.03413 -18.90138 -14.18650 -14.15358 -10.09914
  Beta  occ. eigenvalues --  -10.07569 -10.05036 -10.04677 -10.04649 -10.03213
  Beta  occ. eigenvalues --  -10.01885  -0.99046  -0.84139  -0.81332  -0.68066
  Beta  occ. eigenvalues --   -0.66595  -0.57120  -0.56261  -0.49603  -0.47828
  Beta  occ. eigenvalues --   -0.43601  -0.39157  -0.35954  -0.33900  -0.32587
  Beta  occ. eigenvalues --   -0.31249  -0.29968  -0.28699  -0.27059  -0.26813
  Beta  occ. eigenvalues --   -0.24239  -0.22925  -0.21711  -0.21070  -0.19697
  Beta  occ. eigenvalues --   -0.17866  -0.17037  -0.16533  -0.11970  -0.10477
  Beta  occ. eigenvalues --   -0.07045
  Beta virt. eigenvalues --    0.08332   0.09944   0.10482   0.11508   0.11630
  Beta virt. eigenvalues --    0.12260   0.13670   0.13856   0.14895   0.15082
  Beta virt. eigenvalues --    0.15490   0.15829   0.16685   0.18009   0.18811

 Mulliken charges and spin densities:
               1          2
     1  C   -0.740568   0.074510
     2  C    0.498724  -0.117316
     3  C   -0.579246  -0.036178
     4  C   -0.319970   0.032898
     5  C    0.001552   0.317098
     6  O   -0.428927   0.251248
     7  C   -0.500466   0.078556
     8  N   -0.169185   0.187032
     9  N   -0.111246  -0.076227
    10  C    0.092199   0.183169
    11  O   -0.032591   0.054034
    12  H    0.139200  -0.007687
    13  H    0.178311   0.001340
    14  H    0.099732   0.004084
    15  H    0.169542  -0.013107
    16  H    0.120169   0.004700
    17  H    0.104837   0.012292
    18  H    0.108650  -0.003589
    19  H    0.084206   0.066006
    20  H    0.155652  -0.000935
    21  H    0.129423  -0.011928
 Sum of Mulliken charges =  -1.00000   1.00000

 Dipole moment (field-independent basis, Debye):
    X=              2.7844    Y=             -1.3927    Z=              0.9807  Tot=              3.2641
 Quadrupole moment (field-independent basis, Debye-Ang):
   XX=            -84.2944   YY=            -92.0213   ZZ=            -73.2268
   XY=             -6.3329   XZ=             -3.1417   YZ=             -4.5771

 Summary of Natural Population Analysis:

                                       Natural Population
                Natural  -----------------------------------------------
    Atom  No    Charge         Core      Valence    Rydberg      Total
 -----------------------------------------------------------------------
      C    1   -0.28625      0.99965     2.28142    0.00518     3.28625
      C    2   -0.10336      0.99962     2.09718    0.00656     3.10336
      C    3   -0.28174      0.99966     2.27754    0.00454     3.28174
      C    4   -0.23121      0.99959     2.22036    0.01126     3.23121
      C    5    0.28936      0.99962     1.68943    0.02159     2.71064
      O    6   -0.22438      0.99988     3.21788    0.00663     4.22438
      C    7    0.23341      0.99956     1.74751    0.01951     2.76659
      N    8   -0.11859      0.99967     2.60521    0.01371     3.61859
      N    9   -0.20565      0.99972     2.69048    0.01544     3.70565
      C   10    0.19001      0.99968     1.79029    0.02002     2.80999
      O   11   -0.20960      0.99986     3.19871    0.01103     4.20960
      H   12    0.09895      0.00000     0.40000    0.00105     0.40105
      H   13    0.10733      0.00000     0.39194    0.00074     0.39267
      H   14    0.08647      0.00000     0.41264    0.00089     0.41353
      H   15    0.09255      0.00000     0.40505    0.00240     0.40745
      H   16    0.09321      0.00000     0.40579    0.00100     0.40679
      H   17    0.09492      0.00000     0.40425    0.00083     0.40508
      H   18    0.08994      0.00000     0.40913    0.00093     0.41006
      H   19    0.09972      0.00000     0.39832    0.00195     0.40028
      H   20    0.10593      0.00000     0.39288    0.00119     0.39407
      H   21    0.07899      0.00000     0.41984    0.00117     0.42101
 =======================================================================
   * Total *   -0.00000     10.99652    29.85586    0.14762    41.00000

 Normal termination of Gaussian 16 at Tue Dec  8 21:03:19 2020.
