 Gaussian 16, Revision A.03,

 -----------------------------------------------------------
 # opt freq B3LYP/6-31G(d) empiricaldispersion=gd3bj scf=xqc
 -----------------------------------------------------------

 ------------------------------
 CID_67479721_JID_2939_neutraal
 ------------------------------
 Symbolic Z-matrix:
 Charge =  0 Multiplicity = 1

 SCF Done:  E(RB3LYP) =  -520.093160997     A.U. after   15 cycles
 SCF Done:  E(RB3LYP) =  -520.096785450     A.U. after   14 cycles
 SCF Done:  E(RB3LYP) =  -520.097245138     A.U. after   12 cycles
 SCF Done:  E(RB3LYP) =  -520.097275137     A.U. after   12 cycles
 SCF Done:  E(RB3LYP) =  -520.097313407     A.U. after   12 cycles
 SCF Done:  E(RB3LYP) =  -520.097314402     A.U. after   11 cycles
 SCF Done:  E(RB3LYP) =  -520.097332007     A.U. after   10 cycles
 SCF Done:  E(RB3LYP) =  -520.097334061     A.U. after    9 cycles
 SCF Done:  E(RB3LYP) =  -520.097334957     A.U. after    9 cycles
 SCF Done:  E(RB3LYP) =  -520.097335669     A.U. after    9 cycles
 SCF Done:  E(RB3LYP) =  -520.097335810     A.U. after    8 cycles
 Optimization completed.
    -- Stationary point found.
 Normal termination of Gaussian 16 at Wed Dec  9 18:15:54 2020.

 --------------------------------------------------------------------
 #N Geom=AllCheck Guess=TCheck SCRF=Check GenChk RB3LYP/6-31G(d) Freq
 --------------------------------------------------------------------

 Structure from the checkpoint file:  "JID_2939.chk"
 ------------------------------
 CID_67479721_JID_2939_neutraal
 ------------------------------
 Charge =  0 Multiplicity = 1

 SCF Done:  E(RB3LYP) =  -520.097335810     A.U. after    1 cycles

  Exact polarizability: 128.800   0.665 123.070  -8.750  -1.052  82.358
 Approx polarizability: 173.720  -3.710 206.953 -21.051   3.719 124.922

                      1                      2                      3
                      A                      A                      A
 Frequencies --     32.9513                57.9055               109.6158
 Red. masses --      4.8015                 2.6753                 2.7361
 Frc consts  --      0.0031                 0.0053                 0.0194
 IR Inten    --      0.2819                 0.2079                 0.7450

                      4                      5                      6
                      A                      A                      A
 Frequencies --    114.9114               145.0882               173.0871
 Red. masses --      2.9589                 1.2165                 3.0988
 Frc consts  --      0.0230                 0.0151                 0.0547
 IR Inten    --      2.4352                 0.6736                 2.0490

                      7                      8                      9
                      A                      A                      A
 Frequencies --    233.0963               243.8361               261.9908
 Red. masses --      1.5730                 1.4535                 1.2042
 Frc consts  --      0.0504                 0.0509                 0.0487
 IR Inten    --      0.1798                 0.0465                 0.2198

                     10                     11                     12
                      A                      A                      A
 Frequencies --    285.9818               312.4676               337.9120
 Red. masses --      2.7985                 3.3617                 3.0362
 Frc consts  --      0.1349                 0.1934                 0.2043
 IR Inten    --      3.2206                 8.3865                 1.0875

                     13                     14                     15
                      A                      A                      A
 Frequencies --    407.8432               427.1946               455.3503
 Red. masses --      2.6647                 2.0915                 3.5530
 Frc consts  --      0.2612                 0.2249                 0.4340
 IR Inten    --      3.5926                 1.8010                 5.1008

                     16                     17                     18
                      A                      A                      A
 Frequencies --    477.5782               524.2167               534.6677
 Red. masses --      4.5808                 3.6678                 5.5353
 Frc consts  --      0.6156                 0.5938                 0.9323
 IR Inten    --     13.4706                14.4290                 1.4812

                     19                     20                     21
                      A                      A                      A
 Frequencies --    573.7039               676.1742               753.7026
 Red. masses --      4.5739                 4.6049                 2.0824
 Frc consts  --      0.8870                 1.2405                 0.6970
 IR Inten    --      6.5750                 2.6251                 9.0403

                     22                     23                     24
                      A                      A                      A
 Frequencies --    795.5107               838.7102               858.4169
 Red. masses --      1.7444                 2.8543                 4.0497
 Frc consts  --      0.6504                 1.1830                 1.7582
 IR Inten    --     15.7736                 2.1184                14.9183

                     25                     26                     27
                      A                      A                      A
 Frequencies --    885.0751               945.0903               963.0259
 Red. masses --      1.8432                 1.2104                 1.9862
 Frc consts  --      0.8507                 0.6370                 1.0853
 IR Inten    --      9.2839                 2.5068                 2.2963

                     28                     29                     30
                      A                      A                      A
 Frequencies --    966.1395               977.0732               982.0020
 Red. masses --      2.1159                 1.6306                 1.3266
 Frc consts  --      1.1637                 0.9172                 0.7537
 IR Inten    --      3.0724                 2.0693                 2.1440

                     31                     32                     33
                      A                      A                      A
 Frequencies --   1002.7916              1031.2059              1055.1813
 Red. masses --      2.5738                 2.2361                 1.5818
 Frc consts  --      1.5249                 1.4010                 1.0376
 IR Inten    --      2.3022                19.6765                 1.5636

                     34                     35                     36
                      A                      A                      A
 Frequencies --   1099.3790              1111.5666              1144.5150
 Red. masses --      1.9810                 1.6946                 2.3707
 Frc consts  --      1.4107                 1.2336                 1.8297
 IR Inten    --     25.2316                 1.9126                 2.6946

                     37                     38                     39
                      A                      A                      A
 Frequencies --   1173.1260              1206.4677              1235.3768
 Red. masses --      1.9980                 1.7723                 1.4931
 Frc consts  --      1.6201                 1.5199                 1.3426
 IR Inten    --      6.7201                10.0195                 7.2316

                     40                     41                     42
                      A                      A                      A
 Frequencies --   1255.9976              1294.3373              1326.5223
 Red. masses --      1.4359                 1.3840                 2.9160
 Frc consts  --      1.3346                 1.3661                 3.0232
 IR Inten    --      2.4288                 0.1558                 9.8801

                     43                     44                     45
                      A                      A                      A
 Frequencies --   1338.1397              1363.6193              1386.5167
 Red. masses --      1.2003                 1.7554                 1.3812
 Frc consts  --      1.2664                 1.9231                 1.5644
 IR Inten    --      3.9928                 1.8799                 3.8034

                     46                     47                     48
                      A                      A                      A
 Frequencies --   1409.9860              1428.7426              1431.5078
 Red. masses --      1.4058                 1.2744                 1.3671
 Frc consts  --      1.6466                 1.5327                 1.6506
 IR Inten    --      1.4479                 8.2912                 9.1232

                     49                     50                     51
                      A                      A                      A
 Frequencies --   1435.7711              1447.9905              1495.7219
 Red. masses --      1.4991                 1.2339                 1.0793
 Frc consts  --      1.8208                 1.5242                 1.4226
 IR Inten    --      5.3856                 5.7539                 9.2665

                     52                     53                     54
                      A                      A                      A
 Frequencies --   1498.3354              1508.7905              1521.2830
 Red. masses --      1.0486                 1.0751                 1.0581
 Frc consts  --      1.3871                 1.4419                 1.4428
 IR Inten    --      8.3074                 0.3187                 1.2036

                     55                     56                     57
                      A                      A                      A
 Frequencies --   1526.0770              1534.4005              1547.6797
 Red. masses --      1.0500                 1.0564                 1.0451
 Frc consts  --      1.4408                 1.4655                 1.4749
 IR Inten    --      3.6932                 1.3317                 9.9579

                     58                     59                     60
                      A                      A                      A
 Frequencies --   1633.6519              1698.3553              1765.9530
 Red. masses --      7.0970                 6.3946                12.1424
 Frc consts  --     11.1595                10.8672                22.3108
 IR Inten    --      2.0516                28.3826               136.7365

                     61                     62                     63
                      A                      A                      A
 Frequencies --   3031.6200              3036.4957              3041.1667
 Red. masses --      1.0579                 1.0386                 1.0433
 Frc consts  --      5.7284                 5.6419                 5.6849
 IR Inten    --     13.9166                28.1338                35.0243

                     64                     65                     66
                      A                      A                      A
 Frequencies --   3058.1629              3058.4645              3065.1100
 Red. masses --      1.0444                 1.0776                 1.0820
 Frc consts  --      5.7547                 5.9389                 5.9890
 IR Inten    --      6.2133                 1.9042                 5.8742

                     67                     68                     69
                      A                      A                      A
 Frequencies --   3079.8486              3100.8290              3107.2815
 Red. masses --      1.0995                 1.0995                 1.1001
 Frc consts  --      6.1447                 6.2286                 6.2578
 IR Inten    --     17.1035                13.7123                50.3541

                     70                     71                     72
                      A                      A                      A
 Frequencies --   3110.1439              3114.9433              3133.8357
 Red. masses --      1.0987                 1.1014                 1.0997
 Frc consts  --      6.2618                 6.2966                 6.3632
 IR Inten    --      9.2879                47.5792                28.2520

                     73                     74                     75
                      A                      A                      A
 Frequencies --   3169.0228              3179.6167              3207.0543
 Red. masses --      1.1026                 1.0867                 1.0971
 Frc consts  --      6.5238                 6.4728                 6.6484
 IR Inten    --      9.2930                 3.5334                42.0813

 - Thermochemistry -
 -------------------
 Temperature   298.150 Kelvin.  Pressure   1.00000 Atm.
 Atom     1 has atomic number  6 and mass  12.00000

 Molecular mass:   165.11536 amu.
 Principal axes and moments of inertia in atomic units:
                           1         2         3
     Eigenvalues --  1175.524312939.972023451.80315
           X            0.99990   0.01444  -0.00010
           Y           -0.01444   0.99951  -0.02785
           Z           -0.00030   0.02784   0.99961
 This molecule is an asymmetric top.
 Rotational symmetry number  1.
 Warning -- assumption of classical behavior for rotation
           may cause significant error
 Rotational temperatures (Kelvin)      0.07368     0.02946     0.02509
 Rotational constants (GHZ):           1.53526     0.61386     0.52284
 Zero-point vibrational energy     614598.8 (Joules/Mol)
                                  146.89265 (Kcal/Mol)
 Warning -- explicit consideration of  19 degrees of freedom as
           vibrations may cause significant error
 Vibrational temperatures:     47.41    83.31   157.71   165.33   208.75
          (Kelvin)            249.03   335.37   350.83   376.95   411.46
                              449.57   486.18   586.80   614.64   655.15
                              687.13   754.23   769.27   825.43   972.86
                             1084.41  1144.56  1206.72  1235.07  1273.43
                             1359.77  1385.58  1390.06  1405.79  1412.88
                             1442.79  1483.68  1518.17  1581.76  1599.30
                             1646.70  1687.87  1735.84  1777.43  1807.10
                             1862.26  1908.57  1925.28  1961.94  1994.89
                             2028.66  2055.64  2059.62  2065.75  2083.34
                             2152.01  2155.77  2170.81  2188.79  2195.68
                             2207.66  2226.77  2350.46  2443.55  2540.81
                             4361.82  4368.84  4375.56  4400.01  4400.45
                             4410.01  4431.22  4461.40  4470.69  4474.80
                             4481.71  4508.89  4559.52  4574.76  4614.24

 Zero-point correction=                           0.234088 (Hartree/Particle)
 Thermal correction to Energy=                    0.246694
 Thermal correction to Enthalpy=                  0.247638
 Thermal correction to Gibbs Free Energy=         0.194972
 Sum of electronic and zero-point Energies=           -519.863247
 Sum of electronic and thermal Energies=              -519.850642
 Sum of electronic and thermal Enthalpies=            -519.849698
 Sum of electronic and thermal Free Energies=         -519.902363

                     E (Thermal)             CV                S
                      KCal/Mol        Cal/Mol-Kelvin    Cal/Mol-Kelvin
 Total                  154.803             47.158            110.844
 Electronic               0.000              0.000              0.000
 Translational            0.889              2.981             41.213
 Rotational               0.889              2.981             30.857
 Vibrational            153.025             41.196             38.774
 Vibration     1          0.594              1.983              5.643
 Vibration     2          0.596              1.974              4.527
 Vibration     3          0.606              1.942              3.276
 Vibration     4          0.608              1.937              3.184
 Vibration     5          0.616              1.908              2.736
 Vibration     6          0.627              1.876              2.402
 Vibration     7          0.654              1.790              1.855
 Vibration     8          0.659              1.773              1.775
 Vibration     9          0.669              1.742              1.648
 Vibration    10          0.684              1.700              1.498
 Vibration    11          0.701              1.650              1.349
 Vibration    12          0.718              1.600              1.222
 Vibration    13          0.772              1.453              0.934
 Vibration    14          0.789              1.411              0.868
 Vibration    15          0.814              1.349              0.780
 Vibration    16          0.834              1.300              0.717
 Vibration    17          0.879              1.196              0.600
 Vibration    18          0.890              1.173              0.577
 Vibration    19          0.930              1.088              0.497

                           ! Non-Optimized Parameters !
 Normal termination of Gaussian 16 at Wed Dec  9 18:22:30 2020.

 ----------------------------------------------------------------------
 # B3LYP/6-311++G(d,p) empiricaldispersion=gd3bj scf=xqc pop=npa geom=c
 heck
 ----------------------------------------------------------------------

 --------------------------------------
 CID_67479721_JID_2939_Energie_neutraal
 --------------------------------------
 Structure from the checkpoint file:  "JID_2939.chk"
 Charge =  0 Multiplicity = 1

 SCF Done:  E(RB3LYP) =  -520.240629933     A.U. after   16 cycles
 Normal termination of Gaussian 16 at Wed Dec  9 18:26:29 2020.

 ----------------------------------------------------------------------
 # B3LYP/6-311++G(d,p) empiricaldispersion=gd3bj scf=xqc pop=npa geom=c
 heck
 ----------------------------------------------------------------------

 ------------------------------------
 CID_67479721_JID_2939_Energie_kation
 ------------------------------------
 Structure from the checkpoint file:  "JID_2939.chk"
 Charge =  1 Multiplicity = 2

 SCF Done:  E(UB3LYP) =  -519.922009920     A.U. after   28 cycles
 Normal termination of Gaussian 16 at Wed Dec  9 18:32:13 2020.
 Gaussian 16:  ES64L-G16RevA.03 25-Dec-2016

 ----------------------------------------------------------------------
 # B3LYP/6-311++G(d,p) empiricaldispersion=gd3bj scf=xqc pop=npa geom=c
 heck
 ----------------------------------------------------------------------

 -----------------------------------
 CID_67479721_JID_2939_Energie_anion
 -----------------------------------
 Structure from the checkpoint file:  "JID_2939.chk"
 Charge = -1 Multiplicity = 2

                         Standard orientation:
 ---------------------------------------------------------------------
 Center     Atomic      Atomic             Coordinates (Angstroms)
 Number     Number       Type             X           Y           Z
 ---------------------------------------------------------------------
      1          6           0       -2.684640   -1.844332    0.571467
      2          6           0       -2.061135   -0.531347    0.203151
      3          7           0       -2.684364    0.575403    0.436747
      4          6           0       -2.095160    1.796371    0.069025
      5          6           0       -0.860885    1.922567   -0.441454
      6          6           0        0.023831    0.730664   -0.636779
      7          6           0       -0.725501   -0.579771   -0.482739
      8          8           0       -0.264208   -1.645652   -0.868223
      9          6           0        1.202467    0.799214    0.390998
     10          6           0        2.268860   -0.303037    0.285954
     11          6           0        2.901716   -0.373671   -1.107932
     12          6           0        3.335310   -0.069483    1.365025
     13          1           0       -3.641578   -1.671833    1.066712
     14          1           0       -2.021162   -2.416659    1.230589
     15          1           0       -2.834293   -2.460931   -0.322076
     16          1           0       -2.727752    2.661224    0.246592
     17          1           0       -0.453782    2.905554   -0.666505
     18          1           0        0.462500    0.739936   -1.642017
     19          1           0        1.683474    1.777753    0.256330
     20          1           0        0.773447    0.803496    1.401211
     21          1           0        1.788654   -1.268626    0.482858
     22          1           0        3.307439    0.601652   -1.409022
     23          1           0        3.727516   -1.093810   -1.119511
     24          1           0        2.174069   -0.697060   -1.857648
     25          1           0        2.892057   -0.032679    2.367198
     26          1           0        4.081223   -0.871968    1.355952
     27          1           0        3.863225    0.878295    1.197609
 ---------------------------------------------------------------------

 SCF Done:  E(UB3LYP) =  -520.272889594     A.U. after   23 cycles

 The electronic state is 2-A.
 Alpha  occ. eigenvalues --  -18.91679 -14.11896 -10.05614 -10.05055 -10.04791
 Alpha  occ. eigenvalues --  -10.03903 -10.03332 -10.03014 -10.02693 -10.02290
 Alpha  occ. eigenvalues --  -10.01024 -10.00446  -0.85762  -0.75525  -0.69062
 Alpha  occ. eigenvalues --   -0.63921  -0.59475  -0.57099  -0.55198  -0.51782
 Alpha  occ. eigenvalues --   -0.44977  -0.43207  -0.42202  -0.35144  -0.33872
 Alpha  occ. eigenvalues --   -0.33069  -0.31552  -0.30084  -0.28576  -0.27913
 Alpha  occ. eigenvalues --   -0.27592  -0.26446  -0.25093  -0.24563  -0.24282
 Alpha  occ. eigenvalues --   -0.22379  -0.21566  -0.20965  -0.20287  -0.19116
 Alpha  occ. eigenvalues --   -0.18762  -0.18226  -0.11555  -0.08076  -0.05440
 Alpha  occ. eigenvalues --    0.03365
 Alpha virt. eigenvalues --    0.07953   0.09734   0.10120   0.10578   0.11297
 Alpha virt. eigenvalues --    0.12110   0.12516   0.12923   0.13673   0.14154
 Alpha virt. eigenvalues --    0.14788   0.14958   0.15365   0.16071   0.16402

  Beta  occ. eigenvalues --  -18.91155 -14.11468 -10.05364 -10.05046 -10.04787
  Beta  occ. eigenvalues --  -10.03901 -10.03206 -10.03051 -10.02749 -10.02036
  Beta  occ. eigenvalues --  -10.01044 -10.00175  -0.84821  -0.74748  -0.68968
  Beta  occ. eigenvalues --   -0.63606  -0.59103  -0.57082  -0.54896  -0.51487
  Beta  occ. eigenvalues --   -0.44527  -0.42812  -0.41678  -0.34994  -0.33732
  Beta  occ. eigenvalues --   -0.32878  -0.31399  -0.29903  -0.28071  -0.27571
  Beta  occ. eigenvalues --   -0.27343  -0.26184  -0.24883  -0.24386  -0.23992
  Beta  occ. eigenvalues --   -0.22194  -0.21138  -0.20714  -0.20054  -0.18767
  Beta  occ. eigenvalues --   -0.17101  -0.16606  -0.10997  -0.06307  -0.04903
  Beta virt. eigenvalues --    0.07809   0.09663   0.10052   0.10443   0.10569
  Beta virt. eigenvalues --    0.11285   0.12062   0.12459   0.12899   0.13640
  Beta virt. eigenvalues --    0.14105   0.14786   0.15016   0.15351   0.16042

 Mulliken charges and spin densities:
               1          2
     1  C   -0.544633  -0.003586
     2  C   -0.253988   0.167090
     3  N   -0.121842   0.222932
     4  C   -0.231984  -0.062289
     5  C   -0.295034   0.264574
     6  C    0.929659  -0.028233
     7  C   -0.478237   0.216765
     8  O   -0.380143   0.187536
     9  C   -0.610883  -0.099837
    10  C    0.397805   0.062482
    11  C   -0.689060  -0.008736
    12  C   -0.550809  -0.062696
    13  H    0.104436  -0.002091
    14  H    0.120514   0.005356
    15  H    0.132735   0.016676
    16  H    0.120548  -0.000609
    17  H    0.098952  -0.012747
    18  H    0.115223   0.046406
    19  H    0.086901   0.037465
    20  H    0.119521   0.013428
    21  H    0.200506  -0.013343
    22  H    0.113941  -0.001154
    23  H    0.097615   0.010190
    24  H    0.195468   0.006199
    25  H    0.119100   0.007713
    26  H    0.107531   0.015911
    27  H    0.096161   0.014597
 Sum of Mulliken charges =  -1.00000   1.00000

 Dipole moment (field-independent basis, Debye):
    X=              5.1910    Y=              1.1215    Z=              0.6712  Tot=              5.3530
 Quadrupole moment (field-independent basis, Debye-Ang):
   XX=           -107.8929   YY=            -92.2049   ZZ=            -85.2489
   XY=              2.2433   XZ=              2.0778   YZ=             -4.0408

 Summary of Natural Population Analysis:

                                       Natural Population
                Natural  -----------------------------------------------
    Atom  No    Charge         Core      Valence    Rydberg      Total
 -----------------------------------------------------------------------
      C    1   -0.30163      0.99964     2.29661    0.00538     3.30163
      C    2    0.13901      0.99956     1.84513    0.01630     2.86099
      N    3   -0.19713      0.99965     2.68126    0.01622     3.69713
      C    4   -0.02222      0.99951     2.00866    0.01406     3.02222
      C    5   -0.05427      0.99953     2.04532    0.00942     3.05427
      C    6   -0.17007      0.99955     2.15736    0.01316     3.17007
      C    7    0.28827      0.99959     1.68962    0.02252     2.71173
      O    8   -0.25919      0.99988     3.25295    0.00636     4.25919
      C    9   -0.15805      0.99960     2.14978    0.00867     3.15805
      C   10   -0.12270      0.99961     2.11522    0.00787     3.12270
      C   11   -0.28605      0.99965     2.28150    0.00490     3.28605
      C   12   -0.27962      0.99966     2.27555    0.00441     3.27962
      H   13    0.09450      0.00000     0.40235    0.00315     0.40550
      H   14    0.09888      0.00000     0.40007    0.00105     0.40112
      H   15    0.10297      0.00000     0.39597    0.00105     0.39703
      H   16    0.07818      0.00000     0.41993    0.00189     0.42182
      H   17    0.08367      0.00000     0.41498    0.00135     0.41633
      H   18    0.10828      0.00000     0.38998    0.00174     0.39172
      H   19    0.08547      0.00000     0.41233    0.00220     0.41453
      H   20    0.09741      0.00000     0.40147    0.00112     0.40259
      H   21    0.10632      0.00000     0.39190    0.00178     0.39368
      H   22    0.08778      0.00000     0.41115    0.00107     0.41222
      H   23    0.09040      0.00000     0.40877    0.00083     0.40960
      H   24    0.11163      0.00000     0.38732    0.00106     0.38837
      H   25    0.09615      0.00000     0.40308    0.00077     0.40385
      H   26    0.09192      0.00000     0.40725    0.00083     0.40808
      H   27    0.09010      0.00000     0.40881    0.00109     0.40990
 =======================================================================
   * Total *    0.00000     11.99544    32.85430    0.15026    45.00000

 Normal termination of Gaussian 16 at Wed Dec  9 18:36:58 2020.
