 Gaussian 16, Revision A.03,

 -----------------------------------------------------------
 # opt freq B3LYP/6-31G(d) empiricaldispersion=gd3bj scf=xqc
 -----------------------------------------------------------

 -------------------------------
 CID_137471261_JID_1538_neutraal
 -------------------------------
 Symbolic Z-matrix:
 Charge =  0 Multiplicity = 1

 SCF Done:  E(RB3LYP) =  -464.485754138     A.U. after   13 cycles
 SCF Done:  E(RB3LYP) =  -464.497630982     A.U. after   11 cycles
 SCF Done:  E(RB3LYP) =  -464.498994055     A.U. after   10 cycles
 SCF Done:  E(RB3LYP) =  -464.499526035     A.U. after   10 cycles
 SCF Done:  E(RB3LYP) =  -464.499592263     A.U. after   10 cycles
 SCF Done:  E(RB3LYP) =  -464.499780497     A.U. after   10 cycles
 SCF Done:  E(RB3LYP) =  -464.499815164     A.U. after    9 cycles
 SCF Done:  E(RB3LYP) =  -464.499817734     A.U. after    7 cycles
 SCF Done:  E(RB3LYP) =  -464.499818026     A.U. after    7 cycles
 SCF Done:  E(RB3LYP) =  -464.499818120     A.U. after    6 cycles
 Optimization completed.
    -- Stationary point found.

 1\1\GINC-NODE312\FOpt\RB3LYP\6-31G(d)\C9H20N2\VSC10255\08-Dec-2020\0\\
 # opt freq B3LYP/6-31G(d) empiricaldispersion=gd3bj scf=xqc\\CID_13747
 1261_JID_1538_neutraal\\0,1\C,1.0351056923,-0.0823128063,0.1089210411\
 C,0.1589684287,0.5554707916,1.1829190695\N,0.771543043,1.7554976243,1.
 721492033\C,0.847775907,2.9461650635,0.847423617\C,0.5921740012,3.8119
 025053,2.1258910077\C,-0.0005035512,2.516306501,2.7240219833\N,-0.0921
 777286,5.0860182323,2.1204827445\C,0.6154584717,6.0274412929,1.2667715
 696\C,-1.5572904429,5.1895996783,2.0189621399\C,-2.2160742837,4.483747

 Normal termination of Gaussian 16 at Tue Dec  8 20:19:19 2020.

 --------------------------------------------------------------------
 #N Geom=AllCheck Guess=TCheck SCRF=Check GenChk RB3LYP/6-31G(d) Freq
 --------------------------------------------------------------------

 Structure from the checkpoint file:  "JID_1538.chk"
 -------------------------------
 CID_137471261_JID_1538_neutraal
 -------------------------------
 Charge =  0 Multiplicity = 1

 SCF Done:  E(RB3LYP) =  -464.499818120     A.U. after    1 cycles

  Exact polarizability: 122.293  -0.611 105.262   0.549   0.923  96.529
 Approx polarizability: 148.833  -0.993 148.302   3.041   0.407 142.488

                      1                      2                      3
                      A                      A                      A
 Frequencies --     59.6732                79.8678                97.9399
 Red. masses --      3.0853                 2.6363                 2.1403
 Frc consts  --      0.0065                 0.0099                 0.0121
 IR Inten    --      0.1405                 0.3284                 0.3849

                      4                      5                      6
                      A                      A                      A
 Frequencies --    108.7189               185.4977               199.4708
 Red. masses --      2.1846                 2.5190                 1.2069
 Frc consts  --      0.0152                 0.0511                 0.0283
 IR Inten    --      0.1344                 0.5995                 0.6069

                      7                      8                      9
                      A                      A                      A
 Frequencies --    209.7655               219.0646               228.5505
 Red. masses --      2.6791                 1.1630                 1.4818
 Frc consts  --      0.0695                 0.0329                 0.0456
 IR Inten    --      0.2866                 0.1243                 0.4043

                     10                     11                     12
                      A                      A                      A
 Frequencies --    270.1929               274.0074               304.7707
 Red. masses --      1.3433                 1.2962                 2.1309
 Frc consts  --      0.0578                 0.0573                 0.1166
 IR Inten    --      0.9225                 0.9507                 0.3036

                     13                     14                     15
                      A                      A                      A
 Frequencies --    332.7709               375.6843               382.2166
 Red. masses --      2.4001                 2.4934                 2.8828
 Frc consts  --      0.1566                 0.2073                 0.2481
 IR Inten    --      0.0672                 4.6327                 0.7752

                     16                     17                     18
                      A                      A                      A
 Frequencies --    411.7312               470.9150               519.6029
 Red. masses --      1.9670                 2.6911                 3.1984
 Frc consts  --      0.1965                 0.3516                 0.5088
 IR Inten    --      2.6203                 1.5455                 9.8311

                     19                     20                     21
                      A                      A                      A
 Frequencies --    577.9104               605.2911               726.7179
 Red. masses --      3.1471                 2.3271                 2.7188
 Frc consts  --      0.6193                 0.5023                 0.8460
 IR Inten    --      4.1826                 3.1513                 7.5482

                     22                     23                     24
                      A                      A                      A
 Frequencies --    820.3958               824.0585               913.0339
 Red. masses --      2.2105                 1.1493                 1.2443
 Frc consts  --      0.8766                 0.4598                 0.6112
 IR Inten    --      3.6932                 0.3556                 2.2046

                     25                     26                     27
                      A                      A                      A
 Frequencies --    914.8584               931.9076               947.3115
 Red. masses --      2.2875                 1.2948                 2.2535
 Frc consts  --      1.1280                 0.6625                 1.1915
 IR Inten    --      5.8316                 0.1298                 3.5592

                     28                     29                     30
                      A                      A                      A
 Frequencies --    954.7403              1000.6715              1006.7881
 Red. masses --      1.3620                 2.6929                 3.6196
 Frc consts  --      0.7315                 1.5887                 2.1617
 IR Inten    --      0.0431                 1.0937                13.7851

                     31                     32                     33
                      A                      A                      A
 Frequencies --   1054.9065              1094.5954              1120.0434
 Red. masses --      3.0669                 2.1388                 1.5817
 Frc consts  --      2.0109                 1.5098                 1.1691
 IR Inten    --      7.1838                 7.5831                 9.6161

                     34                     35                     36
                      A                      A                      A
 Frequencies --   1128.5791              1137.5796              1141.8527
 Red. masses --      2.3881                 1.5060                 1.2809
 Frc consts  --      1.7921                 1.1483                 0.9840
 IR Inten    --     32.3279                 4.5898                 0.8511

                     37                     38                     39
                      A                      A                      A
 Frequencies --   1148.3533              1170.8012              1189.0036
 Red. masses --      1.9573                 1.4874                 2.2013
 Frc consts  --      1.5208                 1.2012                 1.8336
 IR Inten    --      8.3191                10.7938                34.3358

                     40                     41                     42
                      A                      A                      A
 Frequencies --   1199.4438              1217.3781              1237.9386
 Red. masses --      1.6175                 1.8002                 2.4500
 Frc consts  --      1.3711                 1.5719                 2.2121
 IR Inten    --      0.6263                18.5685                34.9139

                     43                     44                     45
                      A                      A                      A
 Frequencies --   1244.1436              1283.6089              1311.3081
 Red. masses --      1.9580                 1.3454                 1.3119
 Frc consts  --      1.7856                 1.3061                 1.3291
 IR Inten    --     10.1029                 0.8381                 2.5987

                     46                     47                     48
                      A                      A                      A
 Frequencies --   1319.5763              1330.7063              1360.6993
 Red. masses --      2.8614                 1.2329                 1.8296
 Frc consts  --      2.9356                 1.2863                 1.9959
 IR Inten    --     91.2892                 1.0997                28.2368

                     49                     50                     51
                      A                      A                      A
 Frequencies --   1373.2976              1410.2728              1422.5790
 Red. masses --      1.3141                 1.3108                 1.2427
 Frc consts  --      1.4602                 1.5360                 1.4817
 IR Inten    --      5.0596                16.6167                11.6665

                     52                     53                     54
                      A                      A                      A
 Frequencies --   1424.4236              1441.7635              1442.7835
 Red. masses --      1.2342                 1.3005                 1.2862
 Frc consts  --      1.4755                 1.5928                 1.5775
 IR Inten    --      6.4694                31.3733                 3.0306

                     55                     56                     57
                      A                      A                      A
 Frequencies --   1453.6514              1496.5984              1513.3033
 Red. masses --      1.3200                 1.1831                 1.0530
 Frc consts  --      1.6434                 1.5613                 1.4208
 IR Inten    --     22.4141                 6.5136                 3.4135

                     58                     59                     60
                      A                      A                      A
 Frequencies --   1518.8459              1519.8246              1522.8028
 Red. masses --      1.0646                 1.0470                 1.0574
 Frc consts  --      1.4470                 1.4248                 1.4446
 IR Inten    --      7.8064                 6.2132                 6.7430

                     61                     62                     63
                      A                      A                      A
 Frequencies --   1524.2719              1530.2486              1533.5505
 Red. masses --      1.0536                 1.0552                 1.0649
 Frc consts  --      1.4423                 1.4559                 1.4756
 IR Inten    --      1.7572                 5.3733                 0.1137

                     64                     65                     66
                      A                      A                      A
 Frequencies --   1540.6736              1543.7485              1545.9159
 Red. masses --      1.0738                 1.0648                 1.0615
 Frc consts  --      1.5017                 1.4951                 1.4946
 IR Inten    --      1.2773                 0.3241                 8.0179

                     67                     68                     69
                      A                      A                      A
 Frequencies --   1563.6697              2901.4197              2949.1870
 Red. masses --      1.1151                 1.0735                 1.0611
 Frc consts  --      1.6063                 5.3247                 5.4376
 IR Inten    --      8.3213                76.8464                66.4676

                     70                     71                     72
                      A                      A                      A
 Frequencies --   3006.0034              3025.3450              3035.0535
 Red. masses --      1.0630                 1.0644                 1.0831
 Frc consts  --      5.6592                 5.7399                 5.8783
 IR Inten    --     42.4688                40.9290                26.4880

                     73                     74                     75
                      A                      A                      A
 Frequencies --   3045.6796              3050.1866              3052.4478
 Red. masses --      1.0819                 1.0374                 1.0410
 Frc consts  --      5.9132                 5.6864                 5.7150
 IR Inten    --     28.1123                21.0612                19.6639

                     76                     77                     78
                      A                      A                      A
 Frequencies --   3056.2962              3060.0638              3066.3120
 Red. masses --      1.0801                 1.0404                 1.0706
 Frc consts  --      5.9445                 5.7401                 5.9309
 IR Inten    --     30.9394                37.7485                48.8376

                     79                     80                     81
                      A                      A                      A
 Frequencies --   3083.0437              3086.5004              3112.1225
 Red. masses --      1.1000                 1.1019                 1.1021
 Frc consts  --      6.1601                 6.1850                 6.2891
 IR Inten    --     46.8651                90.4294                 6.5098

                     82                     83                     84
                      A                      A                      A
 Frequencies --   3112.8339              3118.1384              3125.1144
 Red. masses --      1.1018                 1.1015                 1.0987
 Frc consts  --      6.2900                 6.3100                 6.3223
 IR Inten    --     58.2930                45.8622                25.1150

                     85                     86                     87
                      A                      A                      A
 Frequencies --   3131.0765              3131.8383              3147.6739
 Red. masses --      1.1032                 1.1010                 1.1009
 Frc consts  --      6.3721                 6.3627                 6.4265
 IR Inten    --     31.3456                30.5441                39.0031

 - Thermochemistry -
 -------------------
 Temperature   298.150 Kelvin.  Pressure   1.00000 Atm.
 Atom     1 has atomic number  6 and mass  12.00000

 Molecular mass:   156.16265 amu.
 Principal axes and moments of inertia in atomic units:
                           1         2         3
     Eigenvalues --   994.385312908.192823154.80102
           X            0.99999  -0.00258  -0.00450
           Y            0.00271   0.99960   0.02809
           Z            0.00443  -0.02810   0.99960
 This molecule is an asymmetric top.
 Rotational symmetry number  1.
 Warning -- assumption of classical behavior for rotation
           may cause significant error
 Rotational temperatures (Kelvin)      0.08710     0.02978     0.02745
 Rotational constants (GHZ):           1.81493     0.62057     0.57206
 Zero-point vibrational energy     755221.7 (Joules/Mol)
                                  180.50231 (Kcal/Mol)
 Warning -- explicit consideration of  20 degrees of freedom as
           vibrations may cause significant error
 Vibrational temperatures:     85.86   114.91   140.91   156.42   266.89
          (Kelvin)            286.99   301.81   315.19   328.83   388.75
                              394.24   438.50   478.78   540.53   549.92
                              592.39   677.54   747.59   831.48   870.88
                             1045.58  1180.37  1185.64  1313.65  1316.28
                             1340.81  1362.97  1373.66  1439.74  1448.54
                             1517.78  1574.88  1611.49  1623.77  1636.72
                             1642.87  1652.22  1684.52  1710.71  1725.73
                             1751.54  1781.12  1790.05  1846.83  1886.68
                             1898.58  1914.59  1957.74  1975.87  2029.07
                             2046.77  2049.43  2074.38  2075.84  2091.48
                             2153.27  2177.31  2185.28  2186.69  2190.97
                             2193.09  2201.69  2206.44  2216.69  2221.11
                             2224.23  2249.77  4174.50  4243.22  4324.97
                             4352.80  4366.77  4382.05  4388.54  4391.79
                             4397.33  4402.75  4411.74  4435.81  4440.79
                             4477.65  4478.67  4486.31  4496.34  4504.92
                             4506.02  4528.80

 Zero-point correction=                           0.287649 (Hartree/Particle)
 Thermal correction to Energy=                    0.300690
 Thermal correction to Enthalpy=                  0.301634
 Thermal correction to Gibbs Free Energy=         0.249059
 Sum of electronic and zero-point Energies=           -464.212169
 Sum of electronic and thermal Energies=              -464.199128
 Sum of electronic and thermal Enthalpies=            -464.198184
 Sum of electronic and thermal Free Energies=         -464.250759

                     E (Thermal)             CV                S
                      KCal/Mol        Cal/Mol-Kelvin    Cal/Mol-Kelvin
 Total                  188.686             49.038            110.653
 Electronic               0.000              0.000              0.000
 Translational            0.889              2.981             41.047
 Rotational               0.889              2.981             30.590
 Vibrational            186.908             43.076             39.016
 Vibration     1          0.597              1.974              4.468
 Vibration     2          0.600              1.963              3.894
 Vibration     3          0.603              1.951              3.495
 Vibration     4          0.606              1.942              3.292
 Vibration     5          0.632              1.860              2.272
 Vibration     6          0.638              1.841              2.138
 Vibration     7          0.642              1.826              2.046
 Vibration     8          0.647              1.812              1.967
 Vibration     9          0.651              1.797              1.890
 Vibration    10          0.674              1.728              1.595
 Vibration    11          0.676              1.721              1.571
 Vibration    12          0.696              1.665              1.391
 Vibration    13          0.715              1.610              1.247
 Vibration    14          0.747              1.522              1.056
 Vibration    15          0.752              1.508              1.030
 Vibration    16          0.776              1.445              0.921
 Vibration    17          0.828              1.315              0.735
 Vibration    18          0.875              1.207              0.611
 Vibration    19          0.934              1.079              0.489
 Vibration    20          0.964              1.021              0.441

 Optimization completed.
    -- Stationary point found.

 1\1\GINC-NODE312\Freq\RB3LYP\6-31G(d)\C9H20N2\VSC10255\08-Dec-2020\0\\
 #N Geom=AllCheck Guess=TCheck SCRF=Check GenChk RB3LYP/6-31G(d) Freq\\
 CID_137471261_JID_1538_neutraal\\0,1\C,1.0351056923,-0.0823128063,0.10
 89210411\C,0.1589684287,0.5554707916,1.1829190695\N,0.771543043,1.7554
 976243,1.721492033\C,0.847775907,2.9461650635,0.847423617\C,0.59217400
 12,3.8119025053,2.1258910077\C,-0.0005035512,2.516306501,2.7240219833\
 N,-0.0921777286,5.0860182323,2.1204827445\C,0.6154584717,6.0274412929,
 1.2667715696\C,-1.5572904429,5.1895996783,2.0189621399\C,-2.2160742837

 Normal termination of Gaussian 16 at Tue Dec  8 20:26:30 2020.

 ----------------------------------------------------------------------
 # B3LYP/6-311++G(d,p) empiricaldispersion=gd3bj scf=xqc pop=npa geom=c
 heck
 ----------------------------------------------------------------------

 ---------------------------------------
 CID_137471261_JID_1538_Energie_neutraal
 ---------------------------------------
 Structure from the checkpoint file:  "JID_1538.chk"
 Charge =  0 Multiplicity = 1

 SCF Done:  E(RB3LYP) =  -464.628692737     A.U. after   13 cycles
 Normal termination of Gaussian 16 at Tue Dec  8 20:29:55 2020.

 ----------------------------------------------------------------------
 # B3LYP/6-311++G(d,p) empiricaldispersion=gd3bj scf=xqc pop=npa geom=c
 heck
 ----------------------------------------------------------------------

 -------------------------------------
 CID_137471261_JID_1538_Energie_kation
 -------------------------------------
 Structure from the checkpoint file:  "JID_1538.chk"
 Charge =  1 Multiplicity = 2

 SCF Done:  E(UB3LYP) =  -464.354184929     A.U. after   19 cycles
 Normal termination of Gaussian 16 at Tue Dec  8 20:35:03 2020.
 Gaussian 16:  ES64L-G16RevA.03 25-Dec-2016

 ------------------------------------
 CID_137471261_JID_1538_Energie_anion
 ------------------------------------
 Structure from the checkpoint file:  "JID_1538.chk"
 Charge = -1 Multiplicity = 2

                         Standard orientation:
 ---------------------------------------------------------------------
 Center     Atomic      Atomic             Coordinates (Angstroms)
 Number     Number       Type             X           Y           Z
 ---------------------------------------------------------------------
      1          6           0       -3.930330    0.048756    0.598459
      2          6           0       -2.769507   -0.771027    0.043209
      3          7           0       -1.795859    0.074069   -0.622520
      4          6           0       -0.972396    0.973546    0.214347
      5          6           0        0.208660    0.693427   -0.773557
      6          6           0       -0.581545   -0.580192   -1.149145
      7          7           0        1.603911    0.695639   -0.392759
      8          6           0        1.972064    1.997691    0.141068
      9          6           0        2.222700   -0.429449    0.327568
     10          6           0        1.547212   -0.859189    1.644337
     11          6           0        2.487698   -1.622824   -0.600810
     12          1           0       -3.579021    0.768124    1.347313
     13          1           0       -4.671199   -0.599669    1.078563
     14          1           0       -4.420205    0.608846   -0.204499
     15          1           0       -2.301781   -1.357932    0.861653
     16          1           0       -3.141987   -1.496341   -0.691971
     17          1           0       -1.343792    2.000747    0.301218
     18          1           0       -0.783287    0.570092    1.221864
     19          1           0        0.105054    1.406683   -1.600273
     20          1           0       -0.297056   -1.453754   -0.546135
     21          1           0       -0.619056   -0.873275   -2.204804
     22          1           0        1.531567    2.221396    1.130967
     23          1           0        3.060961    2.071094    0.231947
     24          1           0        1.637794    2.781077   -0.549320
     25          1           0        3.212923   -0.045009    0.603413
     26          1           0        0.593577   -1.367451    1.472796
     27          1           0        2.197503   -1.553080    2.190086
     28          1           0        1.359219    0.003082    2.293219
     29          1           0        2.986010   -1.279996   -1.512353
     30          1           0        3.136109   -2.350727   -0.099054
     31          1           0        1.572966   -2.146302   -0.890533
 ---------------------------------------------------------------------

 SCF Done:  E(UB3LYP) =  -464.611322947     A.U. after   26 cycles

 The electronic state is 2-A.
 Alpha  occ. eigenvalues --  -14.20053 -14.19879 -10.10018 -10.09767 -10.09259
 Alpha  occ. eigenvalues --  -10.09196 -10.08336 -10.08198 -10.06030 -10.05400
 Alpha  occ. eigenvalues --  -10.05231  -0.85018  -0.81120  -0.68403  -0.66742
 Alpha  occ. eigenvalues --   -0.60034  -0.58635  -0.57590  -0.55363  -0.51641
 Alpha  occ. eigenvalues --   -0.46619  -0.44755  -0.39822  -0.38399  -0.36534
 Alpha  occ. eigenvalues --   -0.36037  -0.34122  -0.33275  -0.32537  -0.30780
 Alpha  occ. eigenvalues --   -0.29939  -0.29475  -0.29257  -0.28078  -0.27699
 Alpha  occ. eigenvalues --   -0.26538  -0.25149  -0.24351  -0.24092  -0.22819
 Alpha  occ. eigenvalues --   -0.22388  -0.21583  -0.12440  -0.10383   0.04663
 Alpha virt. eigenvalues --    0.06519   0.07219   0.07740   0.08748   0.08962
 Alpha virt. eigenvalues --    0.09656   0.10068   0.10284   0.11431   0.11531
 Alpha virt. eigenvalues --    0.11840   0.12727   0.12997   0.13488   0.14261

  Beta  occ. eigenvalues --  -14.20045 -14.19879 -10.10012 -10.09753 -10.09251
  Beta  occ. eigenvalues --  -10.09181 -10.08317 -10.08164 -10.06003 -10.05379
  Beta  occ. eigenvalues --  -10.05198  -0.85000  -0.81105  -0.68376  -0.66709
  Beta  occ. eigenvalues --   -0.59993  -0.58583  -0.57548  -0.55302  -0.51589
  Beta  occ. eigenvalues --   -0.46563  -0.44716  -0.39783  -0.38347  -0.36504
  Beta  occ. eigenvalues --   -0.36013  -0.34081  -0.33244  -0.32500  -0.30752
  Beta  occ. eigenvalues --   -0.29911  -0.29434  -0.29223  -0.28045  -0.27667
  Beta  occ. eigenvalues --   -0.26504  -0.25114  -0.24318  -0.24062  -0.22787
  Beta  occ. eigenvalues --   -0.22346  -0.21558  -0.12393  -0.10367
  Beta virt. eigenvalues --    0.06780   0.07447   0.07870   0.08224   0.09246
  Beta virt. eigenvalues --    0.09589   0.10050   0.10530   0.10686   0.11879
  Beta virt. eigenvalues --    0.11943   0.12209   0.13170   0.13336   0.13807

 Mulliken charges and spin densities:
               1          2
     1  C    0.504448  -1.041809
     2  C   -0.215224   0.106670
     3  N   -0.098328   0.136057
     4  C    0.140477  -0.534080
     5  C   -0.527921   0.143884
     6  C    0.352670  -0.677860
     7  N    0.190660   0.070632
     8  C    0.871168  -1.155839
     9  C   -1.611410   1.558006
    10  C    1.449061  -1.996811
    11  C    0.315842  -0.837182
    12  H   -0.340661   0.483161
    13  H   -0.370302   0.507845
    14  H    0.041228   0.095872
    15  H    0.108867  -0.019258
    16  H   -0.245353   0.390417
    17  H    0.032189   0.164342
    18  H    0.183987  -0.027071
    19  H    0.097714   0.058200
    20  H    0.150512  -0.049642
    21  H    0.042216   0.143404
    22  H   -0.245453   0.373885
    23  H   -0.376886   0.510735
    24  H   -0.149651   0.287586
    25  H   -0.278326   0.440230
    26  H   -0.100850   0.253180
    27  H   -0.336955   0.484098
    28  H   -0.219694   0.367902
    29  H   -0.033570   0.181773
    30  H   -0.220850   0.354935
    31  H   -0.109603   0.226739
 Sum of Mulliken charges =  -1.00000   1.00000

 Dipole moment (field-independent basis, Debye):
    X=             -1.0282    Y=             -0.3432    Z=             -3.2033  Tot=              3.3818
 Quadrupole moment (field-independent basis, Debye-Ang):
   XX=           -147.6614   YY=           -113.0582   ZZ=           -111.0902
   XY=             -1.5272   XZ=             -1.2678   YZ=              0.1123

 Summary of Natural Population Analysis:

                                       Natural Population
                Natural  -----------------------------------------------
    Atom  No    Charge         Core      Valence    Rydberg      Total
 -----------------------------------------------------------------------
      C    1   -0.28752      0.99966     2.28321    0.00464     3.28752
      C    2   -0.08076      0.99963     2.06984    0.01129     3.08076
      N    3   -0.28150      0.99972     2.76872    0.01306     3.78150
      C    4   -0.09339      0.99962     2.08256    0.01120     3.09339
      C    5   -0.00601      0.99956     1.99195    0.01451     3.00601
      C    6   -0.07944      0.99962     2.07079    0.00903     3.07944
      N    7   -0.28334      0.99969     2.76894    0.01471     3.78334
      C    8   -0.17385      0.99964     2.16543    0.00879     3.17385
      C    9   -0.00467      0.99959     1.99140    0.01367     3.00467
      C   10   -0.29709      0.99964     2.29085    0.00660     3.29709
      C   11   -0.28597      0.99964     2.27975    0.00659     3.28597
      H   12    0.09839      0.00000     0.40014    0.00146     0.40161
      H   13    0.09883      0.00000     0.39993    0.00124     0.40117
      H   14    0.09805      0.00000     0.40037    0.00158     0.40195
      H   15    0.07762      0.00000     0.42060    0.00178     0.42238
      H   16    0.09152      0.00000     0.40700    0.00148     0.40848
      H   17    0.09199      0.00000     0.40637    0.00165     0.40801
      H   18    0.08684      0.00000     0.41144    0.00172     0.41316
      H   19    0.09445      0.00000     0.40392    0.00163     0.40555
      H   20    0.08464      0.00000     0.41347    0.00189     0.41536
      H   21    0.09113      0.00000     0.40763    0.00124     0.40887
      H   22    0.08283      0.00000     0.41532    0.00186     0.41717
      H   23    0.09585      0.00000     0.40272    0.00143     0.40415
      H   24    0.09360      0.00000     0.40529    0.00111     0.40640
      H   25    0.09379      0.00000     0.40382    0.00240     0.40621
      H   26    0.09491      0.00000     0.40341    0.00169     0.40509
      H   27    0.10144      0.00000     0.39731    0.00125     0.39856
      H   28    0.10241      0.00000     0.39624    0.00135     0.39759
      H   29    0.10205      0.00000     0.39641    0.00154     0.39795
      H   30    0.09880      0.00000     0.40031    0.00088     0.40120
      H   31    0.09441      0.00000     0.40436    0.00123     0.40559
 =======================================================================
   * Total *    0.00000     10.99601    32.85950    0.14449    44.00000

 Normal termination of Gaussian 16 at Tue Dec  8 20:45:37 2020.
