 Gaussian 16, Revision A.03,

 -----------------------------------------------------------
 # opt freq B3LYP/6-31G(d) empiricaldispersion=gd3bj scf=xqc
 -----------------------------------------------------------

 ------------------------------
 CID_57901459_JID_8590_neutraal
 ------------------------------
 Symbolic Z-matrix:
 Charge =  0 Multiplicity = 1

 SCF Done:  E(RB3LYP) =  -826.614830403     A.U. after   15 cycles
 SCF Done:  E(RB3LYP) =  -826.618769332     A.U. after   13 cycles
 SCF Done:  E(RB3LYP) =  -826.617521631     A.U. after   14 cycles
 SCF Done:  E(RB3LYP) =  -826.619817434     A.U. after   12 cycles
 SCF Done:  E(RB3LYP) =  -826.621483482     A.U. after   14 cycles
 SCF Done:  E(RB3LYP) =  -826.622113433     A.U. after   12 cycles
 SCF Done:  E(RB3LYP) =  -826.622124420     A.U. after   11 cycles
 SCF Done:  E(RB3LYP) =  -826.622401329     A.U. after   11 cycles
 SCF Done:  E(RB3LYP) =  -826.622591565     A.U. after   11 cycles
 SCF Done:  E(RB3LYP) =  -826.622846836     A.U. after   13 cycles
 SCF Done:  E(RB3LYP) =  -826.625136976     A.U. after    8 cycles
 SCF Done:  E(RB3LYP) =  -826.625137143     A.U. after    7 cycles
 SCF Done:  E(RB3LYP) =  -826.625137258     A.U. after    7 cycles
 SCF Done:  E(RB3LYP) =  -826.625137332     A.U. after    7 cycles
 SCF Done:  E(RB3LYP) =  -826.625137359     A.U. after    6 cycles
 Optimization completed.
    -- Stationary point found.
 Normal termination of Gaussian 16 at Fri Dec 11 20:24:56 2020.

 --------------------------------------------------------------------
 #N Geom=AllCheck Guess=TCheck SCRF=Check GenChk RB3LYP/6-31G(d) Freq
 --------------------------------------------------------------------

 Structure from the checkpoint file:  "JID_8590.chk"
 ------------------------------
 CID_57901459_JID_8590_neutraal
 ------------------------------
 Charge =  0 Multiplicity = 1

 SCF Done:  E(RB3LYP) =  -826.625137359     A.U. after    1 cycles

  Exact polarizability: 185.127  18.976 156.000   7.559 -17.507 142.243
 Approx polarizability: 266.118  36.192 215.144   3.975 -48.024 229.293

                      1                      2                      3
                      A                      A                      A
 Frequencies --     20.5756                31.5502                49.3054
 Red. masses --      4.4015                 3.9549                 3.3942
 Frc consts  --      0.0011                 0.0023                 0.0049
 IR Inten    --      0.2174                 0.3362                 0.7179

                      4                      5                      6
                      A                      A                      A
 Frequencies --     54.5662                64.0191                67.9941
 Red. masses --      4.7162                 4.2375                 3.3101
 Frc consts  --      0.0083                 0.0102                 0.0090
 IR Inten    --      0.7485                 1.2358                 0.4644

                      7                      8                      9
                      A                      A                      A
 Frequencies --     77.7487                97.0178               123.5936
 Red. masses --      1.8380                 3.4246                 3.1608
 Frc consts  --      0.0065                 0.0190                 0.0284
 IR Inten    --      1.5024                 2.0780                 0.6528

                     10                     11                     12
                      A                      A                      A
 Frequencies --    127.2427               181.1421               227.1416
 Red. masses --      3.5597                 3.8641                 3.7229
 Frc consts  --      0.0340                 0.0747                 0.1132
 IR Inten    --      2.0939                 0.4161                 0.4129

                     13                     14                     15
                      A                      A                      A
 Frequencies --    230.6452               235.7910               236.4510
 Red. masses --      1.1550                 2.8589                 1.1647
 Frc consts  --      0.0362                 0.0936                 0.0384
 IR Inten    --      0.6859                 0.4176                 0.1705

                     16                     17                     18
                      A                      A                      A
 Frequencies --    279.0608               295.0242               314.7781
 Red. masses --      2.9976                 3.6186                 3.4608
 Frc consts  --      0.1375                 0.1856                 0.2020
 IR Inten    --      6.3730                 1.8168                 0.2859

                     19                     20                     21
                      A                      A                      A
 Frequencies --    341.0336               387.7007               391.0705
 Red. masses --      3.3391                 4.4820                 3.9445
 Frc consts  --      0.2288                 0.3969                 0.3554
 IR Inten    --      1.0776                 4.0545                10.0026

                     22                     23                     24
                      A                      A                      A
 Frequencies --    434.7739               473.4023               489.5265
 Red. masses --      3.5505                 3.1701                 2.4267
 Frc consts  --      0.3954                 0.4186                 0.3426
 IR Inten    --      6.8074                 2.4786                 1.5718

                     25                     26                     27
                      A                      A                      A
 Frequencies --    513.7398               547.2641               555.3148
 Red. masses --      2.9154                 2.7832                 1.7983
 Frc consts  --      0.4533                 0.4911                 0.3267
 IR Inten    --      7.9904                11.2925                82.2057

                     28                     29                     30
                      A                      A                      A
 Frequencies --    561.5596               611.5652               665.2634
 Red. masses --      3.0463                 4.0501                 4.1050
 Frc consts  --      0.5660                 0.8925                 1.0704
 IR Inten    --     18.4791                 5.5176                 6.9226

                     31                     32                     33
                      A                      A                      A
 Frequencies --    714.0802               725.5560               767.1404
 Red. masses --      3.3566                 3.4466                 1.0972
 Frc consts  --      1.0084                 1.0690                 0.3804
 IR Inten    --      3.3132                29.0104                 1.9595

                     34                     35                     36
                      A                      A                      A
 Frequencies --    770.8747               797.1941               810.5994
 Red. masses --      2.8592                 1.4803                 2.7169
 Frc consts  --      1.0011                 0.5543                 1.0518
 IR Inten    --     10.5792                36.8629                 2.9863

                     37                     38                     39
                      A                      A                      A
 Frequencies --    822.3766               855.3508               896.9888
 Red. masses --      1.4521                 2.8870                 1.3863
 Frc consts  --      0.5786                 1.2445                 0.6572
 IR Inten    --      1.9750                13.0377                 1.3091

                     40                     41                     42
                      A                      A                      A
 Frequencies --    898.8767               902.5281               920.3887
 Red. masses --      1.4950                 1.5625                 1.5262
 Frc consts  --      0.7117                 0.7499                 0.7617
 IR Inten    --     18.5247                10.1922                20.0941

                     43                     44                     45
                      A                      A                      A
 Frequencies --    929.7896               971.8813               982.3496
 Red. masses --      1.7884                 1.2573                 2.5701
 Frc consts  --      0.9109                 0.6997                 1.4613
 IR Inten    --     11.0783                 0.1643                24.6495

                     46                     47                     48
                      A                      A                      A
 Frequencies --   1004.6892              1015.2094              1022.4191
 Red. masses --      2.8512                 2.8747                 5.4312
 Frc consts  --      1.6957                 1.7456                 3.3451
 IR Inten    --     18.7249                 6.9682                 6.3697

                     49                     50                     51
                      A                      A                      A
 Frequencies --   1049.8217              1090.4749              1092.8574
 Red. masses --      2.7245                 3.0719                 1.9200
 Frc consts  --      1.7692                 2.1522                 1.3511
 IR Inten    --      1.6166                42.7222                18.4181

                     52                     53                     54
                      A                      A                      A
 Frequencies --   1105.0492              1115.3753              1128.1093
 Red. masses --      1.5349                 1.5632                 2.2416
 Frc consts  --      1.1043                 1.1458                 1.6808
 IR Inten    --     44.2562                11.1044                53.2601

                     55                     56                     57
                      A                      A                      A
 Frequencies --   1139.2967              1164.6475              1192.2726
 Red. masses --      2.1226                 3.4073                 1.1219
 Frc consts  --      1.6233                 2.7230                 0.9396
 IR Inten    --      3.2419                75.3681                18.9691

                     58                     59                     60
                      A                      A                      A
 Frequencies --   1215.5745              1222.6517              1274.2887
 Red. masses --      1.8813                 1.8587                 1.5205
 Frc consts  --      1.6378                 1.6371                 1.4547
 IR Inten    --     15.9602               101.0451               111.0461

                     61                     62                     63
                      A                      A                      A
 Frequencies --   1293.2489              1302.6409              1315.2417
 Red. masses --      1.2434                 2.0865                 1.3887
 Frc consts  --      1.2252                 2.0860                 1.4153
 IR Inten    --     12.5240                61.2617                25.0895

                     64                     65                     66
                      A                      A                      A
 Frequencies --   1335.3536              1344.9958              1347.3705
 Red. masses --      1.4469                 1.4244                 1.3789
 Frc consts  --      1.5201                 1.5182                 1.4749
 IR Inten    --      3.3985                72.9480                32.3732

                     67                     68                     69
                      A                      A                      A
 Frequencies --   1350.0260              1361.4173              1377.9506
 Red. masses --      1.3528                 1.1251                 2.8890
 Frc consts  --      1.4527                 1.2287                 3.2320
 IR Inten    --      5.5732                 1.3649                90.9668

                     70                     71                     72
                      A                      A                      A
 Frequencies --   1385.2203              1418.2212              1430.3984
 Red. masses --      2.5747                 1.3352                 1.3499
 Frc consts  --      2.9108                 1.5823                 1.6273
 IR Inten    --    118.1744                14.9855                30.5766

                     73                     74                     75
                      A                      A                      A
 Frequencies --   1433.4930              1437.1212              1441.5158
 Red. masses --      1.8240                 1.2972                 1.2575
 Frc consts  --      2.2083                 1.5785                 1.5396
 IR Inten    --     21.0927                22.8300                 0.8159

                     76                     77                     78
                      A                      A                      A
 Frequencies --   1451.9414              1506.3696              1511.2970
 Red. masses --      1.3102                 1.0946                 1.5084
 Frc consts  --      1.6274                 1.4635                 2.0299
 IR Inten    --      1.8450                 3.0594                15.9837

                     79                     80                     81
                      A                      A                      A
 Frequencies --   1512.5536              1522.3683              1525.9747
 Red. masses --      1.0846                 1.0733                 1.5619
 Frc consts  --      1.4620                 1.4656                 2.1429
 IR Inten    --     13.8418                 1.0576                16.3882

                     82                     83                     84
                      A                      A                      A
 Frequencies --   1530.5153              1530.8597              1532.2561
 Red. masses --      1.0520                 1.0406                 1.0762
 Frc consts  --      1.4519                 1.4368                 1.4887
 IR Inten    --      2.0053                 4.9409                 7.9281

                     85                     86                     87
                      A                      A                      A
 Frequencies --   1539.4329              1543.9701              1546.7215
 Red. masses --      1.0819                 1.1068                 2.4348
 Frc consts  --      1.5106                 1.5546                 3.4319
 IR Inten    --     24.0137                 5.0329                90.8330

                     88                     89                     90
                      A                      A                      A
 Frequencies --   1651.1672              1659.6546              1791.4151
 Red. masses --      6.4434                 5.6273                 8.2274
 Frc consts  --     10.3502                 9.1324                15.5563
 IR Inten    --     66.9334               176.4208               391.4724

                     91                     92                     93
                      A                      A                      A
 Frequencies --   3028.7576              3040.5143              3043.0823
 Red. masses --      1.0581                 1.0608                 1.0603
 Frc consts  --      5.7188                 5.7782                 5.7850
 IR Inten    --     37.0878                 3.0988                24.7727

                     94                     95                     96
                      A                      A                      A
 Frequencies --   3047.2361              3055.2339              3058.2348
 Red. masses --      1.0431                 1.0611                 1.0356
 Frc consts  --      5.7069                 5.8357                 5.7067
 IR Inten    --     49.8270                39.6722                25.0682

                     97                     98                     99
                      A                      A                      A
 Frequencies --   3078.4858              3080.4709              3096.6220
 Red. masses --      1.0987                 1.1022                 1.0611
 Frc consts  --      6.1346                 6.1623                 5.9949
 IR Inten    --      7.5755                56.5205                 7.8180

                    100                    101                    102
                      A                      A                      A
 Frequencies --   3104.4094              3107.3982              3117.0065
 Red. masses --      1.1010                 1.1085                 1.1037
 Frc consts  --      6.2519                 6.3062                 6.3180
 IR Inten    --      3.8364                23.7971                73.8752

                    103                    104                    105
                      A                      A                      A
 Frequencies --   3122.2420              3122.6739              3134.6037
 Red. masses --      1.1014                 1.1010                 1.1022
 Frc consts  --      6.3259                 6.3256                 6.3809
 IR Inten    --     38.5371                19.9400                 9.5236

                    106                    107                    108
                      A                      A                      A
 Frequencies --   3151.5860              3196.0739              3220.1832
 Red. masses --      1.1044                 1.0876                 1.0913
 Frc consts  --      6.4628                 6.5456                 6.6671
 IR Inten    --     35.1398                10.4613                 9.7862

                    109                    110                    111
                      A                      A                      A
 Frequencies --   3225.6290              3233.1420              3578.5397
 Red. masses --      1.0956                 1.0910                 1.0752
 Frc consts  --      6.7163                 6.7195                 8.1126
 IR Inten    --      6.8116                 4.0230                20.9246

 - Thermochemistry -
 -------------------
 Temperature   298.150 Kelvin.  Pressure   1.00000 Atm.
 Atom     1 has atomic number  6 and mass  12.00000

 Molecular mass:   251.15214 amu.
 Principal axes and moments of inertia in atomic units:
                           1         2         3
     Eigenvalues --  3984.967545988.298147914.51942
           X            0.99939  -0.03286   0.01216
           Y            0.03237   0.99871   0.03904
           Z           -0.01343  -0.03863   0.99916
 This molecule is an asymmetric top.
 Rotational symmetry number  1.
 Warning -- assumption of classical behavior for rotation
           may cause significant error
 Rotational temperatures (Kelvin)      0.02174     0.01446     0.01094
 Rotational constants (GHZ):           0.45289     0.30138     0.22803
 Zero-point vibrational energy     885580.0 (Joules/Mol)
                                  211.65870 (Kcal/Mol)
 Warning -- explicit consideration of  29 degrees of freedom as
           vibrations may cause significant error
 Vibrational temperatures:     29.60    45.39    70.94    78.51    92.11
          (Kelvin)             97.83   111.86   139.59   177.82   183.07
                              260.62   326.81   331.85   339.25   340.20
                              401.51   424.47   452.90   490.67   557.81
                              562.66   625.54   681.12   704.32   739.16
                              787.39   798.97   807.96   879.91   957.17
                             1027.40  1043.91  1103.74  1109.12  1146.98
                             1166.27  1183.22  1230.66  1290.57  1293.28
                             1298.54  1324.23  1337.76  1398.32  1413.38
                             1445.52  1460.66  1471.03  1510.46  1568.95
                             1572.38  1589.92  1604.78  1623.10  1639.19
                             1675.67  1715.41  1748.94  1759.12  1833.42
                             1860.70  1874.21  1892.34  1921.28  1935.15
                             1938.57  1942.39  1958.78  1982.56  1993.02
                             2040.50  2058.02  2062.48  2067.70  2074.02
                             2089.02  2167.33  2174.42  2176.23  2190.35
                             2195.54  2202.07  2202.57  2204.57  2214.90
                             2221.43  2225.39  2375.66  2387.87  2577.45
                             4357.71  4374.62  4378.32  4384.29  4395.80
                             4400.12  4429.25  4432.11  4455.35  4466.55
                             4470.85  4484.68  4492.21  4492.83  4510.00
                             4534.43  4598.44  4633.13  4640.96  4651.77
                             5148.72

 Zero-point correction=                           0.337300 (Hartree/Particle)
 Thermal correction to Energy=                    0.356359
 Thermal correction to Enthalpy=                  0.357303
 Thermal correction to Gibbs Free Energy=         0.287708
 Sum of electronic and zero-point Energies=           -826.287838
 Sum of electronic and thermal Energies=              -826.268779
 Sum of electronic and thermal Enthalpies=            -826.267834
 Sum of electronic and thermal Free Energies=         -826.337430

                     E (Thermal)             CV                S
                      KCal/Mol        Cal/Mol-Kelvin    Cal/Mol-Kelvin
 Total                  223.619             70.176            146.476
 Electronic               0.000              0.000              0.000
 Translational            0.889              2.981             42.463
 Rotational               0.889              2.981             33.601
 Vibrational            221.841             64.214             70.412
 Vibration     1          0.593              1.986              6.578
 Vibration     2          0.594              1.983              5.729
 Vibration     3          0.595              1.978              4.845
 Vibration     4          0.596              1.976              4.645
 Vibration     5          0.597              1.971              4.329
 Vibration     6          0.598              1.969              4.211
 Vibration     7          0.599              1.964              3.947
 Vibration     8          0.603              1.951              3.513
 Vibration     9          0.610              1.929              3.043
 Vibration    10          0.611              1.926              2.987
 Vibration    11          0.630              1.865              2.317
 Vibration    12          0.651              1.800              1.901
 Vibration    13          0.652              1.794              1.874
 Vibration    14          0.655              1.786              1.834
 Vibration    15          0.655              1.785              1.829
 Vibration    16          0.679              1.712              1.539
 Vibration    17          0.689              1.683              1.445
 Vibration    18          0.702              1.645              1.337
 Vibration    19          0.721              1.593              1.207
 Vibration    20          0.756              1.496              1.009
 Vibration    21          0.759              1.489              0.996
 Vibration    22          0.795              1.394              0.843
 Vibration    23          0.830              1.309              0.728
 Vibration    24          0.845              1.273              0.685
 Vibration    25          0.869              1.220              0.625
 Vibration    26          0.902              1.146              0.550
 Vibration    27          0.911              1.128              0.533
 Vibration    28          0.917              1.114              0.521
 Vibration    29          0.971              1.007              0.430

 Optimization completed.
    -- Stationary point found.
 Normal termination of Gaussian 16 at Fri Dec 11 20:43:16 2020.

 ----------------------------------------------------------------------
 # B3LYP/6-311++G(d,p) empiricaldispersion=gd3bj scf=xqc pop=npa geom=c
 heck
 ----------------------------------------------------------------------

 --------------------------------------
 CID_57901459_JID_8590_Energie_neutraal
 --------------------------------------
 Structure from the checkpoint file:  "JID_8590.chk"
 Charge =  0 Multiplicity = 1

 SCF Done:  E(RB3LYP) =  -826.861519156     A.U. after   16 cycles
 Normal termination of Gaussian 16 at Fri Dec 11 20:52:13 2020.

 ----------------------------------------------------------------------
 # B3LYP/6-311++G(d,p) empiricaldispersion=gd3bj scf=xqc pop=npa geom=c
 heck
 ----------------------------------------------------------------------

 ------------------------------------
 CID_57901459_JID_8590_Energie_kation
 ------------------------------------
 Structure from the checkpoint file:  "JID_8590.chk"
 Charge =  1 Multiplicity = 2

 SCF Done:  E(UB3LYP) =  -826.568572276     A.U. after   27 cycles
 Normal termination of Gaussian 16 at Fri Dec 11 21:14:11 2020.
 Gaussian 16:  ES64L-G16RevA.03 25-Dec-2016

 ----------------------------------------------------------------------
 # B3LYP/6-311++G(d,p) empiricaldispersion=gd3bj scf=xqc pop=npa geom=c
 heck
 ----------------------------------------------------------------------

 -----------------------------------
 CID_57901459_JID_8590_Energie_anion
 -----------------------------------
 Structure from the checkpoint file:  "JID_8590.chk"
 Charge = -1 Multiplicity = 2

                         Standard orientation:
 ---------------------------------------------------------------------
 Center     Atomic      Atomic             Coordinates (Angstroms)
 Number     Number       Type             X           Y           Z
 ---------------------------------------------------------------------
      1          6           0       -2.579610    3.129926    1.548738
      2          6           0       -2.980904    2.341233    0.299214
      3          6           0       -1.961932    1.254495   -0.030670
      4          8           0       -2.281756    0.551404   -1.232956
      5          6           0       -3.195491   -0.521212   -1.082087
      6          6           0       -2.518089   -1.885642   -1.040247
      7          8           0       -1.853726   -2.150533    0.197672
      8          6           0       -0.504393   -1.961410    0.309780
      9          6           0        0.112076   -2.620644    1.381818
     10          6           0        1.478272   -2.466779    1.587754
     11          6           0        2.247469   -1.669383    0.737948
     12          6           0        1.621257   -0.986151   -0.306758
     13          6           0        0.246548   -1.136128   -0.530876
     14          7           0        2.357424   -0.131717   -1.169410
     15          6           0        3.060144    1.021066   -0.861457
     16          8           0        3.543257    1.695156   -1.760022
     17          6           0        3.140070    1.445455    0.598145
     18          6           0        1.803858    2.025322    1.091990
     19          1           0       -2.512633    2.476126    2.426733
     20          1           0       -3.307347    3.916438    1.773131
     21          1           0       -1.601254    3.607732    1.416974
     22          1           0       -3.969733    1.886565    0.446123
     23          1           0       -3.067333    3.009177   -0.566254
     24          1           0       -0.979223    1.703684   -0.205763
     25          1           0       -1.855628    0.553160    0.808176
     26          1           0       -3.812411   -0.397553   -0.181854
     27          1           0       -3.866137   -0.504734   -1.951384
     28          1           0       -3.288507   -2.660875   -1.126054
     29          1           0       -1.823561   -1.996395   -1.880546
     30          1           0       -0.493649   -3.250285    2.024590
     31          1           0        1.957987   -2.995285    2.406447
     32          1           0        3.320665   -1.590293    0.868947
     33          1           0       -0.235781   -0.554873   -1.307159
     34          1           0        2.184862   -0.217856   -2.164579
     35          1           0        3.438705    0.614258    1.241755
     36          1           0        3.922636    2.206441    0.641339
     37          1           0        1.022334    1.260666    1.115980
     38          1           0        1.914492    2.427965    2.104131
     39          1           0        1.471682    2.838842    0.437838
 ---------------------------------------------------------------------

 SCF Done:  E(UB3LYP) =  -826.850500827     A.U. after   33 cycles
 SCF Done:  E(UB3LYP) =  -826.850500827     a.u. after    1 cycles

 The electronic state is 2-A.
 Alpha  occ. eigenvalues --  -19.05538 -19.02951 -18.99851 -14.24788 -10.18271
 Alpha  occ. eigenvalues --  -10.14006 -10.12846 -10.12335 -10.11880 -10.11550
 Alpha  occ. eigenvalues --  -10.09257 -10.08279 -10.08211 -10.07593 -10.07243
 Alpha  occ. eigenvalues --  -10.07208 -10.06993 -10.06844  -0.97172  -0.95013
 Alpha  occ. eigenvalues --   -0.93958  -0.83979  -0.75237  -0.69738  -0.69318
 Alpha  occ. eigenvalues --   -0.67327  -0.65251  -0.63443  -0.58717  -0.56912
 Alpha  occ. eigenvalues --   -0.54417  -0.53029  -0.50697  -0.49182  -0.47475
 Alpha  occ. eigenvalues --   -0.45224  -0.41579  -0.40620  -0.40075  -0.39472
 Alpha  occ. eigenvalues --   -0.38485  -0.37881  -0.37377  -0.35360  -0.34645
 Alpha  occ. eigenvalues --   -0.34339  -0.33842  -0.32799  -0.32313  -0.31862
 Alpha  occ. eigenvalues --   -0.30349  -0.29310  -0.28947  -0.28497  -0.27732
 Alpha  occ. eigenvalues --   -0.27146  -0.27066  -0.26542  -0.25992  -0.24997
 Alpha  occ. eigenvalues --   -0.24304  -0.23450  -0.21652  -0.19291  -0.16988
 Alpha  occ. eigenvalues --   -0.16643  -0.14800  -0.12881   0.04294
 Alpha virt. eigenvalues --    0.05910   0.06500   0.06574   0.07494   0.08191
 Alpha virt. eigenvalues --    0.08571   0.08693   0.09049   0.09331   0.09562
 Alpha virt. eigenvalues --    0.10348   0.10641   0.11090   0.11400   0.11595

  Beta  occ. eigenvalues --  -19.05540 -19.02943 -18.99822 -14.24806 -10.18232
  Beta  occ. eigenvalues --  -10.14017 -10.12813 -10.12309 -10.11879 -10.11389
  Beta  occ. eigenvalues --  -10.09259 -10.08246 -10.08205 -10.07602 -10.07225
  Beta  occ. eigenvalues --  -10.07183 -10.06964 -10.06729  -0.97167  -0.94953
  Beta  occ. eigenvalues --   -0.93938  -0.83878  -0.75131  -0.69706  -0.69299
  Beta  occ. eigenvalues --   -0.67270  -0.65093  -0.63344  -0.58665  -0.56872
  Beta  occ. eigenvalues --   -0.54341  -0.52857  -0.50628  -0.49118  -0.47396
  Beta  occ. eigenvalues --   -0.45165  -0.41527  -0.40582  -0.40007  -0.39420
  Beta  occ. eigenvalues --   -0.38439  -0.37843  -0.37304  -0.35326  -0.34592
  Beta  occ. eigenvalues --   -0.34297  -0.33787  -0.32765  -0.32247  -0.31790
  Beta  occ. eigenvalues --   -0.30260  -0.29271  -0.28823  -0.28444  -0.27694
  Beta  occ. eigenvalues --   -0.27111  -0.26975  -0.26500  -0.25939  -0.24964
  Beta  occ. eigenvalues --   -0.24191  -0.23347  -0.21610  -0.19030  -0.16953
  Beta  occ. eigenvalues --   -0.16592  -0.14507  -0.12555
  Beta virt. eigenvalues --    0.06170   0.06799   0.06966   0.07524   0.07762
  Beta virt. eigenvalues --    0.08453   0.08791   0.08917   0.09270   0.09696
  Beta virt. eigenvalues --    0.09931   0.10578   0.10976   0.11203   0.11629

 Mulliken charges and spin densities:
               1          2
     1  C    0.090613  -0.681056
     2  C   -0.496315   0.373716
     3  C    0.134383  -0.502935
     4  O   -0.077198   0.030601
     5  C    0.684132  -0.838902
     6  C    0.256296  -0.650075
     7  O   -0.001061  -0.015947
     8  C   -1.444903   0.774632
     9  C   -0.941996   0.700844
    10  C   -0.136396   0.023740
    11  C    0.338628  -0.531582
    12  C    1.226413  -0.723570
    13  C    0.443021  -0.295768
    14  N   -0.150644  -0.016120
    15  C   -0.202477   0.002669
    16  O   -0.334065   0.020009
    17  C    0.063318  -0.143293
    18  C   -0.429189   0.007027
    19  H   -0.135110   0.273936
    20  H   -0.485485   0.643899
    21  H    0.050927   0.073587
    22  H   -0.101393   0.216919
    23  H   -0.039434   0.199109
    24  H    0.364633  -0.205806
    25  H    0.269946  -0.129469
    26  H    0.050080   0.105962
    27  H   -0.377023   0.546216
    28  H   -0.788085   0.977957
    29  H   -0.081006   0.268315
    30  H   -0.014697   0.164099
    31  H    0.089372   0.066421
    32  H    0.104992   0.031723
    33  H    0.337822  -0.070870
    34  H    0.115897   0.188052
    35  H    0.136869  -0.020730
    36  H    0.178269   0.015417
    37  H    0.093681   0.032640
    38  H    0.098573   0.036793
    39  H    0.108609   0.051839
 Sum of Mulliken charges =  -1.00000   1.00000

 Dipole moment (field-independent basis, Debye):
    X=              6.2291    Y=             -0.9346    Z=              3.0561  Tot=              7.0010
 Quadrupole moment (field-independent basis, Debye-Ang):
   XX=           -190.2732   YY=           -164.9044   ZZ=           -148.1447
   XY=             -3.9408   XZ=              9.4050   YZ=             -3.4208

 Summary of Natural Population Analysis:

                                       Natural Population
                Natural  -----------------------------------------------
    Atom  No    Charge         Core      Valence    Rydberg      Total
 -----------------------------------------------------------------------
      C    1   -0.28762      0.99967     2.28267    0.00528     3.28762
      C    2   -0.20323      0.99964     2.19551    0.00808     3.20323
      C    3   -0.01077      0.99955     1.99944    0.01178     3.01077
      O    4   -0.30553      0.99989     3.29627    0.00937     4.30553
      C    5   -0.02165      0.99956     2.00884    0.01324     3.02165
      C    6   -0.02250      0.99955     2.01016    0.01278     3.02250
      O    7   -0.28145      0.99986     3.27162    0.00998     4.28145
      C    8    0.16518      0.99937     1.82148    0.01396     2.83482
      C    9   -0.10712      0.99952     2.09850    0.00910     3.10712
      C   10   -0.08922      0.99957     2.08021    0.00944     3.08922
      C   11   -0.13116      0.99951     2.12319    0.00846     3.13116
      C   12    0.09627      0.99947     1.89226    0.01200     2.90373
      C   13   -0.14958      0.99946     2.14192    0.00820     3.14958
      N   14   -0.32075      0.99964     2.81104    0.01006     3.82075
      C   15    0.35160      0.99967     1.62593    0.02280     2.64840
      O   16   -0.32049      0.99988     3.31452    0.00609     4.32049
      C   17   -0.23413      0.99960     2.22778    0.00676     3.23413
      C   18   -0.28406      0.99966     2.27983    0.00457     3.28406
      H   19    0.09760      0.00000     0.40140    0.00101     0.40240
      H   20    0.10150      0.00000     0.39740    0.00110     0.39850
      H   21    0.09531      0.00000     0.40363    0.00107     0.40469
      H   22    0.09623      0.00000     0.40229    0.00148     0.40377
      H   23    0.09674      0.00000     0.40206    0.00121     0.40326
      H   24    0.08869      0.00000     0.40952    0.00179     0.41131
      H   25    0.08293      0.00000     0.41440    0.00267     0.41707
      H   26    0.08620      0.00000     0.41203    0.00177     0.41380
      H   27    0.09290      0.00000     0.40527    0.00182     0.40710
      H   28    0.09507      0.00000     0.40278    0.00215     0.40493
      H   29    0.09018      0.00000     0.40807    0.00174     0.40982
      H   30    0.10428      0.00000     0.39469    0.00103     0.39572
      H   31    0.09744      0.00000     0.40182    0.00074     0.40256
      H   32    0.10049      0.00000     0.39856    0.00095     0.39951
      H   33    0.11728      0.00000     0.38017    0.00255     0.38272
      H   34    0.19829      0.00000     0.29873    0.00298     0.30171
      H   35    0.10598      0.00000     0.39271    0.00131     0.39402
      H   36    0.10603      0.00000     0.39285    0.00112     0.39397
      H   37    0.10622      0.00000     0.39247    0.00130     0.39378
      H   38    0.09754      0.00000     0.40154    0.00091     0.40246
      H   39    0.09932      0.00000     0.39926    0.00142     0.40068
 =======================================================================
   * Total *   -0.00000     17.99308    49.79283    0.21409    68.00000

 Normal termination of Gaussian 16 at Fri Dec 11 21:41:22 2020.
