 Gaussian 16, Revision A.03,

 -----------------------------------------------------------
 # opt freq B3LYP/6-31G(d) empiricaldispersion=gd3bj scf=xqc
 -----------------------------------------------------------

 -------------------------------
 CID_116168122_JID_5675_neutraal
 -------------------------------
 Symbolic Z-matrix:
 Charge =  0 Multiplicity = 1

 SCF Done:  E(RB3LYP) =  -657.669964698     A.U. after   13 cycles
 SCF Done:  E(RB3LYP) =  -657.674662667     A.U. after   11 cycles
 SCF Done:  E(RB3LYP) =  -657.669877679     A.U. after   11 cycles
 SCF Done:  E(RB3LYP) =  -657.674338487     A.U. after   11 cycles
 SCF Done:  E(RB3LYP) =  -657.677234637     A.U. after    9 cycles
 SCF Done:  E(RB3LYP) =  -657.678139498     A.U. after   10 cycles
 SCF Done:  E(RB3LYP) =  -657.678038754     A.U. after   10 cycles
 SCF Done:  E(RB3LYP) =  -657.678507098     A.U. after   10 cycles
 SCF Done:  E(RB3LYP) =  -657.678452507     A.U. after   11 cycles
 SCF Done:  E(RB3LYP) =  -657.678509707     A.U. after   10 cycles
 SCF Done:  E(RB3LYP) =  -657.678568576     A.U. after    9 cycles
 SCF Done:  E(RB3LYP) =  -657.678571275     A.U. after    7 cycles
 SCF Done:  E(RB3LYP) =  -657.678571887     A.U. after    7 cycles
 SCF Done:  E(RB3LYP) =  -657.678572004     A.U. after    6 cycles
 SCF Done:  E(RB3LYP) =  -657.678572114     A.U. after    6 cycles
 Optimization completed.
    -- Stationary point found.
 Normal termination of Gaussian 16 at Thu Dec 10 16:43:36 2020.

 --------------------------------------------------------------------
 #N Geom=AllCheck Guess=TCheck SCRF=Check GenChk RB3LYP/6-31G(d) Freq
 --------------------------------------------------------------------

 Structure from the checkpoint file:  "JID_5675.chk"
 -------------------------------
 CID_116168122_JID_5675_neutraal
 -------------------------------
 Charge =  0 Multiplicity = 1

 SCF Done:  E(RB3LYP) =  -657.678572114     A.U. after    1 cycles

  Exact polarizability: 152.991   1.765 145.793   0.430  -0.297 128.146
 Approx polarizability: 196.752   0.587 193.613   1.600   1.476 194.471

                      1                      2                      3
                      A                      A                      A
 Frequencies --     47.5147                50.9184                72.3385
 Red. masses --      3.1857                 3.2288                 2.8844
 Frc consts  --      0.0042                 0.0049                 0.0089
 IR Inten    --      0.3157                 0.1041                 0.6327

                      4                      5                      6
                      A                      A                      A
 Frequencies --    100.6110               108.7215               128.7476
 Red. masses --      2.1701                 2.7652                 2.3161
 Frc consts  --      0.0129                 0.0193                 0.0226
 IR Inten    --      2.4368                 1.1948                 0.2057

                      7                      8                      9
                      A                      A                      A
 Frequencies --    133.7921               184.7205               206.7183
 Red. masses --      2.6090                 1.2039                 1.4871
 Frc consts  --      0.0275                 0.0242                 0.0374
 IR Inten    --      3.8216                 0.1548                 0.3449

                     10                     11                     12
                      A                      A                      A
 Frequencies --    211.7424               232.2008               237.3414
 Red. masses --      1.5328                 2.2489                 2.0751
 Frc consts  --      0.0405                 0.0714                 0.0689
 IR Inten    --      1.7154                 2.3821                 0.1013

                     13                     14                     15
                      A                      A                      A
 Frequencies --    267.2165               280.0560               288.1108
 Red. masses --      1.2308                 2.1367                 2.3822
 Frc consts  --      0.0518                 0.0987                 0.1165
 IR Inten    --      0.6229                 2.2673                 0.9477

                     16                     17                     18
                      A                      A                      A
 Frequencies --    299.9675               317.7787               326.3716
 Red. masses --      2.2312                 2.4280                 2.3327
 Frc consts  --      0.1183                 0.1445                 0.1464
 IR Inten    --      0.9499                 1.9750                 3.1305

                     19                     20                     21
                      A                      A                      A
 Frequencies --    335.8564               378.7959               411.4362
 Red. masses --      2.1254                 1.9887                 2.3189
 Frc consts  --      0.1413                 0.1681                 0.2313
 IR Inten    --      1.5627                 1.9594                 0.5170

                     22                     23                     24
                      A                      A                      A
 Frequencies --    418.1542               452.2382               480.6036
 Red. masses --      2.5873                 3.2464                 2.9544
 Frc consts  --      0.2665                 0.3912                 0.4021
 IR Inten    --      2.3218                 1.5894                11.7438

                     25                     26                     27
                      A                      A                      A
 Frequencies --    546.7493               573.0947               613.0671
 Red. masses --      2.9353                 2.9229                 2.2500
 Frc consts  --      0.5170                 0.5656                 0.4983
 IR Inten    --      2.1684                 2.6231                 2.7410

                     28                     29                     30
                      A                      A                      A
 Frequencies --    668.1643               718.1525               787.1248
 Red. masses --      2.8560                 2.1834                 2.6409
 Frc consts  --      0.7512                 0.6635                 0.9640
 IR Inten    --     22.6644                39.9158                 3.2413

                     31                     32                     33
                      A                      A                      A
 Frequencies --    811.1037               852.4989               866.1000
 Red. masses --      1.5727                 2.6118                 2.6211
 Frc consts  --      0.6096                 1.1184                 1.1584
 IR Inten    --     17.4570                 6.1246                10.0864

                     34                     35                     36
                      A                      A                      A
 Frequencies --    873.7987               908.0672               922.4411
 Red. masses --      2.1768                 1.9020                 1.6302
 Frc consts  --      0.9792                 0.9241                 0.8173
 IR Inten    --      4.9652                 1.4260                 4.4268

                     37                     38                     39
                      A                      A                      A
 Frequencies --    937.0603               951.8289               969.5193
 Red. masses --      1.3548                 1.7781                 1.6608
 Frc consts  --      0.7009                 0.9491                 0.9198
 IR Inten    --      1.9895                 4.8765                 1.4550

                     40                     41                     42
                      A                      A                      A
 Frequencies --    984.0109              1013.4388              1024.7890
 Red. masses --      2.1354                 2.0487                 2.2124
 Frc consts  --      1.2182                 1.2397                 1.3689
 IR Inten    --      3.2591                 0.7309                 1.6344

                     43                     44                     45
                      A                      A                      A
 Frequencies --   1047.3032              1058.1068              1082.5063
 Red. masses --      2.4595                 2.3289                 1.7115
 Frc consts  --      1.5894                 1.5362                 1.1816
 IR Inten    --      7.6063                27.6343                 4.3499

                     46                     47                     48
                      A                      A                      A
 Frequencies --   1116.3465              1120.3750              1139.6142
 Red. masses --      1.8988                 2.1948                 1.9759
 Frc consts  --      1.3942                 1.6232                 1.5119
 IR Inten    --      4.1035                43.9205                20.1797

                     49                     50                     51
                      A                      A                      A
 Frequencies --   1151.8052              1161.7940              1175.3363
 Red. masses --      2.1319                 2.4575                 2.3176
 Frc consts  --      1.6664                 1.9543                 1.8863
 IR Inten    --     15.6972                75.4457                 8.3482

                     52                     53                     54
                      A                      A                      A
 Frequencies --   1179.6739              1190.1986              1197.0432
 Red. masses --      2.3304                 1.8768                 1.8342
 Frc consts  --      1.9107                 1.5664                 1.5485
 IR Inten    --     12.6623                24.7749                42.5007

                     55                     56                     57
                      A                      A                      A
 Frequencies --   1223.5920              1230.8784              1239.6921
 Red. masses --      2.0316                 2.1961                 1.7291
 Frc consts  --      1.7921                 1.9603                 1.5656
 IR Inten    --     24.0645                21.2521                51.1080

                     58                     59                     60
                      A                      A                      A
 Frequencies --   1250.1849              1277.9343              1296.9945
 Red. masses --      1.2147                 1.2190                 1.2122
 Frc consts  --      1.1185                 1.1730                 1.2014
 IR Inten    --      9.6087                 1.2103                18.9780

                     61                     62                     63
                      A                      A                      A
 Frequencies --   1306.1471              1325.0016              1348.3492
 Red. masses --      1.2816                 1.2928                 1.1693
 Frc consts  --      1.2882                 1.3372                 1.2525
 IR Inten    --     17.9733                 5.3021                12.5200

                     64                     65                     66
                      A                      A                      A
 Frequencies --   1372.1439              1375.2879              1384.8777
 Red. masses --      1.3876                 1.3544                 1.3613
 Frc consts  --      1.5392                 1.5093                 1.5382
 IR Inten    --     16.3745                 2.2152                23.7806

                     67                     68                     69
                      A                      A                      A
 Frequencies --   1394.1823              1403.2750              1420.8402
 Red. masses --      1.3207                 1.4268                 1.2823
 Frc consts  --      1.5125                 1.6554                 1.5252
 IR Inten    --      1.1653                 8.0064                33.0017

                     70                     71                     72
                      A                      A                      A
 Frequencies --   1428.7101              1432.0759              1435.9192
 Red. masses --      1.2614                 1.2604                 1.3054
 Frc consts  --      1.5171                 1.5230                 1.5858
 IR Inten    --      8.7831                10.6338                18.8583

                     73                     74                     75
                      A                      A                      A
 Frequencies --   1438.5713              1449.5819              1458.6140
 Red. masses --      1.3497                 1.2475                 1.2354
 Frc consts  --      1.6456                 1.5444                 1.5486
 IR Inten    --     19.3697                 8.7284                20.6430

                     76                     77                     78
                      A                      A                      A
 Frequencies --   1474.9322              1487.7480              1501.7244
 Red. masses --      1.2423                 1.2631                 1.0716
 Frc consts  --      1.5922                 1.6472                 1.4239
 IR Inten    --      3.2434                 3.1753                 3.6883

                     79                     80                     81
                      A                      A                      A
 Frequencies --   1503.1730              1512.2228              1514.3645
 Red. masses --      1.1459                 1.0789                 1.0525
 Frc consts  --      1.5255                 1.4536                 1.4221
 IR Inten    --      0.5567                 1.6236                 5.8224

                     82                     83                     84
                      A                      A                      A
 Frequencies --   1516.6944              1519.6712              1524.1904
 Red. masses --      1.0913                 1.0777                 1.0696
 Frc consts  --      1.4791                 1.4663                 1.4640
 IR Inten    --      3.1526                 3.0425                 3.0945

                     85                     86                     87
                      A                      A                      A
 Frequencies --   1528.6567              1530.4755              1533.3326
 Red. masses --      1.0661                 1.0789                 1.0632
 Frc consts  --      1.4678                 1.4889                 1.4727
 IR Inten    --      1.9170                 5.4516                 9.0528

                     88                     89                     90
                      A                      A                      A
 Frequencies --   1536.9896              1538.6027              1550.3960
 Red. masses --      1.0678                 1.0681                 1.0905
 Frc consts  --      1.4862                 1.4898                 1.5444
 IR Inten    --      4.1226                 2.0070                 5.4108

                     91                     92                     93
                      A                      A                      A
 Frequencies --   1562.7566              2898.0351              2906.4520
 Red. masses --      1.0899                 1.0823                 1.0722
 Frc consts  --      1.5682                 5.3557                 5.3364
 IR Inten    --      5.9198               100.5260                60.0572

                     94                     95                     96
                      A                      A                      A
 Frequencies --   2915.7252              2940.9981              2972.6524
 Red. masses --      1.0749                 1.0839                 1.0596
 Frc consts  --      5.3841                 5.5239                 5.5169
 IR Inten    --    116.2577                56.4776                56.1758

                     97                     98                     99
                      A                      A                      A
 Frequencies --   2986.7496              3011.8183              3026.6436
 Red. masses --      1.0464                 1.0911                 1.0937
 Frc consts  --      5.5000                 5.8313                 5.9031
 IR Inten    --    102.1443                57.4269                 9.2731

                    100                    101                    102
                      A                      A                      A
 Frequencies --   3026.8794              3037.0213              3042.1277
 Red. masses --      1.0952                 1.0726                 1.0441
 Frc consts  --      5.9117                 5.8287                 5.6933
 IR Inten    --     74.1328                52.9594                40.5725

                    103                    104                    105
                      A                      A                      A
 Frequencies --   3051.9379              3058.2052              3065.0431
 Red. masses --      1.0417                 1.0466                 1.0759
 Frc consts  --      5.7166                 5.7673                 5.9552
 IR Inten    --     18.0359                51.0904                52.0130

                    106                    107                    108
                      A                      A                      A
 Frequencies --   3075.8339              3088.6353              3101.4405
 Red. masses --      1.0873                 1.0865                 1.0994
 Frc consts  --      6.0610                 6.1068                 6.2304
 IR Inten    --     40.4374                36.9799                40.4210

                    109                    110                    111
                      A                      A                      A
 Frequencies --   3114.2381              3129.6576              3137.5605
 Red. masses --      1.0998                 1.1004                 1.0960
 Frc consts  --      6.2845                 6.3505                 6.3569
 IR Inten    --     39.4392                29.3510                28.3263

                    112                    113                    114
                      A                      A                      A
 Frequencies --   3138.0276              3170.1321              3173.8573
 Red. masses --      1.0882                 1.0978                 1.0872
 Frc consts  --      6.3137                 6.5003                 6.4526
 IR Inten    --     59.5883                10.3716                15.8350

                    115                    116                    117
                      A                      A                      A
 Frequencies --   3181.2968              3194.0408              3507.5450
 Red. masses --      1.0990                 1.0872                 1.0747
 Frc consts  --      6.5535                 6.5346                 7.7905
 IR Inten    --      7.3528                22.7957                 1.2065

 - Thermochemistry -
 -------------------
 Temperature   298.150 Kelvin.  Pressure   1.00000 Atm.
 Atom     1 has atomic number  6 and mass  12.00000

 Molecular mass:   214.20451 amu.
 Principal axes and moments of inertia in atomic units:
                           1         2         3
     Eigenvalues --  2545.609743519.683774785.97414
           X            0.99926   0.03779   0.00655
           Y           -0.03776   0.99927  -0.00554
           Z           -0.00675   0.00529   0.99996
 This molecule is an asymmetric top.
 Rotational symmetry number  1.
 Warning -- assumption of classical behavior for rotation
           may cause significant error
 Rotational temperatures (Kelvin)      0.03402     0.02461     0.01810
 Rotational constants (GHZ):           0.70896     0.51276     0.37709
 Zero-point vibrational energy    1001240.9 (Joules/Mol)
                                  239.30231 (Kcal/Mol)
 Warning -- explicit consideration of  27 degrees of freedom as
           vibrations may cause significant error
 Vibrational temperatures:     68.36    73.26   104.08   144.76   156.43
          (Kelvin)            185.24   192.50   265.77   297.42   304.65
                              334.09   341.48   384.46   402.94   414.53
                              431.59   457.21   469.58   483.22   545.00
                              591.96   601.63   650.67   691.48   786.65
                              824.56   882.07   961.34  1033.26  1132.50
                             1167.00  1226.56  1246.12  1257.20  1306.51
                             1327.19  1348.22  1369.47  1394.92  1415.77
                             1458.11  1474.44  1506.84  1522.38  1557.49
                             1606.17  1611.97  1639.65  1657.19  1671.56
                             1691.05  1697.29  1712.43  1722.28  1760.48
                             1770.96  1783.64  1798.74  1838.66  1866.09
                             1879.25  1906.38  1939.97  1974.21  1978.73
                             1992.53  2005.92  2019.00  2044.27  2055.60
                             2060.44  2065.97  2069.78  2085.62  2098.62
                             2122.10  2140.54  2160.65  2162.73  2175.75
                             2178.83  2182.18  2186.47  2192.97  2199.40
                             2202.01  2206.12  2211.39  2213.71  2230.67
                             2248.46  4169.63  4181.74  4195.08  4231.44
                             4276.98  4297.27  4333.33  4354.67  4355.00
                             4369.60  4376.94  4391.06  4400.08  4409.91
                             4425.44  4443.86  4462.28  4480.69  4502.88
                             4514.25  4514.92  4561.11  4566.47  4577.18
                             4595.51  5046.57

 Zero-point correction=                           0.381353 (Hartree/Particle)
 Thermal correction to Energy=                    0.398466
 Thermal correction to Enthalpy=                  0.399410
 Thermal correction to Gibbs Free Energy=         0.337644
 Sum of electronic and zero-point Energies=           -657.297220
 Sum of electronic and thermal Energies=              -657.280106
 Sum of electronic and thermal Enthalpies=            -657.279162
 Sum of electronic and thermal Free Energies=         -657.340928

                     E (Thermal)             CV                S
                      KCal/Mol        Cal/Mol-Kelvin    Cal/Mol-Kelvin
 Total                  250.041             65.497            129.997
 Electronic               0.000              0.000              0.000
 Translational            0.889              2.981             41.989
 Rotational               0.889              2.981             32.128
 Vibrational            248.264             59.536             55.881
 Vibration     1          0.595              1.979              4.918
 Vibration     2          0.595              1.977              4.781
 Vibration     3          0.598              1.967              4.089
 Vibration     4          0.604              1.949              3.442
 Vibration     5          0.606              1.942              3.292
 Vibration     6          0.611              1.924              2.965
 Vibration     7          0.613              1.920              2.891
 Vibration     8          0.631              1.861              2.280
 Vibration     9          0.641              1.830              2.072
 Vibration    10          0.643              1.823              2.029
 Vibration    11          0.653              1.792              1.862
 Vibration    12          0.656              1.784              1.823
 Vibration    13          0.672              1.733              1.614
 Vibration    14          0.680              1.710              1.533
 Vibration    15          0.685              1.696              1.485
 Vibration    16          0.693              1.674              1.417
 Vibration    17          0.704              1.640              1.322
 Vibration    18          0.710              1.623              1.278
 Vibration    19          0.717              1.604              1.232
 Vibration    20          0.749              1.515              1.044
 Vibration    21          0.775              1.445              0.922
 Vibration    22          0.781              1.431              0.898
 Vibration    23          0.811              1.356              0.789
 Vibration    24          0.837              1.293              0.708
 Vibration    25          0.902              1.147              0.551
 Vibration    26          0.929              1.089              0.498
 Vibration    27          0.972              1.004              0.428

                           ! Non-Optimized Parameters !
 Normal termination of Gaussian 16 at Thu Dec 10 17:03:53 2020.

 ----------------------------------------------------------------------
 # B3LYP/6-311++G(d,p) empiricaldispersion=gd3bj scf=xqc pop=npa geom=c
 heck
 ----------------------------------------------------------------------

 ---------------------------------------
 CID_116168122_JID_5675_Energie_neutraal
 ---------------------------------------
 Structure from the checkpoint file:  "JID_5675.chk"
 Charge =  0 Multiplicity = 1

 SCF Done:  E(RB3LYP) =  -657.866250381     A.U. after   14 cycles
 Normal termination of Gaussian 16 at Thu Dec 10 17:13:32 2020.

 ----------------------------------------------------------------------
 # B3LYP/6-311++G(d,p) empiricaldispersion=gd3bj scf=xqc pop=npa geom=c
 heck
 ----------------------------------------------------------------------

 -------------------------------------
 CID_116168122_JID_5675_Energie_kation
 -------------------------------------
 Structure from the checkpoint file:  "JID_5675.chk"
 Charge =  1 Multiplicity = 2

 SCF Done:  E(UB3LYP) =  -657.607213863     A.U. after   21 cycles
 Normal termination of Gaussian 16 at Thu Dec 10 17:34:56 2020.
 Gaussian 16:  ES64L-G16RevA.03 25-Dec-2016

 ----------------------------------------------------------------------
 # B3LYP/6-311++G(d,p) empiricaldispersion=gd3bj scf=xqc pop=npa geom=c
 heck
 ----------------------------------------------------------------------

 ------------------------------------
 CID_116168122_JID_5675_Energie_anion
 ------------------------------------
 Structure from the checkpoint file:  "JID_5675.chk"
 Charge = -1 Multiplicity = 2

                         Standard orientation:
 ---------------------------------------------------------------------
 Center     Atomic      Atomic             Coordinates (Angstroms)
 Number     Number       Type             X           Y           Z
 ---------------------------------------------------------------------
      1          6           0       -0.658876   -2.085599    1.406738
      2          6           0        0.182327   -2.232600    0.138672
      3          6           0       -0.297866   -1.310641   -1.005358
      4          6           0        0.445647    0.042308   -1.085196
      5          6           0        1.944267   -0.287419   -1.332933
      6          6           0        2.377672   -1.643959   -0.736152
      7          7           0        1.583349   -1.929843    0.449273
      8          7           0        0.090268    0.933999    0.049704
      9          6           0       -1.049255    1.788168   -0.290469
     10          6           0       -2.360844    1.103473   -0.649722
     11          8           0       -2.795699    0.289081    0.418153
     12          6           0       -4.024110   -0.346584    0.147322
     13          6           0        1.094369    1.742485    0.783670
     14          6           0        2.095581    0.941040    1.624141
     15          6           0        1.793847    2.853488   -0.031662
     16          1           0       -0.234314   -2.684624    2.222910
     17          1           0       -1.683815   -2.432054    1.231122
     18          1           0       -0.697687   -1.037523    1.707761
     19          1           0        0.078840   -3.273726   -0.227532
     20          1           0       -0.134610   -1.812726   -1.968863
     21          1           0       -1.372401   -1.171703   -0.900240
     22          1           0        0.097430    0.542354   -2.005525
     23          1           0        2.586444    0.507041   -0.963233
     24          1           0        2.098170   -0.321295   -2.417836
     25          1           0        3.433697   -1.604289   -0.447009
     26          1           0        2.293040   -2.434032   -1.508317
     27          1           0        1.991150   -2.692622    0.983696
     28          1           0       -1.254246    2.426626    0.574898
     29          1           0       -0.826624    2.464087   -1.141905
     30          1           0       -3.102257    1.896664   -0.851691
     31          1           0       -2.272429    0.516002   -1.577098
     32          1           0       -4.831049    0.382972   -0.030572
     33          1           0       -3.955754   -1.005591   -0.733877
     34          1           0       -4.275339   -0.950776    1.022647
     35          1           0        0.479647    2.268089    1.525262
     36          1           0        2.912640    0.509284    1.043348
     37          1           0        2.541403    1.617156    2.364455
     38          1           0        1.594242    0.120279    2.136890
     39          1           0        1.069284    3.487983   -0.552709
     40          1           0        2.371700    3.497911    0.641382
     41          1           0        2.486555    2.457813   -0.780334
 ---------------------------------------------------------------------

 SCF Done:  E(UB3LYP) =  -657.851456853     A.U. after   29 cycles

 The electronic state is 2-A.
 Alpha  occ. eigenvalues --  -19.02747 -14.19555 -14.18635 -10.11535 -10.11483
 Alpha  occ. eigenvalues --  -10.10077 -10.09749 -10.09208 -10.08864 -10.08741
 Alpha  occ. eigenvalues --  -10.06261 -10.06020 -10.05341 -10.04945 -10.04182
 Alpha  occ. eigenvalues --   -0.94287  -0.82020  -0.80136  -0.68510  -0.67437
 Alpha  occ. eigenvalues --   -0.66156  -0.63242  -0.58679  -0.58125  -0.57089
 Alpha  occ. eigenvalues --   -0.53789  -0.50425  -0.49816  -0.46511  -0.42265
 Alpha  occ. eigenvalues --   -0.41106  -0.40049  -0.38984  -0.37998  -0.36372
 Alpha  occ. eigenvalues --   -0.35822  -0.34484  -0.34203  -0.33065  -0.31863
 Alpha  occ. eigenvalues --   -0.31298  -0.30909  -0.29666  -0.28816  -0.28405
 Alpha  occ. eigenvalues --   -0.28001  -0.27660  -0.26333  -0.25523  -0.25263
 Alpha  occ. eigenvalues --   -0.24419  -0.24353  -0.23811  -0.22036  -0.21790
 Alpha  occ. eigenvalues --   -0.21460  -0.20080  -0.16599  -0.11986  -0.10064
 Alpha  occ. eigenvalues --    0.04308
 Alpha virt. eigenvalues --    0.06195   0.06538   0.07263   0.08195   0.08281
 Alpha virt. eigenvalues --    0.09016   0.09304   0.09434   0.10448   0.10790
 Alpha virt. eigenvalues --    0.11279   0.11757   0.11847   0.12007   0.12779

  Beta  occ. eigenvalues --  -19.02740 -14.19551 -14.18618 -10.11514 -10.11451
  Beta  occ. eigenvalues --  -10.10073 -10.09742 -10.09195 -10.08854 -10.08720
  Beta  occ. eigenvalues --  -10.06248 -10.06004 -10.05328 -10.04936 -10.04174
  Beta  occ. eigenvalues --   -0.94274  -0.82003  -0.80114  -0.68490  -0.67407
  Beta  occ. eigenvalues --   -0.66127  -0.63212  -0.58651  -0.58096  -0.57034
  Beta  occ. eigenvalues --   -0.53745  -0.50387  -0.49766  -0.46481  -0.42223
  Beta  occ. eigenvalues --   -0.41061  -0.40003  -0.38955  -0.37969  -0.36338
  Beta  occ. eigenvalues --   -0.35797  -0.34446  -0.34178  -0.33040  -0.31842
  Beta  occ. eigenvalues --   -0.31272  -0.30884  -0.29638  -0.28798  -0.28385
  Beta  occ. eigenvalues --   -0.27979  -0.27632  -0.26310  -0.25501  -0.25233
  Beta  occ. eigenvalues --   -0.24396  -0.24334  -0.23777  -0.22010  -0.21754
  Beta  occ. eigenvalues --   -0.21431  -0.20056  -0.16580  -0.11939  -0.10028
  Beta virt. eigenvalues --    0.06307   0.07014   0.07151   0.07769   0.08649
  Beta virt. eigenvalues --    0.08825   0.09289   0.09660   0.09680   0.10932
  Beta virt. eigenvalues --    0.11150   0.11517   0.11962   0.12098   0.12223

 Mulliken charges and spin densities:
               1          2
     1  C   -0.125993  -0.528340
     2  C    0.477485  -0.431587
     3  C   -0.287013  -0.138977
     4  C   -1.144319   1.126406
     5  C    0.510513  -0.943829
     6  C    0.611725  -0.962424
     7  N   -0.321250   0.062574
     8  N    0.307679   0.011901
     9  C   -0.038960  -0.108877
    10  C    0.051159  -0.575783
    11  O   -0.118216   0.024355
    12  C    0.777112  -1.051083
    13  C   -0.165564   0.270617
    14  C   -0.589870   0.027908
    15  C    0.090562  -0.633549
    16  H   -0.085139   0.196945
    17  H    0.121867  -0.004659
    18  H    0.188609  -0.007042
    19  H   -0.420900   0.588643
    20  H   -0.301637   0.489576
    21  H    0.752529  -0.692689
    22  H   -0.117317   0.300664
    23  H    0.788261  -0.742109
    24  H   -0.361013   0.527973
    25  H   -0.663574   0.835696
    26  H    0.131306  -0.008248
    27  H    0.153297   0.122339
    28  H    0.047122   0.132178
    29  H    0.055558   0.038692
    30  H   -0.487865   0.635543
    31  H   -0.077845   0.233317
    32  H   -0.294618   0.423811
    33  H   -0.378883   0.518539
    34  H   -0.021680   0.155834
    35  H    0.115872   0.031295
    36  H    0.068558   0.079661
    37  H   -0.050423   0.180063
    38  H    0.182918   0.006858
    39  H   -0.076197   0.222238
    40  H   -0.027243   0.159237
    41  H   -0.276610   0.426333
 Sum of Mulliken charges =  -1.00000   1.00000

 Dipole moment (field-independent basis, Debye):
    X=              1.4076    Y=              1.1072    Z=              2.6103  Tot=              3.1656
 Quadrupole moment (field-independent basis, Debye-Ang):
   XX=           -166.5847   YY=           -148.7799   ZZ=           -136.6467
   XY=              6.0323   XZ=             -2.6812   YZ=              0.1155

 Summary of Natural Population Analysis:

                                       Natural Population
                Natural  -----------------------------------------------
    Atom  No    Charge         Core      Valence    Rydberg      Total
 -----------------------------------------------------------------------
      C    1   -0.28575      0.99964     2.27919    0.00692     3.28575
      C    2   -0.00360      0.99960     1.99127    0.01272     3.00360
      C    3   -0.19903      0.99958     2.18852    0.01093     3.19903
      C    4   -0.00093      0.99956     1.98628    0.01509     3.00093
      C    5   -0.19666      0.99960     2.18867    0.00840     3.19666
      C    6   -0.08723      0.99963     2.07640    0.01120     3.08723
      N    7   -0.34466      0.99972     2.83232    0.01262     3.84466
      N    8   -0.29096      0.99968     2.77683    0.01444     3.79096
      C    9   -0.08695      0.99959     2.07498    0.01238     3.08695
      C   10   -0.01346      0.99957     2.00105    0.01283     3.01346
      O   11   -0.29664      0.99988     3.28690    0.00986     4.29664
      C   12   -0.09745      0.99962     2.08860    0.00923     3.09745
      C   13   -0.00251      0.99959     1.99156    0.01135     3.00251
      C   14   -0.28555      0.99963     2.28055    0.00537     3.28555
      C   15   -0.29594      0.99963     2.29128    0.00503     3.29594
      H   16    0.09049      0.00000     0.40868    0.00083     0.40951
      H   17    0.09515      0.00000     0.40383    0.00102     0.40485
      H   18    0.11251      0.00000     0.38580    0.00169     0.38749
      H   19    0.07542      0.00000     0.42267    0.00191     0.42458
      H   20    0.09724      0.00000     0.40101    0.00175     0.40276
      H   21    0.10683      0.00000     0.39052    0.00265     0.39317
      H   22    0.08837      0.00000     0.40956    0.00207     0.41163
      H   23    0.10070      0.00000     0.39777    0.00153     0.39930
      H   24    0.10062      0.00000     0.39827    0.00110     0.39938
      H   25    0.09476      0.00000     0.40414    0.00110     0.40524
      H   26    0.07771      0.00000     0.42051    0.00178     0.42229
      H   27    0.17438      0.00000     0.32304    0.00258     0.32562
      H   28    0.09602      0.00000     0.40229    0.00169     0.40398
      H   29    0.08200      0.00000     0.41647    0.00152     0.41800
      H   30    0.08279      0.00000     0.41563    0.00158     0.41721
      H   31    0.08033      0.00000     0.41765    0.00202     0.41967
      H   32    0.07891      0.00000     0.41943    0.00166     0.42109
      H   33    0.07911      0.00000     0.41950    0.00140     0.42089
      H   34    0.08926      0.00000     0.40979    0.00094     0.41074
      H   35    0.09022      0.00000     0.40793    0.00185     0.40978
      H   36    0.09623      0.00000     0.40267    0.00110     0.40377
      H   37    0.09189      0.00000     0.40742    0.00069     0.40811
      H   38    0.11342      0.00000     0.38533    0.00125     0.38658
      H   39    0.09961      0.00000     0.39955    0.00084     0.40039
      H   40    0.09719      0.00000     0.40191    0.00090     0.40281
      H   41    0.09615      0.00000     0.40290    0.00094     0.40385
 =======================================================================
   * Total *   -0.00000     14.99453    44.80870    0.19678    60.00000

 Normal termination of Gaussian 16 at Thu Dec 10 18:02:07 2020.
