 Gaussian 16, Revision A.03,

 -----------------------------------------------------------
 # opt freq B3LYP/6-31G(d) empiricaldispersion=gd3bj scf=xqc
 -----------------------------------------------------------

 ------------------------------
 CID_65770046_JID_6477_neutraal
 ------------------------------
 Symbolic Z-matrix:
 Charge =  0 Multiplicity = 1

 SCF Done:  E(RB3LYP) =  -1448.20250804     A.U. after   15 cycles
 SCF Done:  E(RB3LYP) =  -1448.21101112     A.U. after   12 cycles
 SCF Done:  E(RB3LYP) =  -1448.21268692     A.U. after   12 cycles
 SCF Done:  E(RB3LYP) =  -1448.21450680     A.U. after   13 cycles
 SCF Done:  E(RB3LYP) =  -1448.21591429     A.U. after   14 cycles
 SCF Done:  E(RB3LYP) =  -1448.21702579     A.U. after   12 cycles
 SCF Done:  E(RB3LYP) =  -1448.21745183     A.U. after   12 cycles
 SCF Done:  E(RB3LYP) =  -1448.21763879     A.U. after   12 cycles
 SCF Done:  E(RB3LYP) =  -1448.21773420     A.U. after   11 cycles
 SCF Done:  E(RB3LYP) =  -1448.21777656     A.U. after   11 cycles
 SCF Done:  E(RB3LYP) =  -1448.21778600     A.U. after    8 cycles
 SCF Done:  E(RB3LYP) =  -1448.21778686     A.U. after    9 cycles
 SCF Done:  E(RB3LYP) =  -1448.21778761     A.U. after    9 cycles
 SCF Done:  E(RB3LYP) =  -1448.21778804     A.U. after    9 cycles
 SCF Done:  E(RB3LYP) =  -1448.21778856     A.U. after    8 cycles
 SCF Done:  E(RB3LYP) =  -1448.21778859     A.U. after    7 cycles
 Optimization completed.
    -- Stationary point found.
 Normal termination of Gaussian 16 at Thu Dec 10 23:17:14 2020.

 --------------------------------------------------------------------
 #N Geom=AllCheck Guess=TCheck SCRF=Check GenChk RB3LYP/6-31G(d) Freq
 --------------------------------------------------------------------

 Structure from the checkpoint file:  "JID_6477.chk"
 ------------------------------
 CID_65770046_JID_6477_neutraal
 ------------------------------
 Charge =  0 Multiplicity = 1

 SCF Done:  E(RB3LYP) =  -1448.21778859     A.U. after    1 cycles

  Exact polarizability: 171.765   2.367 162.895 -15.165   1.267 126.427
 Approx polarizability: 232.606   3.748 264.750 -33.975   6.189 204.721

                      1                      2                      3
                      A                      A                      A
 Frequencies --     18.3516                25.3168                37.0147
 Red. masses --      3.8585                 4.1059                 2.9078
 Frc consts  --      0.0008                 0.0016                 0.0023
 IR Inten    --      0.5075                 1.6410                 0.1448

                      4                      5                      6
                      A                      A                      A
 Frequencies --     54.2226                67.0737               101.6648
 Red. masses --      3.3884                 2.9289                 4.0342
 Frc consts  --      0.0059                 0.0078                 0.0246
 IR Inten    --      0.6546                 0.4490                 0.4303

                      7                      8                      9
                      A                      A                      A
 Frequencies --    114.9196               124.3068               152.6183
 Red. masses --      2.9097                 2.4212                 3.7721
 Frc consts  --      0.0226                 0.0220                 0.0518
 IR Inten    --      0.9774                 0.2942                 2.2188

                     10                     11                     12
                      A                      A                      A
 Frequencies --    166.1417               177.5951               215.2146
 Red. masses --      3.5180                 5.3770                 1.5424
 Frc consts  --      0.0572                 0.0999                 0.0421
 IR Inten    --      0.3726                 0.8044                 0.3457

                     13                     14                     15
                      A                      A                      A
 Frequencies --    235.9376               265.9509               284.2780
 Red. masses --      1.5761                 3.5600                 3.7704
 Frc consts  --      0.0517                 0.1484                 0.1795
 IR Inten    --      0.9087                 1.3654                 1.6812

                     16                     17                     18
                      A                      A                      A
 Frequencies --    289.4312               300.9461               322.4817
 Red. masses --      1.9506                 3.0573                 3.0027
 Frc consts  --      0.0963                 0.1631                 0.1840
 IR Inten    --      1.1092                 3.2280                 2.2740

                     19                     20                     21
                      A                      A                      A
 Frequencies --    361.1815               393.3334               425.9601
 Red. masses --      4.8151                 4.0732                 3.0695
 Frc consts  --      0.3701                 0.3713                 0.3281
 IR Inten    --      0.4111                 7.1756                 1.2780

                     22                     23                     24
                      A                      A                      A
 Frequencies --    446.5962               469.5833               513.2070
 Red. masses --      2.8489                 4.9723                 4.8709
 Frc consts  --      0.3348                 0.6460                 0.7559
 IR Inten    --      3.0978                 2.7774                 1.8950

                     25                     26                     27
                      A                      A                      A
 Frequencies --    531.0487               567.4605               626.6336
 Red. masses --      7.5491                 5.2491                 4.5370
 Frc consts  --      1.2543                 0.9959                 1.0497
 IR Inten    --     24.1389               111.3699                12.5951

                     28                     29                     30
                      A                      A                      A
 Frequencies --    659.1782               668.0128               720.4967
 Red. masses --      2.9181                 3.0756                 1.5914
 Frc consts  --      0.7471                 0.8086                 0.4867
 IR Inten    --     66.6409                79.3518                22.8190

                     31                     32                     33
                      A                      A                      A
 Frequencies --    752.1127               775.2435               790.1424
 Red. masses --      3.2517                 1.2134                 1.1651
 Frc consts  --      1.0838                 0.4297                 0.4286
 IR Inten    --      4.1217                28.6807                 6.6904

                     34                     35                     36
                      A                      A                      A
 Frequencies --    804.4373               847.9411               851.9948
 Red. masses --      3.8523                 2.2067                 2.0427
 Frc consts  --      1.4688                 0.9348                 0.8736
 IR Inten    --      3.4500                78.2233                58.9813

                     37                     38                     39
                      A                      A                      A
 Frequencies --    882.1621               896.4766               905.3361
 Red. masses --      3.2566                 2.0449                 1.2599
 Frc consts  --      1.4932                 0.9683                 0.6084
 IR Inten    --      6.6492                 2.8910                 1.4108

                     40                     41                     42
                      A                      A                      A
 Frequencies --    920.6956               942.5616              1007.5018
 Red. masses --      1.6132                 1.6035                 2.0919
 Frc consts  --      0.8057                 0.8394                 1.2511
 IR Inten    --     16.4357                39.0953                20.7692

                     43                     44                     45
                      A                      A                      A
 Frequencies --   1009.1237              1028.9064              1087.1263
 Red. masses --      2.1638                 1.7036                 2.3209
 Frc consts  --      1.2982                 1.0626                 1.6161
 IR Inten    --     20.1493                23.4578                20.6538

                     46                     47                     48
                      A                      A                      A
 Frequencies --   1092.9124              1115.0843              1116.0607
 Red. masses --      2.7074                 2.1724                 2.2851
 Frc consts  --      1.9053                 1.5915                 1.6770
 IR Inten    --     29.5229                79.2977                39.1008

                     49                     50                     51
                      A                      A                      A
 Frequencies --   1142.9572              1163.6629              1170.1438
 Red. masses --      2.1478                 1.9159                 2.1049
 Frc consts  --      1.6531                 1.5286                 1.6981
 IR Inten    --      4.6662                23.5328                80.6064

                     52                     53                     54
                      A                      A                      A
 Frequencies --   1176.1935              1192.2427              1224.9101
 Red. masses --      2.3462                 2.4556                 2.0036
 Frc consts  --      1.9124                 2.0565                 1.7712
 IR Inten    --     26.6455                13.4243                15.6358

                     55                     56                     57
                      A                      A                      A
 Frequencies --   1277.5644              1291.8106              1313.8378
 Red. masses --      1.3031                 1.2998                 1.7405
 Frc consts  --      1.2532                 1.2779                 1.7702
 IR Inten    --     29.1709                 6.2582                43.5823

                     58                     59                     60
                      A                      A                      A
 Frequencies --   1324.8603              1347.1898              1388.3958
 Red. masses --      2.3628                 1.1946                 1.2976
 Frc consts  --      2.4435                 1.2774                 1.4738
 IR Inten    --    114.2030                 7.5795                 4.2490

                     61                     62                     63
                      A                      A                      A
 Frequencies --   1394.4406              1396.3930              1406.2547
 Red. masses --      1.3212                 2.3348                 1.3566
 Frc consts  --      1.5137                 2.6823                 1.5807
 IR Inten    --     25.4751                13.0476                 2.3546

                     64                     65                     66
                      A                      A                      A
 Frequencies --   1411.7160              1436.3041              1445.4673
 Red. masses --      1.3330                 1.2457                 1.2545
 Frc consts  --      1.5652                 1.5141                 1.5443
 IR Inten    --      2.1763                10.3621                15.5051

                     67                     68                     69
                      A                      A                      A
 Frequencies --   1448.4405              1500.9213              1509.0194
 Red. masses --      1.2760                 6.9348                 1.0552
 Frc consts  --      1.5772                 9.2045                 1.4157
 IR Inten    --     27.9269                15.8233                 1.5375

                     70                     71                     72
                      A                      A                      A
 Frequencies --   1515.1656              1522.1909              1526.6090
 Red. masses --      1.0755                 1.0541                 1.0646
 Frc consts  --      1.4547                 1.4390                 1.4618
 IR Inten    --      5.0353                 5.9038                 6.7690

                     73                     74                     75
                      A                      A                      A
 Frequencies --   1529.0890              1535.5599              1542.0061
 Red. masses --      1.0730                 1.0742                 1.0494
 Frc consts  --      1.4782                 1.4924                 1.4701
 IR Inten    --      0.4402                 1.0323                 3.7111

                     76                     77                     78
                      A                      A                      A
 Frequencies --   1544.8654              1548.6442              1571.1718
 Red. masses --      1.1051                 1.1453                 6.6061
 Frc consts  --      1.5539                 1.6183                 9.6081
 IR Inten    --      0.2273                28.4431                17.4044

                     79                     80                     81
                      A                      A                      A
 Frequencies --   3029.0586              3039.4420              3044.2083
 Red. masses --      1.0602                 1.0602                 1.0481
 Frc consts  --      5.7312                 5.7709                 5.7227
 IR Inten    --     17.0779                50.0875                13.8801

                     82                     83                     84
                      A                      A                      A
 Frequencies --   3044.7565              3045.7126              3051.6927
 Red. masses --      1.0394                 1.0571                 1.0586
 Frc consts  --      5.6773                 5.7777                 5.8086
 IR Inten    --     19.2194                19.6978                24.4012

                     85                     86                     87
                      A                      A                      A
 Frequencies --   3072.6282              3075.8392              3084.8599
 Red. masses --      1.1034                 1.1005                 1.1014
 Frc consts  --      6.1376                 6.1342                 6.1755
 IR Inten    --     10.3674                30.0011                 5.4697

                     88                     89                     90
                      A                      A                      A
 Frequencies --   3107.8300              3109.5065              3114.1253
 Red. masses --      1.1016                 1.1004                 1.1024
 Frc consts  --      6.2690                 6.2687                 6.2989
 IR Inten    --     87.6650                10.5070                49.1468

                     91                     92                     93
                      A                      A                      A
 Frequencies --   3123.4564              3125.2681              3255.3341
 Red. masses --      1.1004                 1.1014                 1.0893
 Frc consts  --      6.3251                 6.3383                 6.8012
 IR Inten    --     24.0518                44.3738                 2.1801

                     94                     95                     96
                      A                      A                      A
 Frequencies --   3277.3141              3479.3963              3510.9997
 Red. masses --      1.0994                 1.0729                 1.0742
 Frc consts  --      6.9574                 7.6526                 7.8022
 IR Inten    --      0.0095                35.7939                18.6043

 - Thermochemistry -
 -------------------
 Temperature   298.150 Kelvin.  Pressure   1.00000 Atm.
 Atom     1 has atomic number  6 and mass  12.00000

 Molecular mass:   262.08097 amu.
 Principal axes and moments of inertia in atomic units:
                           1         2         3
     Eigenvalues --  3858.728624892.866616361.10964
           X            0.99853   0.05255   0.01333
           Y           -0.05155   0.99642  -0.06698
           Z           -0.01680   0.06620   0.99766
 This molecule is an asymmetric top.
 Rotational symmetry number  1.
 Warning -- assumption of classical behavior for rotation
           may cause significant error
 Rotational temperatures (Kelvin)      0.02245     0.01770     0.01362
 Rotational constants (GHZ):           0.46770     0.36885     0.28371
 Zero-point vibrational energy     744983.0 (Joules/Mol)
                                  178.05521 (Kcal/Mol)
 Warning -- explicit consideration of  26 degrees of freedom as
           vibrations may cause significant error
 Vibrational temperatures:     26.40    36.43    53.26    78.01    96.50
          (Kelvin)            146.27   165.34   178.85   219.58   239.04
                              255.52   309.65   339.46   382.64   409.01
                              416.43   432.99   463.98   519.66   565.92
                              612.86   642.55   675.63   738.39   764.06
                              816.45   901.59   948.41   961.12  1036.63
                             1082.12  1115.40  1136.84  1157.41  1220.00
                             1225.83  1269.23  1289.83  1302.58  1324.68
                             1356.14  1449.57  1451.90  1480.37  1564.13
                             1572.46  1604.36  1605.76  1644.46  1674.25
                             1683.58  1692.28  1715.37  1762.37  1838.13
                             1858.63  1890.32  1906.18  1938.31  1997.59
                             2006.29  2009.10  2023.29  2031.14  2066.52
                             2079.71  2083.98  2159.49  2171.14  2179.99
                             2190.09  2196.45  2200.02  2209.33  2218.60
                             2222.72  2228.15  2260.57  4358.14  4373.08
                             4379.94  4380.73  4382.10  4390.71  4420.83
                             4425.45  4438.43  4471.47  4473.89  4480.53
                             4493.96  4496.56  4683.70  4715.32  5006.08
                             5051.55

 Zero-point correction=                           0.283749 (Hartree/Particle)
 Thermal correction to Energy=                    0.301799
 Thermal correction to Enthalpy=                  0.302743
 Thermal correction to Gibbs Free Energy=         0.235279
 Sum of electronic and zero-point Energies=          -1447.934040
 Sum of electronic and thermal Energies=             -1447.915990
 Sum of electronic and thermal Enthalpies=           -1447.915046
 Sum of electronic and thermal Free Energies=        -1447.982510

                     E (Thermal)             CV                S
                      KCal/Mol        Cal/Mol-Kelvin    Cal/Mol-Kelvin
 Total                  189.382             65.667            141.990
 Electronic               0.000              0.000              0.000
 Translational            0.889              2.981             42.590
 Rotational               0.889              2.981             33.151
 Vibrational            187.604             59.706             66.248
 Vibration     1          0.593              1.986              6.805
 Vibration     2          0.593              1.985              6.166
 Vibration     3          0.594              1.982              5.413
 Vibration     4          0.596              1.976              4.657
 Vibration     5          0.598              1.970              4.237
 Vibration     6          0.604              1.948              3.422
 Vibration     7          0.608              1.937              3.184
 Vibration     8          0.610              1.929              3.032
 Vibration     9          0.619              1.900              2.639
 Vibration    10          0.624              1.884              2.479
 Vibration    11          0.628              1.870              2.354
 Vibration    12          0.645              1.818              1.999
 Vibration    13          0.655              1.786              1.833
 Vibration    14          0.672              1.736              1.622
 Vibration    15          0.683              1.703              1.508
 Vibration    16          0.686              1.693              1.477
 Vibration    17          0.693              1.672              1.412
 Vibration    18          0.707              1.630              1.297
 Vibration    19          0.735              1.552              1.117
 Vibration    20          0.761              1.484              0.987
 Vibration    21          0.788              1.414              0.872
 Vibration    22          0.806              1.368              0.806
 Vibration    23          0.827              1.318              0.739
 Vibration    24          0.868              1.221              0.626
 Vibration    25          0.886              1.181              0.585
 Vibration    26          0.923              1.102              0.509

                           ! Non-Optimized Parameters !
 Normal termination of Gaussian 16 at Thu Dec 10 23:29:20 2020.

 ----------------------------------------------------------------------
 # B3LYP/6-311++G(d,p) empiricaldispersion=gd3bj scf=xqc pop=npa geom=c
 heck
 ----------------------------------------------------------------------

 --------------------------------------
 CID_65770046_JID_6477_Energie_neutraal
 --------------------------------------
 Structure from the checkpoint file:  "JID_6477.chk"
 Charge =  0 Multiplicity = 1

 SCF Done:  E(RB3LYP) =  -1448.46050558     A.U. after   16 cycles
 Normal termination of Gaussian 16 at Thu Dec 10 23:35:09 2020.

 ----------------------------------------------------------------------
 # B3LYP/6-311++G(d,p) empiricaldispersion=gd3bj scf=xqc pop=npa geom=c
 heck
 ----------------------------------------------------------------------

 ------------------------------------
 CID_65770046_JID_6477_Energie_kation
 ------------------------------------
 Structure from the checkpoint file:  "JID_6477.chk"
 Charge =  1 Multiplicity = 2

 SCF Done:  E(UB3LYP) =  -1448.15632731     A.U. after   29 cycles
 Normal termination of Gaussian 16 at Thu Dec 10 23:49:36 2020.
 Gaussian 16:  ES64L-G16RevA.03 25-Dec-2016

 ----------------------------------------------------------------------
 # B3LYP/6-311++G(d,p) empiricaldispersion=gd3bj scf=xqc pop=npa geom=c
 heck
 ----------------------------------------------------------------------

 -----------------------------------
 CID_65770046_JID_6477_Energie_anion
 -----------------------------------
 Structure from the checkpoint file:  "JID_6477.chk"
 Charge = -1 Multiplicity = 2

                         Standard orientation:
 ---------------------------------------------------------------------
 Center     Atomic      Atomic             Coordinates (Angstroms)
 Number     Number       Type             X           Y           Z
 ---------------------------------------------------------------------
      1          6           0       -3.761738    1.101905   -1.299694
      2          6           0       -2.372866    1.149606   -1.942748
      3          6           0       -1.305459    1.794097   -1.057015
      4          7           0       -1.162540    1.040924    0.203202
      5         16           0        0.223042    1.377900    1.128560
      6          8           0        0.588970    2.796525    1.041706
      7          8           0       -0.047352    0.757535    2.429345
      8          6           0        1.453428    0.475691    0.222628
      9          6           0        1.445785   -0.893050    0.067072
     10         16           0        2.787760   -1.369358   -0.923170
     11          6           0        3.344605    0.267147   -1.091345
     12          6           0        2.535277    1.145274   -0.430146
     13          6           0        0.438351   -1.896144    0.553225
     14          7           0       -0.643795   -2.035138   -0.428795
     15          6           0       -1.669920   -3.002094   -0.031121
     16          6           0       -2.503415   -2.628621    1.203229
     17          1           0       -3.776005    0.454019   -0.414921
     18          1           0       -4.503543    0.704925   -1.999974
     19          1           0       -4.092938    2.101803   -0.993249
     20          1           0       -2.047225    0.136760   -2.210175
     21          1           0       -2.419501    1.723355   -2.876765
     22          1           0       -0.336483    1.756484   -1.564146
     23          1           0       -1.534800    2.850574   -0.865209
     24          1           0       -1.961020    1.143679    0.829149
     25          1           0        4.239174    0.482147   -1.659379
     26          1           0        2.678557    2.216988   -0.385734
     27          1           0        0.919108   -2.874744    0.669419
     28          1           0        0.105701   -1.577473    1.551046
     29          1           0       -1.075262   -1.114425   -0.511543
     30          1           0       -2.337304   -3.137493   -0.891473
     31          1           0       -1.174720   -3.968752    0.130508
     32          1           0       -3.022164   -1.674917    1.043809
     33          1           0       -3.262300   -3.392836    1.408089
     34          1           0       -1.884983   -2.522608    2.100552
 ---------------------------------------------------------------------

 SCF Done:  E(UB3LYP) =  -1448.45921932     A.U. after   32 cycles

 The electronic state is 2-A.
 Alpha  occ. eigenvalues --  -88.94376 -88.74777 -19.00028 -18.99865 -14.23174
 Alpha  occ. eigenvalues --  -14.18036 -10.10511 -10.09089 -10.08558 -10.07578
 Alpha  occ. eigenvalues --  -10.07079 -10.07057 -10.06917 -10.06582 -10.06354
 Alpha  occ. eigenvalues --  -10.06338  -8.00517  -7.83423  -5.96820  -5.96769
 Alpha  occ. eigenvalues --   -5.96599  -5.79714  -5.79348  -5.79050  -1.00159
 Alpha  occ. eigenvalues --   -0.89209  -0.81824  -0.79731  -0.76143  -0.68498
 Alpha  occ. eigenvalues --   -0.65499  -0.63749  -0.61651  -0.59160  -0.55983
 Alpha  occ. eigenvalues --   -0.52933  -0.50144  -0.49482  -0.45066  -0.43717
 Alpha  occ. eigenvalues --   -0.40911  -0.40449  -0.38598  -0.36574  -0.35210
 Alpha  occ. eigenvalues --   -0.34882  -0.33970  -0.33690  -0.33412  -0.32102
 Alpha  occ. eigenvalues --   -0.31666  -0.30556  -0.29409  -0.28179  -0.26352
 Alpha  occ. eigenvalues --   -0.25823  -0.25484  -0.25351  -0.25222  -0.25064
 Alpha  occ. eigenvalues --   -0.24142  -0.23948  -0.22943  -0.20865  -0.20067
 Alpha  occ. eigenvalues --   -0.18753  -0.17069  -0.14101  -0.12537  -0.11619
 Alpha  occ. eigenvalues --    0.04385
 Alpha virt. eigenvalues --    0.06037   0.07567   0.08257   0.08432   0.09055
 Alpha virt. eigenvalues --    0.09761   0.10354   0.10956   0.11253   0.12251
 Alpha virt. eigenvalues --    0.12393   0.12830   0.13027   0.13339   0.13501

  Beta  occ. eigenvalues --  -88.94360 -88.74725 -19.00002 -18.99819 -14.23147
  Beta  occ. eigenvalues --  -14.17982 -10.10502 -10.09077 -10.08591 -10.07567
  Beta  occ. eigenvalues --  -10.07017 -10.06893 -10.06534 -10.06408 -10.06404
  Beta  occ. eigenvalues --  -10.06332  -8.00501  -7.83376  -5.96795  -5.96731
  Beta  occ. eigenvalues --   -5.96590  -5.79695  -5.79330  -5.78867  -1.00068
  Beta  occ. eigenvalues --   -0.89135  -0.81750  -0.79582  -0.75830  -0.68439
  Beta  occ. eigenvalues --   -0.65295  -0.63487  -0.61363  -0.59070  -0.55871
  Beta  occ. eigenvalues --   -0.52699  -0.50091  -0.49391  -0.44741  -0.43506
  Beta  occ. eigenvalues --   -0.40839  -0.40268  -0.38524  -0.36425  -0.35149
  Beta  occ. eigenvalues --   -0.34735  -0.33910  -0.33627  -0.33326  -0.32037
  Beta  occ. eigenvalues --   -0.31593  -0.30413  -0.29299  -0.28009  -0.26206
  Beta  occ. eigenvalues --   -0.25424  -0.25390  -0.25159  -0.25105  -0.24958
  Beta  occ. eigenvalues --   -0.24033  -0.23709  -0.22781  -0.20762  -0.19960
  Beta  occ. eigenvalues --   -0.18626  -0.16924  -0.13422  -0.11618  -0.10788
  Beta virt. eigenvalues --    0.06677   0.07625   0.08268   0.08642   0.09073
  Beta virt. eigenvalues --    0.09732   0.09860   0.10543   0.11047   0.11343
  Beta virt. eigenvalues --    0.12378   0.12407   0.12986   0.13143   0.13457

 Mulliken charges and spin densities:
               1          2
     1  C    0.964564  -1.545083
     2  C   -0.929585   0.843717
     3  C   -0.016138  -0.505133
     4  N   -0.169056  -0.073759
     5  S    0.388795   0.080324
     6  O   -0.112598  -0.001157
     7  O   -0.240261  -0.021262
     8  C   -0.975792   0.021873
     9  C    1.024097   0.410668
    10  S   -0.461424   0.138740
    11  C   -0.248578   0.122364
    12  C    0.345056  -0.056624
    13  C   -1.188984  -0.123978
    14  N   -0.036408   0.008866
    15  C   -0.085108  -0.151612
    16  C   -0.490477   0.034950
    17  H   -0.036698   0.173969
    18  H   -0.553388   0.707103
    19  H   -0.108673   0.253426
    20  H    0.067506   0.097194
    21  H   -0.176455   0.337589
    22  H    0.156985   0.039105
    23  H    0.118973   0.076025
    24  H    0.232571   0.040475
    25  H    0.206136   0.000707
    26  H    0.182958  -0.000160
    27  H    0.131115   0.014752
    28  H    0.162373   0.018266
    29  H    0.364307  -0.122565
    30  H    0.017477   0.139746
    31  H    0.116795  -0.012025
    32  H    0.136236  -0.008202
    33  H    0.080227   0.048219
    34  H    0.133455   0.013480
 Sum of Mulliken charges =  -1.00000   1.00000

 Dipole moment (field-independent basis, Debye):
    X=              2.2010    Y=             -1.9282    Z=              0.5524  Tot=              2.9779
 Quadrupole moment (field-independent basis, Debye-Ang):
   XX=           -167.1910   YY=           -144.1806   ZZ=           -146.5871
   XY=              5.3539   XZ=            -14.9271   YZ=             -7.2963

 Summary of Natural Population Analysis:

                                       Natural Population
                Natural  -----------------------------------------------
    Atom  No    Charge         Core      Valence    Rydberg      Total
 -----------------------------------------------------------------------
      C    1   -0.28967      0.99967     2.28438    0.00562     3.28967
      C    2   -0.19634      0.99964     2.18759    0.00911     3.19634
      C    3   -0.09438      0.99962     2.08250    0.01227     3.09438
      N    4   -0.44182      0.99976     2.92916    0.01289     3.94182
      S    5    1.11778      4.99916     1.78299    0.10007     6.88222
      O    6   -0.46781      0.99991     3.46225    0.00565     4.46781
      O    7   -0.46830      0.99990     3.46323    0.00517     4.46830
      C    8   -0.18510      0.99924     2.16759    0.01828     3.18510
      C    9    0.01126      0.99942     1.97573    0.01358     2.98874
      S   10    0.22682      4.99941     2.75197    0.02179     7.77318
      C   11   -0.17481      0.99955     2.16462    0.01064     3.17481
      C   12   -0.13532      0.99949     2.12600    0.00983     3.13532
      C   13   -0.11383      0.99957     2.10254    0.01172     3.11383
      N   14   -0.34032      0.99975     2.82893    0.01164     3.84032
      C   15   -0.08842      0.99965     2.07646    0.01231     3.08842
      C   16   -0.29823      0.99967     2.29333    0.00524     3.29823
      H   17    0.09459      0.00000     0.40394    0.00146     0.40541
      H   18    0.10430      0.00000     0.39357    0.00213     0.39570
      H   19    0.09625      0.00000     0.40258    0.00117     0.40375
      H   20    0.09961      0.00000     0.39880    0.00159     0.40039
      H   21    0.09809      0.00000     0.40085    0.00106     0.40191
      H   22    0.10643      0.00000     0.39236    0.00121     0.39357
      H   23    0.09032      0.00000     0.40839    0.00129     0.40968
      H   24    0.19231      0.00000     0.30563    0.00206     0.30769
      H   25    0.10067      0.00000     0.39841    0.00091     0.39933
      H   26    0.11369      0.00000     0.38528    0.00103     0.38631
      H   27    0.09453      0.00000     0.40451    0.00096     0.40547
      H   28    0.10130      0.00000     0.39742    0.00129     0.39870
      H   29    0.18230      0.00000     0.31380    0.00390     0.31770
      H   30    0.09059      0.00000     0.40844    0.00098     0.40941
      H   31    0.08457      0.00000     0.41438    0.00105     0.41543
      H   32    0.09676      0.00000     0.40185    0.00139     0.40324
      H   33    0.09386      0.00000     0.40524    0.00090     0.40614
      H   34    0.09831      0.00000     0.40084    0.00086     0.40169
 =======================================================================
   * Total *    0.00000     23.99339    45.71558    0.29103    70.00000

 Normal termination of Gaussian 16 at Fri Dec 11 00:05:29 2020.
