 Gaussian 16, Revision A.03,

 -----------------------------------------------------------
 # opt freq B3LYP/6-31G(d) empiricaldispersion=gd3bj scf=xqc
 -----------------------------------------------------------

 -------------------------------
 CID_146555775_JID_4821_neutraal
 -------------------------------
 Symbolic Z-matrix:
 Charge =  0 Multiplicity = 1

 SCF Done:  E(RB3LYP) =  -660.490495460     A.U. after   15 cycles
 SCF Done:  E(RB3LYP) =  -660.494951222     A.U. after   12 cycles
 SCF Done:  E(RB3LYP) =  -660.495704963     A.U. after   12 cycles
 SCF Done:  E(RB3LYP) =  -660.495845475     A.U. after   11 cycles
 SCF Done:  E(RB3LYP) =  -660.495875063     A.U. after   10 cycles
 SCF Done:  E(RB3LYP) =  -660.495874838     A.U. after    9 cycles
 SCF Done:  E(RB3LYP) =  -660.495879020     A.U. after    9 cycles
 SCF Done:  E(RB3LYP) =  -660.495880181     A.U. after    8 cycles
 Optimization completed.
    -- Stationary point found.
 Normal termination of Gaussian 16 at Thu Dec 10 10:34:49 2020.

 --------------------------------------------------------------------
 #N Geom=AllCheck Guess=TCheck SCRF=Check GenChk RB3LYP/6-31G(d) Freq
 --------------------------------------------------------------------

 Structure from the checkpoint file:  "JID_4821.chk"
 -------------------------------
 CID_146555775_JID_4821_neutraal
 -------------------------------
 Charge =  0 Multiplicity = 1

 SCF Done:  E(RB3LYP) =  -660.495880181     A.U. after    1 cycles

  Exact polarizability: 158.291  -4.823 116.167   5.035   1.337  70.571
 Approx polarizability: 242.343  -4.796 203.206  13.438   4.356 102.736

                      1                      2                      3
                      A                      A                      A
 Frequencies --     42.6657                63.4354                82.2113
 Red. masses --      4.2673                 4.2045                 2.0347
 Frc consts  --      0.0046                 0.0100                 0.0081
 IR Inten    --      1.3379                 0.2199                 0.1301

                      4                      5                      6
                      A                      A                      A
 Frequencies --    143.8140               155.4887               202.0326
 Red. masses --      4.4014                 4.5421                 5.2817
 Frc consts  --      0.0536                 0.0647                 0.1270
 IR Inten    --      0.4032                 1.7589                 2.2640

                      7                      8                      9
                      A                      A                      A
 Frequencies --    224.1621               252.9293               263.2386
 Red. masses --      1.0632                 1.8230                 4.5361
 Frc consts  --      0.0315                 0.0687                 0.1852
 IR Inten    --      0.1655                 0.4780                 1.5504

                     10                     11                     12
                      A                      A                      A
 Frequencies --    278.1060               309.9930               360.7742
 Red. masses --      1.9143                 3.8958                 3.8368
 Frc consts  --      0.0872                 0.2206                 0.2942
 IR Inten    --      0.3714                 2.1366                 2.1669

                     13                     14                     15
                      A                      A                      A
 Frequencies --    423.8359               465.2748               517.8420
 Red. masses --      4.4496                 3.1738                 7.8447
 Frc consts  --      0.4709                 0.4048                 1.2394
 IR Inten    --      6.3451                 2.9074                 2.1508

                     16                     17                     18
                      A                      A                      A
 Frequencies --    549.7737               561.4385               611.3422
 Red. masses --      5.0251                 4.4281                 5.5849
 Frc consts  --      0.8949                 0.8224                 1.2298
 IR Inten    --     10.3521                24.9402                 6.5508

                     19                     20                     21
                      A                      A                      A
 Frequencies --    659.5359               700.0447               709.9908
 Red. masses --      1.8804                 8.5558                 8.5798
 Frc consts  --      0.4819                 2.4704                 2.5482
 IR Inten    --     26.4322                11.0571                 6.6169

                     22                     23                     24
                      A                      A                      A
 Frequencies --    737.5739               756.5436               789.2303
 Red. masses --      2.6336                 3.2333                11.9975
 Frc consts  --      0.8441                 1.0903                 4.4030
 IR Inten    --     44.3285                17.9083                 9.8398

                     25                     26                     27
                      A                      A                      A
 Frequencies --    805.7579               865.1538               928.8972
 Red. masses --      1.3033                 2.0518                 6.5808
 Frc consts  --      0.4985                 0.9049                 3.3455
 IR Inten    --      5.5826                 3.2077                 3.6095

                     28                     29                     30
                      A                      A                      A
 Frequencies --    943.4636               979.7239              1004.3844
 Red. masses --      1.3941                 1.5692                 1.3638
 Frc consts  --      0.7311                 0.8874                 0.8106
 IR Inten    --      1.7407                10.6280                 0.2022

                     31                     32                     33
                      A                      A                      A
 Frequencies --   1031.0000              1043.0563              1064.0453
 Red. masses --      4.4288                 2.5038                 4.0566
 Frc consts  --      2.7737                 1.6050                 2.7060
 IR Inten    --     60.3601                27.5388                33.2939

                     34                     35                     36
                      A                      A                      A
 Frequencies --   1120.6205              1163.2016              1170.1823
 Red. masses --      3.4669                 2.3974                 2.8165
 Frc consts  --      2.5651                 1.9112                 2.2723
 IR Inten    --     10.8546                 7.9263                22.8355

                     37                     38                     39
                      A                      A                      A
 Frequencies --   1173.4564              1220.0331              1291.4107
 Red. masses --      2.3230                 2.0507                 4.7909
 Frc consts  --      1.8847                 1.7984                 4.7075
 IR Inten    --      7.8328                 1.6646                37.3995

                     40                     41                     42
                      A                      A                      A
 Frequencies --   1312.8652              1323.6407              1358.6071
 Red. masses --      1.4561                 3.3869                 1.3728
 Frc consts  --      1.4787                 3.4961                 1.4930
 IR Inten    --      8.7626                26.2871                 3.1057

                     43                     44                     45
                      A                      A                      A
 Frequencies --   1388.4026              1404.0396              1411.7772
 Red. masses --      1.4012                 1.6492                 2.7792
 Frc consts  --      1.5914                 1.9155                 3.2636
 IR Inten    --      2.0577                 6.4903                51.5607

                     46                     47                     48
                      A                      A                      A
 Frequencies --   1426.2055              1441.2535              1445.4943
 Red. masses --      1.9395                 1.3459                 1.2329
 Frc consts  --      2.3244                 1.6472                 1.5178
 IR Inten    --      9.7839                 6.7621                 3.6667

                     49                     50                     51
                      A                      A                      A
 Frequencies --   1461.6925              1519.4505              1523.1538
 Red. masses --      2.5564                 1.0549                 1.0769
 Frc consts  --      3.2180                 1.4350                 1.4721
 IR Inten    --      5.9003                 2.7909                10.2824

                     52                     53                     54
                      A                      A                      A
 Frequencies --   1533.1271              1537.8683              1540.8268
 Red. masses --      1.0480                 1.6948                 1.7917
 Frc consts  --      1.4513                 2.3616                 2.5062
 IR Inten    --      4.5541                29.8299                13.6713

                     55                     56                     57
                      A                      A                      A
 Frequencies --   1540.8934              1589.4516              1645.1433
 Red. masses --      1.0721                 7.5900                 5.5195
 Frc consts  --      1.4998                11.2977                 8.8016
 IR Inten    --      3.4607                54.5855               177.5707

                     58                     59                     60
                      A                      A                      A
 Frequencies --   1844.9634              3051.4942              3057.8113
 Red. masses --     10.1686                 1.0385                 1.0597
 Frc consts  --     20.3933                 5.6974                 5.8377
 IR Inten    --    593.1842                21.1510                20.8844

                     61                     62                     63
                      A                      A                      A
 Frequencies --   3069.6171              3087.3973              3101.6476
 Red. masses --      1.0353                 1.0920                 1.0959
 Frc consts  --      5.7477                 6.1330                 6.2115
 IR Inten    --     12.3269                 2.3653                 3.6606

                     64                     65                     66
                      A                      A                      A
 Frequencies --   3121.1732              3127.8588              3142.6725
 Red. masses --      1.1011                 1.1027                 1.1028
 Frc consts  --      6.3201                 6.3564                 6.4172
 IR Inten    --     31.1680                40.4982                18.5673

                     67                     68                     69
                      A                      A                      A
 Frequencies --   3150.8677              3205.8843              3592.3288
 Red. masses --      1.1029                 1.0930                 1.0784
 Frc consts  --      6.4514                 6.6185                 8.1991
 IR Inten    --     18.6659                 8.4039                67.2768

 - Thermochemistry -
 -------------------
 Temperature   298.150 Kelvin.  Pressure   1.00000 Atm.
 Atom     1 has atomic number  6 and mass  12.00000

 Molecular mass:   193.09636 amu.
 Principal axes and moments of inertia in atomic units:
                           1         2         3
     Eigenvalues --  1224.642883994.076704661.05747
           X            0.99999  -0.00322  -0.00374
           Y            0.00321   0.99999  -0.00373
           Z            0.00375   0.00372   0.99999
 This molecule is an asymmetric top.
 Rotational symmetry number  1.
 Warning -- assumption of classical behavior for rotation
           may cause significant error
 Rotational temperatures (Kelvin)      0.07073     0.02169     0.01858
 Rotational constants (GHZ):           1.47369     0.45185     0.38720
 Zero-point vibrational energy     530084.9 (Joules/Mol)
                                  126.69333 (Kcal/Mol)
 Warning -- explicit consideration of  18 degrees of freedom as
           vibrations may cause significant error
 Vibrational temperatures:     61.39    91.27   118.28   206.92   223.71
          (Kelvin)            290.68   322.52   363.91   378.74   400.13
                              446.01   519.07   609.81   669.43   745.06
                              791.00   807.78   879.59   948.93  1007.21
                             1021.52  1061.20  1088.50  1135.53  1159.31
                             1244.76  1336.48  1357.43  1409.60  1445.09
                             1483.38  1500.73  1530.92  1612.32  1673.59
                             1683.63  1688.34  1755.36  1858.05  1888.92
                             1904.42  1954.73  1997.60  2020.10  2031.23
                             2051.99  2073.64  2079.74  2103.05  2186.15
                             2191.48  2205.83  2212.65  2216.91  2217.00
                             2286.87  2366.99  2654.49  4390.42  4399.51
                             4416.49  4442.08  4462.58  4490.67  4500.29
                             4521.60  4533.40  4612.55  5168.56

 Zero-point correction=                           0.201899 (Hartree/Particle)
 Thermal correction to Energy=                    0.214200
 Thermal correction to Enthalpy=                  0.215144
 Thermal correction to Gibbs Free Energy=         0.162758
 Sum of electronic and zero-point Energies=           -660.293982
 Sum of electronic and thermal Energies=              -660.281681
 Sum of electronic and thermal Enthalpies=            -660.280736
 Sum of electronic and thermal Free Energies=         -660.333122

                     E (Thermal)             CV                S
                      KCal/Mol        Cal/Mol-Kelvin    Cal/Mol-Kelvin
 Total                  134.412             46.408            110.255
 Electronic               0.000              0.000              0.000
 Translational            0.889              2.981             41.679
 Rotational               0.889              2.981             31.500
 Vibrational            132.635             40.447             37.075
 Vibration     1          0.595              1.980              5.131
 Vibration     2          0.597              1.972              4.347
 Vibration     3          0.600              1.961              3.837
 Vibration     4          0.616              1.909              2.753
 Vibration     5          0.620              1.897              2.604
 Vibration     6          0.639              1.837              2.115
 Vibration     7          0.649              1.804              1.925
 Vibration     8          0.664              1.758              1.710
 Vibration     9          0.670              1.740              1.640
 Vibration    10          0.679              1.714              1.545
 Vibration    11          0.699              1.655              1.362
 Vibration    12          0.735              1.553              1.119
 Vibration    13          0.786              1.418              0.879
 Vibration    14          0.823              1.327              0.751
 Vibration    15          0.873              1.210              0.615
 Vibration    16          0.905              1.140              0.545
 Vibration    17          0.917              1.115              0.521
 Vibration    18          0.970              1.008              0.431

                           ! Non-Optimized Parameters !
 Normal termination of Gaussian 16 at Thu Dec 10 10:41:57 2020.

 ----------------------------------------------------------------------
 # B3LYP/6-311++G(d,p) empiricaldispersion=gd3bj scf=xqc pop=npa geom=c
 heck
 ----------------------------------------------------------------------

 ---------------------------------------
 CID_146555775_JID_4821_Energie_neutraal
 ---------------------------------------
 Structure from the checkpoint file:  "JID_4821.chk"
 Charge =  0 Multiplicity = 1

 SCF Done:  E(RB3LYP) =  -660.675652254     A.U. after   16 cycles
 Normal termination of Gaussian 16 at Thu Dec 10 10:45:26 2020.

 ----------------------------------------------------------------------
 # B3LYP/6-311++G(d,p) empiricaldispersion=gd3bj scf=xqc pop=npa geom=c
 heck
 ----------------------------------------------------------------------

 -------------------------------------
 CID_146555775_JID_4821_Energie_kation
 -------------------------------------
 Structure from the checkpoint file:  "JID_4821.chk"
 Charge =  1 Multiplicity = 2

 SCF Done:  E(UB3LYP) =  -660.342343547     A.U. after   26 cycles
 Normal termination of Gaussian 16 at Thu Dec 10 10:53:18 2020.
 Gaussian 16:  ES64L-G16RevA.03 25-Dec-2016

 ----------------------------------------------------------------------
 # B3LYP/6-311++G(d,p) empiricaldispersion=gd3bj scf=xqc pop=npa geom=c
 heck
 ----------------------------------------------------------------------

 ------------------------------------
 CID_146555775_JID_4821_Energie_anion
 ------------------------------------
 Structure from the checkpoint file:  "JID_4821.chk"
 Charge = -1 Multiplicity = 2

                         Standard orientation:
 ---------------------------------------------------------------------
 Center     Atomic      Atomic             Coordinates (Angstroms)
 Number     Number       Type             X           Y           Z
 ---------------------------------------------------------------------
      1          6           0        4.149991    0.460396   -0.939829
      2          6           0        2.627445    0.306567   -0.921304
      3          6           0        2.115316   -0.458054    0.310332
      4          6           0        2.379699    0.249079    1.641873
      5          7           0        0.679086   -0.727749    0.162814
      6          6           0       -0.365987    0.129474    0.098286
      7          6           0       -1.480609   -0.697932   -0.056409
      8          6           0       -2.801646   -0.117054   -0.162562
      9          8           0       -3.892479   -0.632875   -0.299511
     10          7           0       -2.680887    1.311856   -0.080329
     11          6           0       -1.523266    2.018547    0.072234
     12          7           0       -0.334599    1.495222    0.168108
     13          7           0       -1.068490   -1.999252   -0.080287
     14          7           0        0.225167   -2.016201    0.050221
     15          1           0        4.507626    1.087246   -0.116498
     16          1           0        4.475759    0.927795   -1.874625
     17          1           0        4.648538   -0.513481   -0.863218
     18          1           0        2.144765    1.290118   -0.952514
     19          1           0        2.301660   -0.239406   -1.814833
     20          1           0        2.562903   -1.456579    0.327147
     21          1           0        1.930999    1.246729    1.644759
     22          1           0        1.958953   -0.328252    2.470718
     23          1           0        3.455814    0.348907    1.808462
     24          1           0       -3.563169    1.807447   -0.146451
     25          1           0       -1.631621    3.099198    0.113723
 ---------------------------------------------------------------------

 SCF Done:  E(UB3LYP) =  -660.677946219     A.U. after   33 cycles
 SCF Done:  E(UB3LYP) =  -660.677946219     a.u. after    1 cycles

 The electronic state is 2-A.
 Alpha  occ. eigenvalues --  -18.97408 -14.25962 -14.24442 -14.23202 -14.20754
 Alpha  occ. eigenvalues --  -14.18380 -10.16146 -10.11829 -10.11522 -10.11385
 Alpha  occ. eigenvalues --  -10.07046 -10.06846 -10.06756 -10.06223  -0.96757
 Alpha  occ. eigenvalues --   -0.92825  -0.86222  -0.80401  -0.77212  -0.69452
 Alpha  occ. eigenvalues --   -0.67848  -0.63223  -0.56797  -0.56225  -0.54433
 Alpha  occ. eigenvalues --   -0.50219  -0.45699  -0.44886  -0.42357  -0.39412
 Alpha  occ. eigenvalues --   -0.37060  -0.36615  -0.36100  -0.33288  -0.31811
 Alpha  occ. eigenvalues --   -0.31442  -0.31039  -0.29915  -0.29031  -0.27377
 Alpha  occ. eigenvalues --   -0.26977  -0.25849  -0.24108  -0.23766  -0.21592
 Alpha  occ. eigenvalues --   -0.18995  -0.17738  -0.15868  -0.15167  -0.13820
 Alpha  occ. eigenvalues --   -0.11929   0.04418
 Alpha virt. eigenvalues --    0.06317   0.07050   0.08275   0.09379   0.09788
 Alpha virt. eigenvalues --    0.09942   0.10580   0.11869   0.12441   0.12805
 Alpha virt. eigenvalues --    0.13762   0.13955   0.14028   0.14770   0.15753

  Beta  occ. eigenvalues --  -18.97362 -14.25781 -14.24413 -14.22812 -14.20764
  Beta  occ. eigenvalues --  -14.18276 -10.16097 -10.11799 -10.11530 -10.10934
  Beta  occ. eigenvalues --  -10.07035 -10.06833 -10.06730 -10.06206  -0.96403
  Beta  occ. eigenvalues --   -0.92696  -0.85870  -0.80175  -0.76985  -0.69388
  Beta  occ. eigenvalues --   -0.67523  -0.63175  -0.56716  -0.55909  -0.53982
  Beta  occ. eigenvalues --   -0.50088  -0.45528  -0.44757  -0.42197  -0.39198
  Beta  occ. eigenvalues --   -0.36807  -0.36491  -0.35740  -0.33079  -0.31503
  Beta  occ. eigenvalues --   -0.31256  -0.30856  -0.29744  -0.28731  -0.27303
  Beta  occ. eigenvalues --   -0.26880  -0.24918  -0.24015  -0.23725  -0.21342
  Beta  occ. eigenvalues --   -0.18261  -0.17494  -0.15177  -0.15112  -0.13613
  Beta  occ. eigenvalues --   -0.10836
  Beta virt. eigenvalues --    0.06650   0.07516   0.08526   0.09520   0.09673
  Beta virt. eigenvalues --    0.10036   0.10559   0.10874   0.12009   0.12458
  Beta virt. eigenvalues --    0.12914   0.13814   0.13995   0.14783   0.14998

 Mulliken charges and spin densities:
               1          2
     1  C    0.592639  -1.214219
     2  C   -0.514411   0.579186
     3  C   -0.583093   0.107096
     4  C   -0.033540  -0.381889
     5  N    0.352857   0.049283
     6  C   -0.531908  -0.301085
     7  C    0.120086   0.181213
     8  C    0.150092  -0.057361
     9  O   -0.407065   0.024094
    10  N   -0.272452  -0.044400
    11  C    0.306180   0.084994
    12  N   -0.208021   0.054433
    13  N   -0.271696  -0.014303
    14  N    0.206943   0.192617
    15  H   -0.156701   0.299244
    16  H   -0.158168   0.300499
    17  H   -0.047423   0.177913
    18  H    0.136373   0.027876
    19  H    0.092739   0.066841
    20  H    0.165664  -0.001430
    21  H    0.124292   0.050600
    22  H    0.139775  -0.002574
    23  H   -0.040341   0.185737
    24  H    0.221351   0.104275
    25  H   -0.384172   0.531362
 Sum of Mulliken charges =  -1.00000   1.00000

 Dipole moment (field-independent basis, Debye):
    X=              2.1900    Y=              1.7894    Z=              0.1682  Tot=              2.8330
 Quadrupole moment (field-independent basis, Debye-Ang):
   XX=           -143.3795   YY=           -118.5630   ZZ=            -96.7475
   XY=            -12.9694   XZ=              2.5134   YZ=             -4.1071

 Summary of Natural Population Analysis:

                                       Natural Population
                Natural  -----------------------------------------------
    Atom  No    Charge         Core      Valence    Rydberg      Total
 -----------------------------------------------------------------------
      C    1   -0.28747      0.99967     2.28325    0.00455     3.28747
      C    2   -0.19630      0.99962     2.18759    0.00909     3.19630
      C    3   -0.00408      0.99960     1.99230    0.01218     3.00408
      C    4   -0.29345      0.99964     2.28850    0.00531     3.29345
      N    5   -0.10202      0.99959     2.58756    0.01487     3.60202
      C    6    0.17834      0.99945     1.80752    0.01468     2.82166
      C    7   -0.03382      0.99941     2.01970    0.01471     3.03382
      C    8    0.32640      0.99961     1.65133    0.02266     2.67360
      O    9   -0.31446      0.99987     3.30867    0.00592     4.31446
      N   10   -0.30525      0.99968     2.79719    0.00837     3.80525
      C   11    0.23167      0.99967     1.75066    0.01800     2.76833
      N   12   -0.26989      0.99968     2.76006    0.01015     3.76989
      N   13   -0.13127      0.99973     2.61729    0.01425     3.63127
      N   14    0.01255      0.99979     2.47369    0.01398     3.48745
      H   15    0.09760      0.00000     0.40134    0.00106     0.40240
      H   16    0.10029      0.00000     0.39882    0.00089     0.39971
      H   17    0.09413      0.00000     0.40491    0.00097     0.40587
      H   18    0.10717      0.00000     0.39115    0.00168     0.39283
      H   19    0.09940      0.00000     0.39947    0.00112     0.40060
      H   20    0.10236      0.00000     0.39513    0.00251     0.39764
      H   21    0.11054      0.00000     0.38806    0.00140     0.38946
      H   22    0.10205      0.00000     0.39715    0.00079     0.39795
      H   23    0.09823      0.00000     0.40102    0.00075     0.40177
      H   24    0.19729      0.00000     0.29990    0.00281     0.30271
      H   25    0.07997      0.00000     0.41874    0.00129     0.42003
 =======================================================================
   * Total *   -0.00000     13.99502    36.82101    0.18398    51.00000

 Normal termination of Gaussian 16 at Thu Dec 10 11:03:57 2020.
