 Gaussian 16, Revision A.03,

 -----------------------------------------------------------
 # opt freq B3LYP/6-31G(d) empiricaldispersion=gd3bj scf=xqc
 -----------------------------------------------------------

 --------------------------------
 CID_102704333_JID_10381_neutraal
 --------------------------------
 Symbolic Z-matrix:
 Charge =  0 Multiplicity = 1

 SCF Done:  E(RB3LYP) =  -1280.08961935     A.U. after   15 cycles
 SCF Done:  E(RB3LYP) =  -1280.09563715     A.U. after   12 cycles
 SCF Done:  E(RB3LYP) =  -1280.09665357     A.U. after   12 cycles
 SCF Done:  E(RB3LYP) =  -1280.09716314     A.U. after   11 cycles
 SCF Done:  E(RB3LYP) =  -1280.09742836     A.U. after   11 cycles
 SCF Done:  E(RB3LYP) =  -1280.09756596     A.U. after   11 cycles
 SCF Done:  E(RB3LYP) =  -1280.09760087     A.U. after   10 cycles
 SCF Done:  E(RB3LYP) =  -1280.09762202     A.U. after   10 cycles
 SCF Done:  E(RB3LYP) =  -1280.09763084     A.U. after    9 cycles
 SCF Done:  E(RB3LYP) =  -1280.09764025     A.U. after    9 cycles
 SCF Done:  E(RB3LYP) =  -1280.09921588     A.U. after    9 cycles
 SCF Done:  E(RB3LYP) =  -1280.09921617     A.U. after    8 cycles
 SCF Done:  E(RB3LYP) =  -1280.09921620     A.U. after    7 cycles
 SCF Done:  E(RB3LYP) =  -1280.09921621     A.U. after    6 cycles
 Optimization completed.
    -- Stationary point found.
 Normal termination of Gaussian 16 at Sun Dec 13 20:50:56 2020.

 --------------------------------------------------------------------
 #N Geom=AllCheck Guess=TCheck SCRF=Check GenChk RB3LYP/6-31G(d) Freq
 --------------------------------------------------------------------

 Structure from the checkpoint file:  "JID_10381.chk"
 --------------------------------
 CID_102704333_JID_10381_neutraal
 --------------------------------
 Charge =  0 Multiplicity = 1

 SCF Done:  E(RB3LYP) =  -1280.09921621     A.U. after    1 cycles

  Exact polarizability: 240.346   0.313 180.371   5.409   4.678 137.434
 Approx polarizability: 297.771   2.515 298.870  13.968  15.499 218.431

                      1                      2                      3
                      A                      A                      A
 Frequencies --     15.5325                29.6074                41.6530
 Red. masses --      4.0764                 3.2592                 5.0278
 Frc consts  --      0.0006                 0.0017                 0.0051
 IR Inten    --      0.3984                 0.2232                 1.8358

                      4                      5                      6
                      A                      A                      A
 Frequencies --     51.6214                60.9613                91.1663
 Red. masses --      3.9790                 4.2888                 3.0622
 Frc consts  --      0.0062                 0.0094                 0.0150
 IR Inten    --      0.4244                 0.2120                 1.1696

                      7                      8                      9
                      A                      A                      A
 Frequencies --    117.7936               123.6220               141.3018
 Red. masses --      2.9722                 2.9357                 3.1146
 Frc consts  --      0.0243                 0.0264                 0.0366
 IR Inten    --      4.6800                 5.8217                 2.5499

                     10                     11                     12
                      A                      A                      A
 Frequencies --    147.9671               162.9680               183.3335
 Red. masses --      1.3807                 2.4840                 3.0200
 Frc consts  --      0.0178                 0.0389                 0.0598
 IR Inten    --      0.3503                 0.5006                 1.8293

                     13                     14                     15
                      A                      A                      A
 Frequencies --    202.2381               238.8660               244.8053
 Red. masses --      3.6625                 4.0099                 1.9674
 Frc consts  --      0.0883                 0.1348                 0.0695
 IR Inten    --      1.4176                 1.6811                 2.1761

                     16                     17                     18
                      A                      A                      A
 Frequencies --    269.5862               286.7422               295.9243
 Red. masses --      2.3877                 2.6641                 4.4138
 Frc consts  --      0.1022                 0.1291                 0.2277
 IR Inten    --      3.3981                 1.5076                 3.5550

                     19                     20                     21
                      A                      A                      A
 Frequencies --    310.8265               358.6822               373.0888
 Red. masses --      3.7065                 2.7420                 3.4279
 Frc consts  --      0.2110                 0.2078                 0.2811
 IR Inten    --      0.7976                 2.3027                 5.0570

                     22                     23                     24
                      A                      A                      A
 Frequencies --    381.9595               414.0530               431.2415
 Red. masses --      3.0129                 2.7312                 2.6694
 Frc consts  --      0.2590                 0.2759                 0.2925
 IR Inten    --      4.1861                 3.4953                13.0888

                     25                     26                     27
                      A                      A                      A
 Frequencies --    450.4990               464.2702               489.9525
 Red. masses --      3.2307                 5.0624                 3.3206
 Frc consts  --      0.3863                 0.6429                 0.4697
 IR Inten    --     10.2242                31.9054                16.9590

                     28                     29                     30
                      A                      A                      A
 Frequencies --    511.5349               529.3938               551.9928
 Red. masses --      4.0670                 3.3980                 4.1018
 Frc consts  --      0.6270                 0.5611                 0.7364
 IR Inten    --      2.4726                 5.8054                 3.5376

                     31                     32                     33
                      A                      A                      A
 Frequencies --    555.2088               571.8892               627.5229
 Red. masses --      5.3934                 2.9740                 4.9465
 Frc consts  --      0.9796                 0.5731                 1.1476
 IR Inten    --     51.1291                 9.9408                 7.2469

                     34                     35                     36
                      A                      A                      A
 Frequencies --    683.1439               714.5831               746.2419
 Red. masses --      4.4698                 4.2012                 2.4912
 Frc consts  --      1.2290                 1.2640                 0.8174
 IR Inten    --     60.8516               137.3174                61.3088

                     37                     38                     39
                      A                      A                      A
 Frequencies --    764.0451               788.7242               821.9698
 Red. masses --      4.2664                 2.1434                 1.5077
 Frc consts  --      1.4674                 0.7856                 0.6002
 IR Inten    --     21.4505               180.7841                 0.3446

                     40                     41                     42
                      A                      A                      A
 Frequencies --    832.9171               847.6138               866.5292
 Red. masses --      3.0486                 1.4690                 1.4682
 Frc consts  --      1.2461                 0.6218                 0.6495
 IR Inten    --     27.2704                14.6613                24.7481

                     43                     44                     45
                      A                      A                      A
 Frequencies --    901.0799               901.9790               926.9905
 Red. masses --      2.4550                 1.5481                 2.4832
 Frc consts  --      1.1744                 0.7420                 1.2572
 IR Inten    --      0.1198                 4.5940                 8.4130

                     46                     47                     48
                      A                      A                      A
 Frequencies --    930.4154               953.8208               971.5762
 Red. masses --      2.9418                 2.9119                 1.2966
 Frc consts  --      1.5004                 1.5608                 0.7211
 IR Inten    --    152.4868                 9.1297                 0.5941

                     49                     50                     51
                      A                      A                      A
 Frequencies --    973.3479               996.3656              1042.8755
 Red. masses --      1.3193                 1.5943                 2.1246
 Frc consts  --      0.7364                 0.9325                 1.3614
 IR Inten    --      3.0270                10.0670                44.5142

                     52                     53                     54
                      A                      A                      A
 Frequencies --   1046.9660              1052.1798              1081.3298
 Red. masses --      2.3954                 4.4150                 2.3283
 Frc consts  --      1.5470                 2.8798                 1.6040
 IR Inten    --     31.6544                51.7051                 3.6273

                     55                     56                     57
                      A                      A                      A
 Frequencies --   1081.6824              1118.5012              1135.6899
 Red. masses --      2.9794                 5.5227                 2.5980
 Frc consts  --      2.0539                 4.0708                 1.9743
 IR Inten    --     14.6633               114.7711                33.0028

                     58                     59                     60
                      A                      A                      A
 Frequencies --   1140.4886              1161.5293              1178.6560
 Red. masses --      2.7721                 1.4693                 1.5667
 Frc consts  --      2.1245                 1.1679                 1.2823
 IR Inten    --     20.3476                14.3026                14.1716

                     61                     62                     63
                      A                      A                      A
 Frequencies --   1180.0928              1184.3399              1188.7287
 Red. masses --      1.6227                 1.4190                 2.3184
 Frc consts  --      1.3315                 1.1727                 1.9302
 IR Inten    --      9.3232                 7.5965                16.1286

                     64                     65                     66
                      A                      A                      A
 Frequencies --   1191.4223              1197.9842              1222.9599
 Red. masses --      1.5421                 1.2854                 1.4674
 Frc consts  --      1.2897                 1.0869                 1.2931
 IR Inten    --     19.1663                 1.5482                 1.7485

                     67                     68                     69
                      A                      A                      A
 Frequencies --   1243.2220              1274.0104              1298.2682
 Red. masses --      1.8145                 1.8103                 1.2523
 Frc consts  --      1.6524                 1.7312                 1.2436
 IR Inten    --     10.3391                29.5168                 3.4172

                     70                     71                     72
                      A                      A                      A
 Frequencies --   1300.4151              1309.8111              1327.8493
 Red. masses --      2.5988                 9.8493                 1.1525
 Frc consts  --      2.5893                 9.9557                 1.1973
 IR Inten    --     73.5853               182.6464                16.6402

                     73                     74                     75
                      A                      A                      A
 Frequencies --   1328.5500              1358.4138              1370.3504
 Red. masses --      1.7507                 3.9122                 1.4212
 Frc consts  --      1.8206                 4.2534                 1.5725
 IR Inten    --     39.1913                 0.3450                 5.6790

                     76                     77                     78
                      A                      A                      A
 Frequencies --   1372.6318              1383.5946              1399.8025
 Red. masses --      1.2904                 1.2671                 1.3372
 Frc consts  --      1.4325                 1.4291                 1.5437
 IR Inten    --      0.7283                16.8667                 0.8458

                     79                     80                     81
                      A                      A                      A
 Frequencies --   1407.5610              1408.0580              1423.8515
 Red. masses --      1.4111                 1.3908                 1.3348
 Frc consts  --      1.6472                 1.6247                 1.5944
 IR Inten    --      5.0359                 4.3069                38.8284

                     82                     83                     84
                      A                      A                      A
 Frequencies --   1454.4523              1480.3973              1498.5044
 Red. masses --      2.3555                 1.1614                 1.3356
 Frc consts  --      2.9358                 1.4997                 1.7670
 IR Inten    --     78.0765                 0.7208                 1.8574

                     85                     86                     87
                      A                      A                      A
 Frequencies --   1503.7930              1506.5643              1512.1911
 Red. masses --      1.2045                 1.0863                 1.0932
 Frc consts  --      1.6048                 1.4527                 1.4728
 IR Inten    --      0.4472                 2.1397                 2.6031

                     88                     89                     90
                      A                      A                      A
 Frequencies --   1513.6937              1514.0197              1514.8248
 Red. masses --      1.1145                 1.1477                 1.0960
 Frc consts  --      1.5045                 1.5500                 1.4818
 IR Inten    --      7.6635                 9.7670                 4.8051

                     91                     92                     93
                      A                      A                      A
 Frequencies --   1518.3059              1520.0241              1525.0175
 Red. masses --      1.0831                 1.0789                 2.0297
 Frc consts  --      1.4710                 1.4687                 2.7812
 IR Inten    --     11.5418                 2.7734                30.9438

                     94                     95                     96
                      A                      A                      A
 Frequencies --   1532.2349              1534.1852              1550.7157
 Red. masses --      1.1000                 1.0615                 1.0479
 Frc consts  --      1.5215                 1.4721                 1.4846
 IR Inten    --      4.0113                 9.5758                11.5378

                     97                     98                     99
                      A                      A                      A
 Frequencies --   1625.0078              1654.3740              2992.0723
 Red. masses --      6.9153                 6.0148                 1.0528
 Frc consts  --     10.7590                 9.6993                 5.5533
 IR Inten    --     33.9961                42.0789                49.8648

                    100                    101                    102
                      A                      A                      A
 Frequencies --   3019.3410              3033.6265              3038.3237
 Red. masses --      1.0691                 1.0725                 1.0732
 Frc consts  --      5.7422                 5.8151                 5.8369
 IR Inten    --     27.4934                 8.2966                62.1047

                    103                    104                    105
                      A                      A                      A
 Frequencies --   3042.3244              3050.0093              3050.1721
 Red. masses --      1.0377                 1.0610                 1.0593
 Frc consts  --      5.6588                 5.8154                 5.8064
 IR Inten    --     49.4619                29.4060                33.4073

                    106                    107                    108
                      A                      A                      A
 Frequencies --   3054.6550              3075.6475              3081.8848
 Red. masses --      1.0636                 1.0825                 1.0934
 Frc consts  --      5.8473                 6.0335                 6.1185
 IR Inten    --     35.0894                50.5308                54.9240

                    109                    110                    111
                      A                      A                      A
 Frequencies --   3094.5445              3094.5620              3108.9833
 Red. masses --      1.1045                 1.1061                 1.1007
 Frc consts  --      6.2320                 6.2407                 6.2685
 IR Inten    --     22.1121                36.0580                32.8941

                    112                    113                    114
                      A                      A                      A
 Frequencies --   3122.3750              3126.9744              3140.9352
 Red. masses --      1.1015                 1.0984                 1.0940
 Frc consts  --      6.3271                 6.3278                 6.3590
 IR Inten    --     32.9097                21.8403                12.8632

                    115                    116                    117
                      A                      A                      A
 Frequencies --   3165.6362              3171.2244              3181.3278
 Red. masses --      1.0922                 1.1052                 1.0894
 Frc consts  --      6.4489                 6.5485                 6.4961
 IR Inten    --      3.3634                20.7764                12.3325

                    118                    119                    120
                      A                      A                      A
 Frequencies --   3197.0882              3232.8996              3488.0058
 Red. masses --      1.0904                 1.0912                 1.0739
 Frc consts  --      6.5668                 6.7196                 7.6979
 IR Inten    --      7.1309                 2.5473                 0.8141

 - Thermochemistry -
 -------------------
 Temperature   298.150 Kelvin.  Pressure   1.00000 Atm.
 Atom     1 has atomic number  6 and mass  12.00000

 Molecular mass:   298.13511 amu.
 Principal axes and moments of inertia in atomic units:
                           1         2         3
     Eigenvalues --  2782.54056********************
           X            0.99996  -0.00748  -0.00478
           Y            0.00736   0.99964  -0.02563
           Z            0.00497   0.02559   0.99966
 This molecule is an asymmetric top.
 Rotational symmetry number  1.
 Warning -- assumption of classical behavior for rotation
           may cause significant error
 Rotational temperatures (Kelvin)      0.03113     0.00811     0.00734
 Rotational constants (GHZ):           0.64859     0.16891     0.15288
 Zero-point vibrational energy     940754.6 (Joules/Mol)
                                  224.84574 (Kcal/Mol)
 Warning -- explicit consideration of  32 degrees of freedom as
           vibrations may cause significant error
 Vibrational temperatures:     22.35    42.60    59.93    74.27    87.71
          (Kelvin)            131.17   169.48   177.86   203.30   212.89
                              234.47   263.78   290.98   343.67   352.22
                              387.87   412.56   425.77   447.21   516.06
                              536.79   549.55   595.73   620.46   648.17
                              667.98   704.93   735.98   761.68   794.19
                              798.82   822.82   902.87   982.89  1028.13
                             1073.68  1099.29  1134.80  1182.63  1198.38
                             1219.53  1246.74  1296.45  1297.75  1333.73
                             1338.66  1372.34  1397.88  1400.43  1433.55
                             1500.47  1506.35  1513.85  1555.79  1556.30
                             1609.27  1634.00  1640.91  1671.18  1695.82
                             1697.89  1704.00  1710.32  1714.19  1723.63
                             1759.57  1788.72  1833.02  1867.92  1871.01
                             1884.53  1910.48  1911.49  1954.45  1971.63
                             1974.91  1990.68  2014.00  2025.17  2025.88
                             2048.60  2092.63  2129.96  2156.01  2163.62
                             2167.61  2175.71  2177.87  2178.34  2179.50
                             2184.50  2186.98  2194.16  2204.54  2207.35
                             2231.13  2338.02  2380.28  4304.92  4344.16
                             4364.71  4371.47  4377.23  4388.28  4388.52
                             4394.97  4425.17  4434.14  4452.36  4452.38
                             4473.13  4492.40  4499.02  4519.11  4554.64
                             4562.68  4577.22  4599.90  4651.42  5018.46

 Zero-point correction=                           0.358314 (Hartree/Particle)
 Thermal correction to Energy=                    0.378523
 Thermal correction to Enthalpy=                  0.379467
 Thermal correction to Gibbs Free Energy=         0.307707
 Sum of electronic and zero-point Energies=          -1279.740902
 Sum of electronic and thermal Energies=             -1279.720693
 Sum of electronic and thermal Enthalpies=           -1279.719749
 Sum of electronic and thermal Free Energies=        -1279.791509

                     E (Thermal)             CV                S
                      KCal/Mol        Cal/Mol-Kelvin    Cal/Mol-Kelvin
 Total                  237.527             76.352            151.032
 Electronic               0.000              0.000              0.000
 Translational            0.889              2.981             42.974
 Rotational               0.889              2.981             34.217
 Vibrational            235.749             70.390             73.841
 Vibration     1          0.593              1.986              7.136
 Vibration     2          0.593              1.984              5.856
 Vibration     3          0.594              1.981              5.179
 Vibration     4          0.596              1.977              4.754
 Vibration     5          0.597              1.973              4.426
 Vibration     6          0.602              1.955              3.635
 Vibration     7          0.608              1.935              3.136
 Vibration     8          0.610              1.929              3.043
 Vibration     9          0.615              1.912              2.786
 Vibration    10          0.617              1.905              2.698
 Vibration    11          0.623              1.888              2.515
 Vibration    12          0.631              1.863              2.294
 Vibration    13          0.639              1.837              2.113
 Vibration    14          0.657              1.781              1.811
 Vibration    15          0.660              1.771              1.768
 Vibration    16          0.674              1.729              1.599
 Vibration    17          0.684              1.698              1.493
 Vibration    18          0.690              1.681              1.440
 Vibration    19          0.700              1.653              1.358
 Vibration    20          0.734              1.557              1.128
 Vibration    21          0.744              1.527              1.067
 Vibration    22          0.751              1.509              1.031
 Vibration    23          0.778              1.440              0.912
 Vibration    24          0.792              1.402              0.855
 Vibration    25          0.809              1.360              0.794
 Vibration    26          0.822              1.329              0.754
 Vibration    27          0.846              1.272              0.684
 Vibration    28          0.867              1.224              0.630
 Vibration    29          0.884              1.185              0.589
 Vibration    30          0.907              1.135              0.540
 Vibration    31          0.911              1.128              0.533
 Vibration    32          0.928              1.092              0.501

 Optimization completed.
    -- Stationary point found.
 Normal termination of Gaussian 16 at Sun Dec 13 21:16:25 2020.

 ----------------------------------------------------------------------
 # B3LYP/6-311++G(d,p) empiricaldispersion=gd3bj scf=xqc pop=npa geom=c
 heck
 ----------------------------------------------------------------------

 ----------------------------------------
 CID_102704333_JID_10381_Energie_neutraal
 ----------------------------------------
 Structure from the checkpoint file:  "JID_10381.chk"
 Charge =  0 Multiplicity = 1

 SCF Done:  E(RB3LYP) =  -1280.37013298     A.U. after   17 cycles
 Normal termination of Gaussian 16 at Sun Dec 13 21:30:09 2020.

 ----------------------------------------------------------------------
 # B3LYP/6-311++G(d,p) empiricaldispersion=gd3bj scf=xqc pop=npa geom=c
 heck
 ----------------------------------------------------------------------

 --------------------------------------
 CID_102704333_JID_10381_Energie_kation
 --------------------------------------
 Structure from the checkpoint file:  "JID_10381.chk"
 Charge =  1 Multiplicity = 2

 SCF Done:  E(UB3LYP) =  -1280.07300127     A.U. after   33 cycles
 SCF Done:  E(UB3LYP) =  -1280.07300127     a.u. after    1 cycles
 Normal termination of Gaussian 16 at Sun Dec 13 22:09:06 2020.
 Gaussian 16:  ES64L-G16RevA.03 25-Dec-2016

 ----------------------------------------------------------------------
 # B3LYP/6-311++G(d,p) empiricaldispersion=gd3bj scf=xqc pop=npa geom=c
 heck
 ----------------------------------------------------------------------

 -------------------------------------
 CID_102704333_JID_10381_Energie_anion
 -------------------------------------
 Structure from the checkpoint file:  "JID_10381.chk"
 Charge = -1 Multiplicity = 2

                         Standard orientation:
 ---------------------------------------------------------------------
 Center     Atomic      Atomic             Coordinates (Angstroms)
 Number     Number       Type             X           Y           Z
 ---------------------------------------------------------------------
      1          6           0       -5.358992   -0.665131    1.319612
      2          7           0       -5.216732   -1.574180    0.185594
      3          6           0       -4.502974   -0.997662   -0.958441
      4          6           0       -3.064448   -0.598343   -0.680726
      5          6           0       -2.737041    0.714238   -0.329260
      6          6           0       -1.429234    1.065346    0.008456
      7          6           0       -0.425944    0.085810   -0.018987
      8          6           0       -0.741490   -1.230830   -0.356556
      9          6           0       -2.051149   -1.565691   -0.688491
     10         16           0        1.249224    0.584692    0.391591
     11          8           0        1.625150    1.645021   -0.556582
     12          8           0        1.347757    0.808752    1.836507
     13          7           0        2.124320   -0.809800    0.037210
     14          6           0        2.963832   -1.376442    1.107957
     15          6           0        4.364620   -0.759115    1.126993
     16          6           0        5.026515   -0.866287   -0.254052
     17          6           0        4.128953   -0.264209   -1.344333
     18          6           0        2.729900   -0.886368   -1.305252
     19          8           0       -1.129155    2.333300    0.420937
     20          6           0       -1.066575    3.317979   -0.618209
     21          1           0       -5.958145    0.199168    1.008576
     22          1           0       -4.410378   -0.284246    1.733186
     23          1           0       -5.903422   -1.177344    2.119068
     24          1           0       -4.726554   -2.414238    0.488929
     25          1           0       -4.529091   -1.735131   -1.769175
     26          1           0       -5.072477   -0.123475   -1.296449
     27          1           0       -3.504626    1.482346   -0.295600
     28          1           0        0.047613   -1.973325   -0.364374
     29          1           0       -2.289537   -2.591540   -0.959238
     30          1           0        3.026630   -2.455504    0.910701
     31          1           0        2.450669   -1.235342    2.058599
     32          1           0        4.973910   -1.261990    1.888295
     33          1           0        4.276443    0.293221    1.424229
     34          1           0        6.003295   -0.368962   -0.249158
     35          1           0        5.213845   -1.926492   -0.482061
     36          1           0        4.026548    0.816168   -1.194851
     37          1           0        4.568880   -0.420957   -2.337180
     38          1           0        2.060823   -0.404079   -2.019929
     39          1           0        2.777576   -1.953507   -1.562539
     40          1           0       -0.896707    4.271255   -0.115579
     41          1           0       -0.232588    3.100423   -1.291359
     42          1           0       -2.009264    3.359980   -1.178325
 ---------------------------------------------------------------------

 SCF Done:  E(UB3LYP) =  -1280.36505259     A.U. after   33 cycles
 SCF Done:  E(UB3LYP) =  -1280.36505259     a.u. after    1 cycles

 The electronic state is 2-A.
 Alpha  occ. eigenvalues --  -88.95289 -19.03865 -19.00504 -19.00444 -14.23918
 Alpha  occ. eigenvalues --  -14.20357 -10.12730 -10.11918 -10.11089 -10.11007
 Alpha  occ. eigenvalues --  -10.09564 -10.09353 -10.08241 -10.07959 -10.07766
 Alpha  occ. eigenvalues --  -10.07510 -10.07297 -10.06654 -10.06467 -10.06410
 Alpha  occ. eigenvalues --   -8.01376  -5.97697  -5.97624  -5.97448  -1.00805
 Alpha  occ. eigenvalues --   -0.95693  -0.89760  -0.84097  -0.80969  -0.75356
 Alpha  occ. eigenvalues --   -0.70838  -0.67345  -0.67026  -0.64951  -0.61472
 Alpha  occ. eigenvalues --   -0.59901  -0.58235  -0.54786  -0.54249  -0.51698
 Alpha  occ. eigenvalues --   -0.50729  -0.48531  -0.46202  -0.42705  -0.41847
 Alpha  occ. eigenvalues --   -0.40074  -0.39403  -0.38139  -0.37664  -0.36831
 Alpha  occ. eigenvalues --   -0.36475  -0.36130  -0.35404  -0.35103  -0.34670
 Alpha  occ. eigenvalues --   -0.33963  -0.32950  -0.32150  -0.31655  -0.31234
 Alpha  occ. eigenvalues --   -0.30255  -0.28326  -0.28007  -0.27355  -0.27090
 Alpha  occ. eigenvalues --   -0.26705  -0.26527  -0.25231  -0.24646  -0.23998
 Alpha  occ. eigenvalues --   -0.23582  -0.23476  -0.21814  -0.20221  -0.19797
 Alpha  occ. eigenvalues --   -0.18052  -0.15492  -0.14969  -0.14253  -0.12932
 Alpha  occ. eigenvalues --    0.04067
 Alpha virt. eigenvalues --    0.05678   0.06869   0.07116   0.07477   0.07709
 Alpha virt. eigenvalues --    0.08182   0.08387   0.08973   0.09498   0.09983
 Alpha virt. eigenvalues --    0.10464   0.10837   0.10909   0.11421   0.11743

  Beta  occ. eigenvalues --  -88.95288 -19.03865 -19.00463 -19.00415 -14.23922
  Beta  occ. eigenvalues --  -14.20313 -10.12662 -10.11898 -10.11076 -10.10990
  Beta  occ. eigenvalues --  -10.09573 -10.09346 -10.08043 -10.07944 -10.07759
  Beta  occ. eigenvalues --  -10.07505 -10.07251 -10.06654 -10.06420 -10.06193
  Beta  occ. eigenvalues --   -8.01375  -5.97693  -5.97614  -5.97453  -1.00733
  Beta  occ. eigenvalues --   -0.95657  -0.89678  -0.84080  -0.80861  -0.75114
  Beta  occ. eigenvalues --   -0.70796  -0.67122  -0.66900  -0.64794  -0.61364
  Beta  occ. eigenvalues --   -0.59843  -0.58147  -0.54636  -0.54212  -0.51628
  Beta  occ. eigenvalues --   -0.50652  -0.48420  -0.46068  -0.42658  -0.41773
  Beta  occ. eigenvalues --   -0.40005  -0.39314  -0.38087  -0.37583  -0.36795
  Beta  occ. eigenvalues --   -0.36352  -0.36091  -0.35287  -0.35029  -0.34590
  Beta  occ. eigenvalues --   -0.33890  -0.32881  -0.32118  -0.31606  -0.31190
  Beta  occ. eigenvalues --   -0.30232  -0.28180  -0.27846  -0.27267  -0.26924
  Beta  occ. eigenvalues --   -0.26673  -0.26498  -0.25047  -0.24603  -0.23840
  Beta  occ. eigenvalues --   -0.23541  -0.23398  -0.21641  -0.20129  -0.19651
  Beta  occ. eigenvalues --   -0.17968  -0.15016  -0.14615  -0.13861  -0.12552
  Beta virt. eigenvalues --    0.06144   0.06557   0.07346   0.07719   0.07889
  Beta virt. eigenvalues --    0.08161   0.08461   0.08683   0.09131   0.09578
  Beta virt. eigenvalues --    0.10144   0.10600   0.10863   0.11017   0.11448

 Mulliken charges and spin densities:
               1          2
     1  C   -0.289623  -0.175712
     2  N   -0.068969  -0.036201
     3  C    0.353150  -0.845868
     4  C    0.498175   0.395659
     5  C    0.257646  -0.142098
     6  C   -1.105520   0.303498
     7  C   -0.040738   0.183698
     8  C   -0.101778  -0.154366
     9  C   -1.378752   0.266919
    10  S    1.277546  -0.697835
    11  O   -0.104848   0.005504
    12  O   -0.013468  -0.009977
    13  N   -0.216469   0.071335
    14  C    0.006949  -0.306050
    15  C   -0.488498   0.275675
    16  C    0.438235  -0.932103
    17  C   -0.474033   0.100760
    18  C    0.216207  -0.340082
    19  O   -0.085422  -0.001667
    20  C   -0.138807  -0.146974
    21  H    0.099387   0.042151
    22  H    0.133779   0.010513
    23  H    0.032419   0.091435
    24  H    0.128260   0.099442
    25  H   -0.053039   0.239684
    26  H   -0.017126   0.167004
    27  H    0.094903   0.066519
    28  H    0.220896  -0.028713
    29  H   -0.467665   0.643362
    30  H   -0.185789   0.343961
    31  H    0.186171   0.039671
    32  H   -0.012319   0.192728
    33  H    0.164732  -0.000975
    34  H   -0.057107   0.206865
    35  H   -0.051369   0.170149
    36  H    0.194008  -0.022902
    37  H   -0.077130   0.247320
    38  H    0.195436   0.004827
    39  H   -0.354159   0.526498
    40  H    0.116052   0.026096
    41  H    0.130689   0.049397
    42  H    0.037988   0.070851
 Sum of Mulliken charges =  -1.00000   1.00000

 Dipole moment (field-independent basis, Debye):
    X=              0.6121    Y=              3.1499    Z=              0.7589  Tot=              3.2973
 Quadrupole moment (field-independent basis, Debye-Ang):
   XX=           -214.0135   YY=           -166.3578   ZZ=           -157.7756
   XY=             -5.7471   XZ=             -3.2223   YZ=            -10.8123

 Summary of Natural Population Analysis:

                                       Natural Population
                Natural  -----------------------------------------------
    Atom  No    Charge         Core      Valence    Rydberg      Total
 -----------------------------------------------------------------------
      C    1   -0.18141      0.99966     2.17488    0.00687     3.18141
      N    2   -0.33089      0.99976     2.81893    0.01220     3.83089
      C    3   -0.09688      0.99959     2.08366    0.01363     3.09688
      C    4    0.02334      0.99951     1.96805    0.00910     2.97666
      C    5   -0.12651      0.99947     2.11729    0.00975     3.12651
      C    6    0.17381      0.99932     1.81273    0.01415     2.82619
      C    7   -0.12169      0.99930     2.10773    0.01466     3.12169
      C    8   -0.08375      0.99952     2.07483    0.00940     3.08375
      C    9   -0.10992      0.99951     2.10003    0.01038     3.10992
      S   10    1.11916      4.99911     1.78152    0.10021     6.88084
      O   11   -0.47135      0.99990     3.46595    0.00550     4.47135
      O   12   -0.46038      0.99990     3.45528    0.00520     4.46038
      N   13   -0.38318      0.99974     2.86856    0.01487     3.88318
      C   14   -0.08642      0.99960     2.07474    0.01208     3.08642
      C   15   -0.19998      0.99962     2.19183    0.00853     3.19998
      C   16   -0.19122      0.99963     2.18333    0.00826     3.19122
      C   17   -0.20162      0.99962     2.19355    0.00844     3.20162
      C   18   -0.08663      0.99960     2.07455    0.01248     3.08663
      O   19   -0.28987      0.99986     3.28008    0.00993     4.28987
      C   20   -0.09549      0.99959     2.08815    0.00775     3.09549
      H   21    0.08791      0.00000     0.41099    0.00110     0.41209
      H   22    0.08627      0.00000     0.41221    0.00152     0.41373
      H   23    0.09075      0.00000     0.40842    0.00084     0.40925
      H   24    0.16970      0.00000     0.32725    0.00304     0.33030
      H   25    0.09990      0.00000     0.39867    0.00143     0.40010
      H   26    0.09128      0.00000     0.40769    0.00102     0.40872
      H   27    0.10003      0.00000     0.39873    0.00124     0.39997
      H   28    0.11016      0.00000     0.38835    0.00149     0.38984
      H   29    0.09910      0.00000     0.39964    0.00126     0.40090
      H   30    0.09340      0.00000     0.40530    0.00130     0.40660
      H   31    0.11443      0.00000     0.38448    0.00109     0.38557
      H   32    0.09814      0.00000     0.40101    0.00085     0.40186
      H   33    0.10075      0.00000     0.39802    0.00124     0.39925
      H   34    0.09763      0.00000     0.40149    0.00087     0.40237
      H   35    0.09360      0.00000     0.40494    0.00146     0.40640
      H   36    0.10557      0.00000     0.39314    0.00129     0.39443
      H   37    0.09844      0.00000     0.40072    0.00084     0.40156
      H   38    0.10975      0.00000     0.38912    0.00113     0.39025
      H   39    0.09508      0.00000     0.40334    0.00157     0.40492
      H   40    0.08668      0.00000     0.41222    0.00109     0.41332
      H   41    0.09476      0.00000     0.40377    0.00147     0.40524
      H   42    0.07754      0.00000     0.42107    0.00139     0.42246
 =======================================================================
   * Total *    0.00000     23.99183    55.68623    0.32194    80.00000

 Normal termination of Gaussian 16 at Sun Dec 13 22:46:49 2020.
