 Gaussian 16, Revision A.03,

 -----------------------------------------------------------
 # opt freq B3LYP/6-31G(d) empiricaldispersion=gd3bj scf=xqc
 -----------------------------------------------------------

 -------------------------------
 CID_144992632_JID_6496_neutraal
 -------------------------------
 Symbolic Z-matrix:
 Charge =  0 Multiplicity = 1

 SCF Done:  E(RB3LYP) =  -673.385728818     A.U. after   14 cycles
 SCF Done:  E(RB3LYP) =  -673.394433972     A.U. after   13 cycles
 SCF Done:  E(RB3LYP) =  -673.398502360     A.U. after   13 cycles
 SCF Done:  E(RB3LYP) =  -673.403522594     A.U. after   12 cycles
 SCF Done:  E(RB3LYP) =  -673.404373411     A.U. after   14 cycles
 SCF Done:  E(RB3LYP) =  -673.406545219     A.U. after   13 cycles
 SCF Done:  E(RB3LYP) =  -673.407373993     A.U. after   13 cycles
 SCF Done:  E(RB3LYP) =  -673.409389618     A.U. after   13 cycles
 SCF Done:  E(RB3LYP) =  -673.411533014     A.U. after   12 cycles
 SCF Done:  E(RB3LYP) =  -673.411677027     A.U. after   13 cycles
 SCF Done:  E(RB3LYP) =  -673.418124996     A.U. after   11 cycles
 SCF Done:  E(RB3LYP) =  -673.418131944     A.U. after   10 cycles
 SCF Done:  E(RB3LYP) =  -673.418133077     A.U. after    8 cycles
 SCF Done:  E(RB3LYP) =  -673.418133547     A.U. after    8 cycles
 SCF Done:  E(RB3LYP) =  -673.418133636     A.U. after    7 cycles
 Optimization completed.
    -- Stationary point found.
 Normal termination of Gaussian 16 at Thu Dec 10 23:26:44 2020.

 --------------------------------------------------------------------
 #N Geom=AllCheck Guess=TCheck SCRF=Check GenChk RB3LYP/6-31G(d) Freq
 --------------------------------------------------------------------

 Structure from the checkpoint file:  "JID_6496.chk"
 -------------------------------
 CID_144992632_JID_6496_neutraal
 -------------------------------
 Charge =  0 Multiplicity = 1

 SCF Done:  E(RB3LYP) =  -673.418133636     A.U. after    1 cycles

  Exact polarizability: 185.723  16.010 167.002   1.416  17.371 123.977
 Approx polarizability: 253.841  36.617 274.587  10.204  48.188 193.407

                      1                      2                      3
                      A                      A                      A
 Frequencies --     28.6390                41.2322                60.8824
 Red. masses --      4.3043                 2.8328                 4.3086
 Frc consts  --      0.0021                 0.0028                 0.0094
 IR Inten    --      0.0855                 0.0876                 0.4473

                      4                      5                      6
                      A                      A                      A
 Frequencies --     71.6206                79.8242               102.5500
 Red. masses --      3.9393                 4.5568                 3.8075
 Frc consts  --      0.0119                 0.0171                 0.0236
 IR Inten    --      1.0621                 0.0773                 1.6708

                      7                      8                      9
                      A                      A                      A
 Frequencies --    129.0295               162.2794               173.6125
 Red. masses --      3.4547                 3.2970                 3.7870
 Frc consts  --      0.0339                 0.0512                 0.0673
 IR Inten    --      1.0407                 3.3586                 0.8418

                     10                     11                     12
                      A                      A                      A
 Frequencies --    208.4330               226.4883               240.4833
 Red. masses --      2.9348                 3.2307                 1.1486
 Frc consts  --      0.0751                 0.0976                 0.0391
 IR Inten    --      0.4890                 1.4284                 0.0826

                     13                     14                     15
                      A                      A                      A
 Frequencies --    252.9419               287.0800               298.9959
 Red. masses --      1.9139                 1.6054                 1.5858
 Frc consts  --      0.0721                 0.0780                 0.0835
 IR Inten    --      0.8348                 6.6452                 2.0255

                     16                     17                     18
                      A                      A                      A
 Frequencies --    304.7110               322.7535               349.8127
 Red. masses --      1.5867                 1.3409                 2.3244
 Frc consts  --      0.0868                 0.0823                 0.1676
 IR Inten    --      1.0481                 1.4544                 1.6538

                     19                     20                     21
                      A                      A                      A
 Frequencies --    358.3184               360.5165               384.8279
 Red. masses --      3.3139                 2.3997                 2.0062
 Frc consts  --      0.2507                 0.1838                 0.1750
 IR Inten    --      0.6185                15.6949                 4.1170

                     22                     23                     24
                      A                      A                      A
 Frequencies --    393.5869               413.8745               427.8880
 Red. masses --      2.3496                 2.1641                 2.0998
 Frc consts  --      0.2145                 0.2184                 0.2265
 IR Inten    --      0.5340                18.9758                 2.2627

                     25                     26                     27
                      A                      A                      A
 Frequencies --    450.2104               459.9694               491.2160
 Red. masses --      2.3590                 2.4276                 2.8280
 Frc consts  --      0.2817                 0.3026                 0.4020
 IR Inten    --      3.8249                 3.0155                 1.2747

                     28                     29                     30
                      A                      A                      A
 Frequencies --    546.3511               578.0959               614.2484
 Red. masses --      2.8649                 3.1284                 1.2117
 Frc consts  --      0.5038                 0.6160                 0.2694
 IR Inten    --      3.9762                 6.3763                54.9787

                     31                     32                     33
                      A                      A                      A
 Frequencies --    623.9043               649.4099               654.4734
 Red. masses --      1.2016                 2.0344                 3.0604
 Frc consts  --      0.2756                 0.5055                 0.7724
 IR Inten    --     43.0896                 9.0758                 4.1109

                     34                     35                     36
                      A                      A                      A
 Frequencies --    748.0612               761.7052               774.5097
 Red. masses --      1.8129                 2.6020                 2.2392
 Frc consts  --      0.5977                 0.8895                 0.7914
 IR Inten    --     33.0559                33.5054                 3.7466

                     37                     38                     39
                      A                      A                      A
 Frequencies --    810.7969               851.3178               861.2728
 Red. masses --      1.5651                 2.0219                 2.3648
 Frc consts  --      0.6062                 0.8634                 1.0336
 IR Inten    --     63.1270                54.4157                12.0581

                     40                     41                     42
                      A                      A                      A
 Frequencies --    879.2678               903.2753               915.7196
 Red. masses --      1.3950                 2.3905                 1.9652
 Frc consts  --      0.6354                 1.1491                 0.9709
 IR Inten    --     50.8223                18.6557                 2.1014

                     43                     44                     45
                      A                      A                      A
 Frequencies --    928.2774               944.2499               953.2421
 Red. masses --      1.7373                 1.9203                 1.6603
 Frc consts  --      0.8820                 1.0088                 0.8889
 IR Inten    --     17.6506                18.8823                 9.1174

                     46                     47                     48
                      A                      A                      A
 Frequencies --    956.5840               975.2739               976.2714
 Red. masses --      1.5997                 1.3243                 1.4711
 Frc consts  --      0.8625                 0.7422                 0.8261
 IR Inten    --      9.8396                20.9665                41.5055

                     49                     50                     51
                      A                      A                      A
 Frequencies --    997.9341              1014.0289              1054.4807
 Red. masses --      1.7974                 2.7109                 2.0227
 Frc consts  --      1.0546                 1.6423                 1.3251
 IR Inten    --     42.1669                19.4352                 1.5907

                     52                     53                     54
                      A                      A                      A
 Frequencies --   1064.3866              1070.6115              1103.5781
 Red. masses --      1.4135                 1.4904                 2.2998
 Frc consts  --      0.9435                 1.0065                 1.6502
 IR Inten    --      0.1838                 0.4209                 7.8365

                     55                     56                     57
                      A                      A                      A
 Frequencies --   1146.0836              1192.9107              1200.6522
 Red. masses --      2.1136                 1.5739                 1.6568
 Frc consts  --      1.6357                 1.3196                 1.4072
 IR Inten    --     26.4408                23.8068                52.5180

                     58                     59                     60
                      A                      A                      A
 Frequencies --   1222.1152              1243.3775              1264.1927
 Red. masses --      1.3534                 2.1875                 1.3377
 Frc consts  --      1.1910                 1.9926                 1.2596
 IR Inten    --     71.8102                 7.7625                85.0765

                     61                     62                     63
                      A                      A                      A
 Frequencies --   1277.2210              1303.9238              1322.0108
 Red. masses --      2.6242                 2.1706                 1.7870
 Frc consts  --      2.5222                 2.1743                 1.8401
 IR Inten    --     11.1285                28.7047                29.4652

                     64                     65                     66
                      A                      A                      A
 Frequencies --   1339.2296              1349.1669              1361.9432
 Red. masses --      1.2703                 1.4652                 1.5101
 Frc consts  --      1.3424                 1.5713                 1.6503
 IR Inten    --      1.4058                28.3079                 1.6673

                     67                     68                     69
                      A                      A                      A
 Frequencies --   1377.0648              1389.7850              1409.5046
 Red. masses --      1.4226                 1.8648                 1.3873
 Frc consts  --      1.5894                 2.1222                 1.6239
 IR Inten    --     20.2877                 1.7196                 6.6741

                     70                     71                     72
                      A                      A                      A
 Frequencies --   1427.6979              1428.4624              1458.5051
 Red. masses --      1.2387                 1.2510                 1.2277
 Frc consts  --      1.4876                 1.5040                 1.5387
 IR Inten    --      5.5533                 9.9713                 4.2688

                     73                     74                     75
                      A                      A                      A
 Frequencies --   1462.7245              1479.9108              1495.6744
 Red. masses --      1.3168                 1.2351                 1.1383
 Frc consts  --      1.6600                 1.5938                 1.5004
 IR Inten    --      2.8737                 8.4728                 6.5409

                     76                     77                     78
                      A                      A                      A
 Frequencies --   1497.6445              1511.4856              1514.1048
 Red. masses --      1.2642                 1.0505                 1.1101
 Frc consts  --      1.6706                 1.4140                 1.4995
 IR Inten    --     36.4923                 0.4299                 2.9291

                     79                     80                     81
                      A                      A                      A
 Frequencies --   1515.5460              1518.8680              1527.9409
 Red. masses --      1.0513                 1.0469                 1.0816
 Frc consts  --      1.4226                 1.4229                 1.4878
 IR Inten    --      1.7975                 0.8441                 2.2622

                     82                     83                     84
                      A                      A                      A
 Frequencies --   1536.3845              1542.9496              1548.2088
 Red. masses --      1.0606                 1.0736                 1.0598
 Frc consts  --      1.4750                 1.5059                 1.4967
 IR Inten    --      3.4510                 8.4870                15.8325

                     85                     86                     87
                      A                      A                      A
 Frequencies --   1672.4787              1708.1177              1721.9170
 Red. masses --      3.7113                 2.8154                 1.2295
 Frc consts  --      6.1164                 4.8399                 2.1479
 IR Inten    --     15.1799               228.7771                34.2202

                     88                     89                     90
                      A                      A                      A
 Frequencies --   2235.3342              3035.4506              3040.7372
 Red. masses --      5.9794                 1.0351                 1.0373
 Frc consts  --     17.6033                 5.6190                 5.6511
 IR Inten    --      1.0235                24.7908                33.2704

                     91                     92                     93
                      A                      A                      A
 Frequencies --   3041.6530              3045.6248              3053.7825
 Red. masses --      1.0584                 1.0436                 1.0533
 Frc consts  --      5.7691                 5.7035                 5.7872
 IR Inten    --     14.7790                24.4602                22.5443

                     94                     95                     96
                      A                      A                      A
 Frequencies --   3062.6823              3079.9259              3084.4912
 Red. masses --      1.0621                 1.1018                 1.1027
 Frc consts  --      5.8699                 6.1577                 6.1813
 IR Inten    --     56.9989                18.4216                12.8274

                     97                     98                     99
                      A                      A                      A
 Frequencies --   3099.2693              3102.4317              3104.9751
 Red. masses --      1.1024                 1.1023                 1.1016
 Frc consts  --      6.2387                 6.2508                 6.2572
 IR Inten    --      2.0302                 3.2352                69.3883

                    100                    101                    102
                      A                      A                      A
 Frequencies --   3109.8924              3117.4428              3127.7633
 Red. masses --      1.1012                 1.1045                 1.1004
 Frc consts  --      6.2751                 6.3246                 6.3428
 IR Inten    --     78.4121                29.7897                 4.2788

                    103                    104                    105
                      A                      A                      A
 Frequencies --   3131.9952              3174.1689              3213.3122
 Red. masses --      1.0996                 1.0586                 1.0889
 Frc consts  --      6.3550                 6.2842                 6.6245
 IR Inten    --     45.9687                 5.1461                13.0847

                    106                    107                    108
                      A                      A                      A
 Frequencies --   3249.4052              3397.5968              3491.9624
 Red. masses --      1.1156                 1.0528                 1.1595
 Frc consts  --      6.9400                 7.1604                 8.3301
 IR Inten    --     15.0897                13.5604                57.6904

                    109                    110                    111
                      A                      A                      A
 Frequencies --   3499.1665              3510.2547              3524.2490
 Red. masses --      1.0737                 1.0786                 1.0843
 Frc consts  --      7.7459                 7.8304                 7.9351
 IR Inten    --     22.6271                 2.3498                10.5301

 - Thermochemistry -
 -------------------
 Temperature   298.150 Kelvin.  Pressure   1.00000 Atm.
 Atom     1 has atomic number  6 and mass  12.00000

 Molecular mass:   221.18920 amu.
 Principal axes and moments of inertia in atomic units:
                           1         2         3
     Eigenvalues --  2527.883315363.392836158.62088
           X            0.99994  -0.00730   0.00841
           Y            0.00709   0.99967   0.02480
           Z           -0.00858  -0.02474   0.99966
 This molecule is an asymmetric top.
 Rotational symmetry number  1.
 Warning -- assumption of classical behavior for rotation
           may cause significant error
 Rotational temperatures (Kelvin)      0.03426     0.01615     0.01406
 Rotational constants (GHZ):           0.71393     0.33649     0.29304
 Zero-point vibrational energy     913913.9 (Joules/Mol)
                                  218.43067 (Kcal/Mol)
 Warning -- explicit consideration of  30 degrees of freedom as
           vibrations may cause significant error
 Vibrational temperatures:     41.21    59.32    87.60   103.05   114.85
          (Kelvin)            147.55   185.64   233.48   249.79   299.89
                              325.87   346.00   363.93   413.04   430.19
                              438.41   464.37   503.30   515.54   518.70
                              553.68   566.28   595.47   615.64   647.75
                              661.79   706.75   786.08   831.75   883.77
                              897.66   934.36   941.64  1076.29  1095.92
                             1114.35  1166.56  1224.86  1239.18  1265.07
                             1299.61  1317.52  1335.58  1358.57  1371.50
                             1376.31  1403.20  1404.64  1435.80  1458.96
                             1517.16  1531.41  1540.37  1587.80  1648.96
                             1716.33  1727.47  1758.35  1788.94  1818.89
                             1837.64  1876.06  1902.08  1926.85  1941.15
                             1959.53  1981.29  1999.59  2027.96  2054.14
                             2055.24  2098.46  2104.53  2129.26  2151.94
                             2154.78  2174.69  2178.46  2180.53  2185.31
                             2198.37  2210.51  2219.96  2227.53  2406.32
                             2457.60  2477.45  3216.15  4367.34  4374.94
                             4376.26  4381.97  4393.71  4406.52  4431.33
                             4437.89  4459.16  4463.71  4467.37  4474.44
                             4485.30  4500.15  4506.24  4566.92  4623.24
                             4675.17  4888.38  5024.15  5034.52  5050.47
                             5070.61

 Zero-point correction=                           0.348091 (Hartree/Particle)
 Thermal correction to Energy=                    0.366694
 Thermal correction to Enthalpy=                  0.367638
 Thermal correction to Gibbs Free Energy=         0.301932
 Sum of electronic and zero-point Energies=           -673.070042
 Sum of electronic and thermal Energies=              -673.051440
 Sum of electronic and thermal Enthalpies=            -673.050495
 Sum of electronic and thermal Free Energies=         -673.116202

                     E (Thermal)             CV                S
                      KCal/Mol        Cal/Mol-Kelvin    Cal/Mol-Kelvin
 Total                  230.104             71.386            138.291
 Electronic               0.000              0.000              0.000
 Translational            0.889              2.981             42.084
 Rotational               0.889              2.981             32.790
 Vibrational            228.327             65.424             63.417
 Vibration     1          0.593              1.984              5.922
 Vibration     2          0.594              1.981              5.199
 Vibration     3          0.597              1.973              4.428
 Vibration     4          0.598              1.968              4.108
 Vibration     5          0.600              1.963              3.895
 Vibration     6          0.605              1.947              3.405
 Vibration     7          0.612              1.924              2.960
 Vibration     8          0.622              1.889              2.523
 Vibration     9          0.627              1.875              2.396
 Vibration    10          0.642              1.828              2.057
 Vibration    11          0.650              1.801              1.907
 Vibration    12          0.658              1.778              1.799
 Vibration    13          0.664              1.758              1.710
 Vibration    14          0.684              1.698              1.491
 Vibration    15          0.692              1.676              1.423
 Vibration    16          0.696              1.665              1.391
 Vibration    17          0.708              1.630              1.296
 Vibration    18          0.727              1.576              1.167
 Vibration    19          0.733              1.558              1.129
 Vibration    20          0.735              1.554              1.120
 Vibration    21          0.754              1.503              1.020
 Vibration    22          0.761              1.484              0.987
 Vibration    23          0.777              1.440              0.913
 Vibration    24          0.789              1.410              0.866
 Vibration    25          0.809              1.360              0.795
 Vibration    26          0.818              1.339              0.766
 Vibration    27          0.847              1.270              0.680
 Vibration    28          0.902              1.148              0.552
 Vibration    29          0.935              1.079              0.489
 Vibration    30          0.974              1.002              0.426

 Optimization completed.
    -- Stationary point found.
 Normal termination of Gaussian 16 at Thu Dec 10 23:41:16 2020.

 ----------------------------------------------------------------------
 # B3LYP/6-311++G(d,p) empiricaldispersion=gd3bj scf=xqc pop=npa geom=c
 heck
 ----------------------------------------------------------------------

 ---------------------------------------
 CID_144992632_JID_6496_Energie_neutraal
 ---------------------------------------
 Structure from the checkpoint file:  "JID_6496.chk"
 Charge =  0 Multiplicity = 1

 SCF Done:  E(RB3LYP) =  -673.620647734     A.U. after   16 cycles
 Normal termination of Gaussian 16 at Thu Dec 10 23:48:20 2020.

 ----------------------------------------------------------------------
 # B3LYP/6-311++G(d,p) empiricaldispersion=gd3bj scf=xqc pop=npa geom=c
 heck
 ----------------------------------------------------------------------

 -------------------------------------
 CID_144992632_JID_6496_Energie_kation
 -------------------------------------
 Structure from the checkpoint file:  "JID_6496.chk"
 Charge =  1 Multiplicity = 2

 SCF Done:  E(UB3LYP) =  -673.361483891     A.U. after   22 cycles
 Normal termination of Gaussian 16 at Fri Dec 11 00:01:11 2020.
 Gaussian 16:  ES64L-G16RevA.03 25-Dec-2016

 ----------------------------------------------------------------------
 # B3LYP/6-311++G(d,p) empiricaldispersion=gd3bj scf=xqc pop=npa geom=c
 heck
 ----------------------------------------------------------------------

 ------------------------------------
 CID_144992632_JID_6496_Energie_anion
 ------------------------------------
 Structure from the checkpoint file:  "JID_6496.chk"
 Charge = -1 Multiplicity = 2

                         Standard orientation:
 ---------------------------------------------------------------------
 Center     Atomic      Atomic             Coordinates (Angstroms)
 Number     Number       Type             X           Y           Z
 ---------------------------------------------------------------------
      1          6           0        3.345897   -0.036050    1.370273
      2          6           0        2.580975   -0.858734    0.321462
      3          6           0        3.475831   -2.014525   -0.158753
      4          6           0        1.315927   -1.443496    0.971448
      5          6           0        2.246908    0.020514   -0.922833
      6          6           0        1.320899    1.200449   -0.687046
      7          6           0        1.850625    2.389016   -0.329256
      8          6           0       -0.131846    1.026293   -0.817699
      9          6           0       -0.735779   -0.080549   -1.321659
     10          7           0       -2.098248   -0.182196   -1.513516
     11          6           0       -2.748146   -1.443848   -1.211784
     12          6           0       -2.727644   -1.813010    0.295132
     13          6           0       -3.326947   -0.766064    1.119650
     14          6           0       -3.820552    0.136174    1.754204
     15          7           0       -1.029023    2.063538   -0.370609
     16          7           0       -1.054806    2.256741    1.060211
     17          1           0        3.624818   -0.666306    2.222996
     18          1           0        2.740877    0.795640    1.743029
     19          1           0        4.267133    0.383272    0.947602
     20          1           0        3.761624   -2.662263    0.678515
     21          1           0        2.957849   -2.634207   -0.901138
     22          1           0        4.396244   -1.636710   -0.619906
     23          1           0        0.635078   -0.656283    1.308421
     24          1           0        0.768672   -2.084473    0.270058
     25          1           0        1.585479   -2.057260    1.839264
     26          1           0        3.197396    0.402820   -1.313368
     27          1           0        1.845622   -0.631351   -1.707276
     28          1           0        1.242844    3.263304   -0.117872
     29          1           0        2.924391    2.518507   -0.242708
     30          1           0       -0.168508   -0.951029   -1.634216
     31          1           0       -2.566368    0.634589   -1.122968
     32          1           0       -3.783655   -1.389592   -1.561238
     33          1           0       -2.250315   -2.242809   -1.773964
     34          1           0       -3.254940   -2.764254    0.447461
     35          1           0       -1.687153   -1.970716    0.606969
     36          1           0       -4.267847    0.920035    2.322478
     37          1           0       -0.798420    2.962806   -0.783690
     38          1           0       -1.655119    1.516795    1.422355
     39          1           0       -0.118051    2.085876    1.437764
 ---------------------------------------------------------------------

 SCF Done:  E(UB3LYP) =  -673.610272854     A.U. after   33 cycles
 SCF Done:  E(UB3LYP) =  -673.610272854     a.u. after    1 cycles

 The electronic state is 2-A.
 Alpha  occ. eigenvalues --  -14.23048 -14.22254 -14.22217 -10.11419 -10.10183
 Alpha  occ. eigenvalues --  -10.10088 -10.09268 -10.08880 -10.08536 -10.08258
 Alpha  occ. eigenvalues --  -10.07811 -10.06914 -10.06050 -10.05940 -10.05646
 Alpha  occ. eigenvalues --  -10.05288  -0.87041  -0.83570  -0.73928  -0.71540
 Alpha  occ. eigenvalues --   -0.69847  -0.66303  -0.64422  -0.60899  -0.59093
 Alpha  occ. eigenvalues --   -0.58699  -0.57708  -0.54769  -0.49974  -0.45919
 Alpha  occ. eigenvalues --   -0.44758  -0.43739  -0.40960  -0.40658  -0.39178
 Alpha  occ. eigenvalues --   -0.37510  -0.36753  -0.36462  -0.35725  -0.35113
 Alpha  occ. eigenvalues --   -0.34563  -0.33430  -0.32055  -0.31299  -0.30561
 Alpha  occ. eigenvalues --   -0.29359  -0.28730  -0.27638  -0.26807  -0.26476
 Alpha  occ. eigenvalues --   -0.26138  -0.24403  -0.23010  -0.22562  -0.22191
 Alpha  occ. eigenvalues --   -0.19341  -0.19054  -0.17587  -0.16425  -0.15320
 Alpha  occ. eigenvalues --   -0.09662   0.04213
 Alpha virt. eigenvalues --    0.06257   0.06696   0.07090   0.08091   0.08426
 Alpha virt. eigenvalues --    0.08485   0.09110   0.09447   0.10119   0.10385
 Alpha virt. eigenvalues --    0.10907   0.10930   0.11058   0.11783   0.12102

  Beta  occ. eigenvalues --  -14.23044 -14.22248 -14.22215 -10.11389 -10.10154
  Beta  occ. eigenvalues --  -10.10011 -10.09265 -10.08880 -10.08544 -10.08233
  Beta  occ. eigenvalues --  -10.07798 -10.06901 -10.06038 -10.05911 -10.05622
  Beta  occ. eigenvalues --  -10.05240  -0.87028  -0.83529  -0.73894  -0.71500
  Beta  occ. eigenvalues --   -0.69809  -0.66260  -0.64378  -0.60829  -0.59052
  Beta  occ. eigenvalues --   -0.58657  -0.57647  -0.54707  -0.49878  -0.45858
  Beta  occ. eigenvalues --   -0.44723  -0.43692  -0.40929  -0.40631  -0.39116
  Beta  occ. eigenvalues --   -0.37476  -0.36728  -0.36424  -0.35694  -0.35081
  Beta  occ. eigenvalues --   -0.34508  -0.33395  -0.31975  -0.31254  -0.30524
  Beta  occ. eigenvalues --   -0.29334  -0.28687  -0.27598  -0.26780  -0.26441
  Beta  occ. eigenvalues --   -0.26097  -0.24321  -0.22950  -0.22504  -0.22138
  Beta  occ. eigenvalues --   -0.19295  -0.19030  -0.17482  -0.16366  -0.15307
  Beta  occ. eigenvalues --   -0.09494
  Beta virt. eigenvalues --    0.06374   0.06920   0.07051   0.07728   0.08240
  Beta virt. eigenvalues --    0.08721   0.08985   0.09378   0.09829   0.10240
  Beta virt. eigenvalues --    0.10505   0.11075   0.11091   0.11242   0.12170

 Mulliken charges and spin densities:
               1          2
     1  C   -0.296051  -0.419233
     2  C   -0.668185   1.518198
     3  C    0.534126  -1.064355
     4  C   -0.161691  -0.755570
     5  C    0.760961  -1.381509
     6  C    0.638004   0.477043
     7  C   -0.327001  -0.102403
     8  C   -1.491677   0.463313
     9  C    0.172026  -0.752590
    10  N   -0.027466   0.080932
    11  C    0.674300  -1.211497
    12  C   -0.860487   0.906071
    13  C    2.964343  -2.069771
    14  C   -1.875734   0.666197
    15  N   -0.149313   0.015663
    16  N   -0.403720   0.006349
    17  H    0.028809   0.093710
    18  H    0.144209   0.013200
    19  H    0.036232   0.112451
    20  H   -0.011765   0.145817
    21  H   -0.273186   0.417494
    22  H   -0.104263   0.240250
    23  H    0.124696   0.123926
    24  H   -0.194936   0.380713
    25  H   -0.024979   0.173475
    26  H    0.011927   0.170607
    27  H   -0.085659   0.284231
    28  H    0.069228   0.048199
    29  H   -0.034676   0.164422
    30  H    0.311020  -0.120668
    31  H    0.283694   0.017758
    32  H    0.077333   0.095094
    33  H   -0.725510   0.887997
    34  H   -0.906552   1.148023
    35  H    0.204678  -0.071676
    36  H   -0.120256   0.279108
    37  H    0.234228   0.057158
    38  H    0.276612  -0.065968
    39  H    0.196682   0.027842
 Sum of Mulliken charges =  -1.00000   1.00000

 Dipole moment (field-independent basis, Debye):
    X=              0.9835    Y=              5.7254    Z=              2.1098  Tot=              6.1805
 Quadrupole moment (field-independent basis, Debye-Ang):
   XX=           -165.6280   YY=           -161.9925   ZZ=           -136.5925
   XY=            -10.2930   XZ=              4.1042   YZ=             -4.4148

 Summary of Natural Population Analysis:

                                       Natural Population
                Natural  -----------------------------------------------
    Atom  No    Charge         Core      Valence    Rydberg      Total
 -----------------------------------------------------------------------
      C    1   -0.28513      0.99962     2.27957    0.00593     3.28513
      C    2   -0.04516      0.99958     2.03445    0.01112     3.04516
      C    3   -0.28229      0.99962     2.27514    0.00752     3.28229
      C    4   -0.28646      0.99962     2.27901    0.00783     3.28646
      C    5   -0.20053      0.99956     2.18921    0.01176     3.20053
      C    6   -0.01260      0.99948     2.00148    0.01163     3.01260
      C    7   -0.21531      0.99953     2.20841    0.00738     3.21531
      C    8    0.00352      0.99941     1.98411    0.01296     2.99648
      C    9    0.04114      0.99947     1.94635    0.01304     2.95886
      N   10   -0.31401      0.99970     2.80351    0.01080     3.81401
      C   11   -0.07604      0.99962     2.06401    0.01242     3.07604
      C   12   -0.24556      0.99956     2.23481    0.01119     3.24556
      C   13    0.00986      0.99937     1.98161    0.00917     2.99014
      C   14   -0.13852      0.99927     2.13572    0.00353     3.13852
      N   15   -0.26456      0.99971     2.75086    0.01398     3.76456
      N   16   -0.32940      0.99978     2.81945    0.01017     3.82940
      H   17    0.09699      0.00000     0.40223    0.00078     0.40301
      H   18    0.10324      0.00000     0.39569    0.00107     0.39676
      H   19    0.09725      0.00000     0.40188    0.00087     0.40275
      H   20    0.09778      0.00000     0.40134    0.00088     0.40222
      H   21    0.10259      0.00000     0.39613    0.00128     0.39741
      H   22    0.09790      0.00000     0.40111    0.00099     0.40210
      H   23    0.10165      0.00000     0.39671    0.00164     0.39835
      H   24    0.10035      0.00000     0.39777    0.00187     0.39965
      H   25    0.09808      0.00000     0.40096    0.00097     0.40192
      H   26    0.10275      0.00000     0.39580    0.00145     0.39725
      H   27    0.10422      0.00000     0.39413    0.00165     0.39578
      H   28    0.08984      0.00000     0.40890    0.00125     0.41016
      H   29    0.09344      0.00000     0.40570    0.00086     0.40656
      H   30    0.09776      0.00000     0.40054    0.00170     0.40224
      H   31    0.19584      0.00000     0.30100    0.00316     0.30416
      H   32    0.09490      0.00000     0.40391    0.00120     0.40510
      H   33    0.10238      0.00000     0.39465    0.00297     0.39762
      H   34    0.12006      0.00000     0.37626    0.00369     0.37994
      H   35    0.11711      0.00000     0.38058    0.00231     0.38289
      H   36    0.11276      0.00000     0.38614    0.00110     0.38724
      H   37    0.17312      0.00000     0.32442    0.00246     0.32688
      H   38    0.17601      0.00000     0.32123    0.00276     0.32399
      H   39    0.16503      0.00000     0.33243    0.00254     0.33497
 =======================================================================
   * Total *   -0.00000     15.99291    44.80723    0.19986    61.00000

 Normal termination of Gaussian 16 at Fri Dec 11 00:20:34 2020.
