 Gaussian 16, Revision A.03,

 -----------------------------------------------------------
 # opt freq B3LYP/6-31G(d) empiricaldispersion=gd3bj scf=xqc
 -----------------------------------------------------------

 --------------------------------
 CID_101190568_JID_10080_neutraal
 --------------------------------
 Symbolic Z-matrix:
 Charge =  0 Multiplicity = 1

 SCF Done:  E(RB3LYP) =  -1278.89235214     A.U. after   14 cycles
 SCF Done:  E(RB3LYP) =  -1277.58542017     A.U. after   19 cycles
 SCF Done:  E(RB3LYP) =  -1278.88939704     A.U. after   13 cycles
 SCF Done:  E(RB3LYP) =  -1278.89627037     A.U. after   10 cycles
 SCF Done:  E(RB3LYP) =  -1278.89910806     A.U. after   12 cycles
 SCF Done:  E(RB3LYP) =  -1278.89944096     A.U. after   13 cycles
 SCF Done:  E(RB3LYP) =  -1278.90107198     A.U. after   11 cycles
 SCF Done:  E(RB3LYP) =  -1278.90247547     A.U. after   12 cycles
 SCF Done:  E(RB3LYP) =  -1278.90333380     A.U. after   12 cycles
 SCF Done:  E(RB3LYP) =  -1278.90359443     A.U. after   13 cycles
 SCF Done:  E(RB3LYP) =  -1278.90529228     A.U. after   10 cycles
 SCF Done:  E(RB3LYP) =  -1278.90530293     A.U. after    9 cycles
 SCF Done:  E(RB3LYP) =  -1278.90530878     A.U. after    9 cycles
 SCF Done:  E(RB3LYP) =  -1278.90531114     A.U. after    8 cycles
 SCF Done:  E(RB3LYP) =  -1278.90531151     A.U. after    7 cycles
 SCF Done:  E(RB3LYP) =  -1278.90531157     A.U. after    6 cycles
 Optimization completed.
    -- Stationary point found.
 Normal termination of Gaussian 16 at Sun Dec 13 17:04:20 2020.

 --------------------------------------------------------------------
 #N Geom=AllCheck Guess=TCheck SCRF=Check GenChk RB3LYP/6-31G(d) Freq
 --------------------------------------------------------------------

 Structure from the checkpoint file:  "JID_10080.chk"
 --------------------------------
 CID_101190568_JID_10080_neutraal
 --------------------------------
 Charge =  0 Multiplicity = 1

 SCF Done:  E(RB3LYP) =  -1278.90531157     A.U. after    1 cycles

  Exact polarizability: 211.618  20.908 165.967  26.583  -6.858 160.397
 Approx polarizability: 293.652  43.396 259.885  40.295 -10.554 278.607

                      1                      2                      3
                      A                      A                      A
 Frequencies --     21.8909                48.9969                60.8078
 Red. masses --      6.1878                 4.5048                 6.7318
 Frc consts  --      0.0017                 0.0064                 0.0147
 IR Inten    --      0.4093                 1.6077                 1.8537

                      4                      5                      6
                      A                      A                      A
 Frequencies --     74.3754                81.4658                96.9574
 Red. masses --      5.6098                 4.3952                 4.3834
 Frc consts  --      0.0183                 0.0172                 0.0243
 IR Inten    --      0.5042                 0.4391                 0.5611

                      7                      8                      9
                      A                      A                      A
 Frequencies --    108.6541               127.5556               138.1459
 Red. masses --      4.1491                 4.2115                 4.1545
 Frc consts  --      0.0289                 0.0404                 0.0467
 IR Inten    --      0.9798                 2.2259                 3.4150

                     10                     11                     12
                      A                      A                      A
 Frequencies --    149.7893               166.4879               183.6255
 Red. masses --      3.7812                 3.9695                 3.8329
 Frc consts  --      0.0500                 0.0648                 0.0761
 IR Inten    --      2.3071                 0.3711                 3.3032

                     13                     14                     15
                      A                      A                      A
 Frequencies --    226.2297               248.3002               276.6933
 Red. masses --      2.6831                 2.1617                 3.6503
 Frc consts  --      0.0809                 0.0785                 0.1647
 IR Inten    --      2.3999                 0.5573                 0.6309

                     16                     17                     18
                      A                      A                      A
 Frequencies --    296.7143               317.7487               361.8623
 Red. masses --      3.3778                 3.7414                 3.6660
 Frc consts  --      0.1752                 0.2226                 0.2828
 IR Inten    --      4.5467                 2.7929                 3.3509

                     19                     20                     21
                      A                      A                      A
 Frequencies --    388.2981               393.3136               437.2707
 Red. masses --      3.3070                 4.2018                 4.0026
 Frc consts  --      0.2938                 0.3830                 0.4509
 IR Inten    --      6.7571                 1.0609                 3.3766

                     22                     23                     24
                      A                      A                      A
 Frequencies --    454.7779               460.6590               472.8200
 Red. masses --      4.9852                 2.8849                 2.7839
 Frc consts  --      0.6075                 0.3607                 0.3667
 IR Inten    --     10.1969                10.2648                 6.2893

                     25                     26                     27
                      A                      A                      A
 Frequencies --    481.2233               506.6978               543.2482
 Red. masses --      2.9202                 1.4313                 5.8294
 Frc consts  --      0.3984                 0.2165                 1.0136
 IR Inten    --      3.1379                47.1955                64.0236

                     28                     29                     30
                      A                      A                      A
 Frequencies --    569.8702               625.0266               630.0814
 Red. masses --      1.1235                 3.6180                 2.9547
 Frc consts  --      0.2150                 0.8327                 0.6911
 IR Inten    --     85.6529                 4.5380                 9.8811

                     31                     32                     33
                      A                      A                      A
 Frequencies --    657.5858               672.2923               689.5078
 Red. masses --      3.0678                 3.3359                 1.8263
 Frc consts  --      0.7816                 0.8883                 0.5116
 IR Inten    --      2.6619                 0.8047                21.0782

                     34                     35                     36
                      A                      A                      A
 Frequencies --    694.9833               712.6900               719.4670
 Red. masses --      3.8833                 1.4975                 1.6486
 Frc consts  --      1.1051                 0.4481                 0.5028
 IR Inten    --     26.7289                67.8132                 3.0623

                     37                     38                     39
                      A                      A                      A
 Frequencies --    749.8109               793.9796               796.3928
 Red. masses --      1.3854                 1.3235                 1.8631
 Frc consts  --      0.4589                 0.4916                 0.6962
 IR Inten    --      9.5364                82.4367                82.8314

                     40                     41                     42
                      A                      A                      A
 Frequencies --    808.1549               828.4282               863.9873
 Red. masses --      1.5170                 3.5826                 1.2962
 Frc consts  --      0.5837                 1.4486                 0.5701
 IR Inten    --     72.1119                75.5468                 4.9473

                     43                     44                     45
                      A                      A                      A
 Frequencies --    865.7368               869.9735               895.8072
 Red. masses --      1.2853                 2.0169                 5.6326
 Frc consts  --      0.5676                 0.8994                 2.6631
 IR Inten    --      0.7774                13.0392                 0.7030

                     46                     47                     48
                      A                      A                      A
 Frequencies --    905.5764               909.7926               913.4400
 Red. masses --      2.2824                 3.0760                 3.0803
 Frc consts  --      1.1028                 1.5001                 1.5143
 IR Inten    --      4.8184                 1.4241                 2.4052

                     49                     50                     51
                      A                      A                      A
 Frequencies --    944.3256               951.8233              1002.6963
 Red. masses --      2.9392                 1.9051                 1.9768
 Frc consts  --      1.5443                 1.0169                 1.1710
 IR Inten    --      8.7834                 1.8153                 1.8653

                     52                     53                     54
                      A                      A                      A
 Frequencies --   1033.8448              1058.6058              1062.0171
 Red. masses --      1.5690                 1.4474                 2.1021
 Frc consts  --      0.9881                 0.9557                 1.3969
 IR Inten    --      2.6931                19.6717                 2.0449

                     55                     56                     57
                      A                      A                      A
 Frequencies --   1092.6808              1096.0644              1102.2357
 Red. masses --      1.6674                 1.9515                 2.2328
 Frc consts  --      1.1730                 1.3813                 1.5983
 IR Inten    --      3.8313                 9.8783                 0.5214

                     58                     59                     60
                      A                      A                      A
 Frequencies --   1112.3778              1125.3926              1135.0078
 Red. masses --      2.1103                 1.6526                 1.7945
 Frc consts  --      1.5385                 1.2332                 1.3621
 IR Inten    --      5.2020                14.4983                37.8332

                     61                     62                     63
                      A                      A                      A
 Frequencies --   1146.6340              1159.8006              1190.7924
 Red. masses --      6.4394                 2.0031                 1.3577
 Frc consts  --      4.9882                 1.5875                 1.1343
 IR Inten    --    165.4409                 0.3096                 2.2203

                     64                     65                     66
                      A                      A                      A
 Frequencies --   1197.6046              1199.2324              1216.8041
 Red. masses --      1.2038                 1.2362                 1.2426
 Frc consts  --      1.0172                 1.0474                 1.0840
 IR Inten    --     23.5718                98.0295                 7.5466

                     67                     68                     69
                      A                      A                      A
 Frequencies --   1248.7873              1273.9114              1288.4202
 Red. masses --      1.6658                 1.8475                 1.3547
 Frc consts  --      1.5305                 1.7665                 1.3249
 IR Inten    --      3.1946                 5.0236                 3.9689

                     70                     71                     72
                      A                      A                      A
 Frequencies --   1295.4491              1302.7006              1330.5811
 Red. masses --      1.8293                 1.4802                 1.3926
 Frc consts  --      1.8087                 1.4800                 1.4527
 IR Inten    --     12.7601                 1.9346                16.3891

                     73                     74                     75
                      A                      A                      A
 Frequencies --   1346.1956              1353.8911              1363.8809
 Red. masses --      2.4502                 1.5222                 1.2827
 Frc consts  --      2.6162                 1.6440                 1.4058
 IR Inten    --     40.3403                20.7262                13.1675

                     76                     77                     78
                      A                      A                      A
 Frequencies --   1373.0549              1399.8141              1410.7878
 Red. masses --      3.2519                 1.4491                 1.4266
 Frc consts  --      3.6122                 1.6730                 1.6729
 IR Inten    --    132.5066                12.0568                15.3451

                     79                     80                     81
                      A                      A                      A
 Frequencies --   1417.6759              1427.9505              1434.3581
 Red. masses --      1.4384                 1.9207                 1.7190
 Frc consts  --      1.7033                 2.3074                 2.0837
 IR Inten    --     15.7803                 7.2894                11.8951

                     82                     83                     84
                      A                      A                      A
 Frequencies --   1442.2893              1445.0906              1462.9687
 Red. masses --      3.2756                 2.4632                 3.4838
 Frc consts  --      4.0147                 3.0306                 4.3931
 IR Inten    --      7.2755                 5.9988                 1.7263

                     85                     86                     87
                      A                      A                      A
 Frequencies --   1493.0368              1494.4050              1511.1000
 Red. masses --      1.0972                 2.2299                 1.0966
 Frc consts  --      1.4410                 2.9341                 1.4753
 IR Inten    --     14.7547                25.6576                 4.1550

                     88                     89                     90
                      A                      A                      A
 Frequencies --   1513.6131              1524.0108              1528.3538
 Red. masses --      1.1521                 1.7901                 1.1795
 Frc consts  --      1.5551                 2.4496                 1.6233
 IR Inten    --      0.9302                 1.6520                 3.4819

                     91                     92                     93
                      A                      A                      A
 Frequencies --   1534.0045              1542.1774              1583.4617
 Red. masses --      1.9587                 1.0812                 3.5697
 Frc consts  --      2.7156                 1.5150                 5.2735
 IR Inten    --     20.6199                 2.9813                16.7993

                     94                     95                     96
                      A                      A                      A
 Frequencies --   1647.0850              3026.9146              3038.4287
 Red. masses --      5.3637                 1.0608                 1.0659
 Frc consts  --      8.5732                 5.7265                 5.7976
 IR Inten    --     24.5874                19.3250                41.4523

                     97                     98                     99
                      A                      A                      A
 Frequencies --   3054.7390              3069.9879              3074.1971
 Red. masses --      1.0941                 1.0706                 1.0708
 Frc consts  --      6.0155                 5.9451                 5.9622
 IR Inten    --     13.9211                31.9503                30.9603

                    100                    101                    102
                      A                      A                      A
 Frequencies --   3083.3058              3093.6152              3097.2014
 Red. masses --      1.0658                 1.0957                 1.0645
 Frc consts  --      5.9697                 6.1783                 6.0162
 IR Inten    --     26.9868                32.2723                 6.0789

                    103                    104                    105
                      A                      A                      A
 Frequencies --   3112.1013              3132.1223              3135.5922
 Red. masses --      1.0958                 1.0939                 1.0983
 Frc consts  --      6.2532                 6.3230                 6.3620
 IR Inten    --      4.5765                18.7030                28.0868

                    106                    107                    108
                      A                      A                      A
 Frequencies --   3152.8656              3250.4871              3254.5619
 Red. masses --      1.1061                 1.0937                 1.0886
 Frc consts  --      6.4782                 6.8085                 6.7935
 IR Inten    --      2.9124                 1.3502                 3.7839

                    109                    110                    111
                      A                      A                      A
 Frequencies --   3264.8508              3275.9247              3278.1388
 Red. masses --      1.0951                 1.0911                 1.1055
 Frc consts  --      6.8774                 6.8988                 6.9995
 IR Inten    --      3.4410                 0.0082                 4.4208

                    112                    113                    114
                      A                      A                      A
 Frequencies --   3292.8365              3454.0587              3668.9835
 Red. masses --      1.1045                 1.0675                 1.0801
 Frc consts  --      7.0559                 7.5035                 8.5664
 IR Inten    --      1.0628               856.5293                39.5804

 - Thermochemistry -
 -------------------
 Temperature   298.150 Kelvin.  Pressure   1.00000 Atm.
 Atom     1 has atomic number  6 and mass  12.00000

 Molecular mass:   296.11946 amu.
 Principal axes and moments of inertia in atomic units:
                           1         2         3
     Eigenvalues --  3473.205258641.256799478.04300
           X            0.99992   0.00269   0.01265
           Y           -0.00217   0.99918  -0.04049
           Z           -0.01275   0.04046   0.99910
 This molecule is an asymmetric top.
 Rotational symmetry number  1.
 Warning -- assumption of classical behavior for rotation
           may cause significant error
 Rotational temperatures (Kelvin)      0.02494     0.01002     0.00914
 Rotational constants (GHZ):           0.51962     0.20885     0.19041
 Zero-point vibrational energy     878807.3 (Joules/Mol)
                                  210.03998 (Kcal/Mol)
 Warning -- explicit consideration of  28 degrees of freedom as
           vibrations may cause significant error
 Vibrational temperatures:     31.50    70.50    87.49   107.01   117.21
          (Kelvin)            139.50   156.33   183.52   198.76   215.51
                              239.54   264.20   325.49   357.25   398.10
                              426.91   457.17   520.64   558.67   565.89
                              629.14   654.32   662.79   680.28   692.37
                              729.03   781.61   819.92   899.27   906.55
                              946.12   967.28   992.05   999.93  1025.40
                             1035.15  1078.81  1142.36  1145.83  1162.75
                             1191.92  1243.09  1245.60  1251.70  1288.87
                             1302.92  1308.99  1314.24  1358.67  1369.46
                             1442.66  1487.47  1523.10  1528.01  1572.12
                             1576.99  1585.87  1600.46  1619.19  1633.02
                             1649.75  1668.69  1713.28  1723.09  1725.43
                             1750.71  1796.73  1832.87  1853.75  1863.86
                             1874.30  1914.41  1936.88  1947.95  1962.32
                             1975.52  2014.02  2029.81  2039.72  2054.50
                             2063.72  2075.13  2079.16  2104.89  2148.15
                             2150.12  2174.14  2177.75  2192.71  2198.96
                             2207.09  2218.85  2278.25  2369.79  4355.06
                             4371.62  4395.09  4417.03  4423.08  4436.19
                             4451.02  4456.18  4477.62  4506.43  4511.42
                             4536.27  4676.73  4682.59  4697.39  4713.32
                             4716.51  4737.66  4969.62  5278.85

 Zero-point correction=                           0.334720 (Hartree/Particle)
 Thermal correction to Energy=                    0.353890
 Thermal correction to Enthalpy=                  0.354834
 Thermal correction to Gibbs Free Energy=         0.286553
 Sum of electronic and zero-point Energies=          -1278.570592
 Sum of electronic and thermal Energies=             -1278.551422
 Sum of electronic and thermal Enthalpies=           -1278.550477
 Sum of electronic and thermal Free Energies=        -1278.618758

                     E (Thermal)             CV                S
                      KCal/Mol        Cal/Mol-Kelvin    Cal/Mol-Kelvin
 Total                  222.069             74.423            143.710
 Electronic               0.000              0.000              0.000
 Translational            0.889              2.981             42.954
 Rotational               0.889              2.981             34.008
 Vibrational            220.292             68.462             66.748
 Vibration     1          0.593              1.985              6.455
 Vibration     2          0.595              1.978              4.857
 Vibration     3          0.597              1.973              4.431
 Vibration     4          0.599              1.966              4.034
 Vibration     5          0.600              1.962              3.855
 Vibration     6          0.603              1.951              3.515
 Vibration     7          0.606              1.942              3.293
 Vibration     8          0.611              1.926              2.983
 Vibration     9          0.614              1.915              2.829
 Vibration    10          0.618              1.903              2.675
 Vibration    11          0.624              1.884              2.475
 Vibration    12          0.631              1.862              2.291
 Vibration    13          0.650              1.801              1.909
 Vibration    14          0.662              1.766              1.743
 Vibration    15          0.678              1.717              1.554
 Vibration    16          0.690              1.680              1.435
 Vibration    17          0.704              1.640              1.322
 Vibration    18          0.736              1.551              1.114
 Vibration    19          0.756              1.495              1.007
 Vibration    20          0.761              1.484              0.988
 Vibration    21          0.798              1.389              0.835
 Vibration    22          0.813              1.350              0.781
 Vibration    23          0.818              1.337              0.764
 Vibration    24          0.830              1.310              0.730
 Vibration    25          0.838              1.292              0.707
 Vibration    26          0.862              1.235              0.642
 Vibration    27          0.898              1.154              0.558
 Vibration    28          0.926              1.096              0.504

 Optimization completed.
    -- Stationary point found.
 Normal termination of Gaussian 16 at Sun Dec 13 17:26:43 2020.

 ----------------------------------------------------------------------
 # B3LYP/6-311++G(d,p) empiricaldispersion=gd3bj scf=xqc pop=npa geom=c
 heck
 ----------------------------------------------------------------------

 ----------------------------------------
 CID_101190568_JID_10080_Energie_neutraal
 ----------------------------------------
 Structure from the checkpoint file:  "JID_10080.chk"
 Charge =  0 Multiplicity = 1

 SCF Done:  E(RB3LYP) =  -1279.18317147     A.U. after   15 cycles
 Normal termination of Gaussian 16 at Sun Dec 13 17:35:38 2020.

 ----------------------------------------------------------------------
 # B3LYP/6-311++G(d,p) empiricaldispersion=gd3bj scf=xqc pop=npa geom=c
 heck
 ----------------------------------------------------------------------

 --------------------------------------
 CID_101190568_JID_10080_Energie_kation
 --------------------------------------
 Structure from the checkpoint file:  "JID_10080.chk"
 Charge =  1 Multiplicity = 2

 SCF Done:  E(UB3LYP) =  -1278.91584174     A.U. after   22 cycles
 Normal termination of Gaussian 16 at Sun Dec 13 17:53:20 2020.
 Gaussian 16:  ES64L-G16RevA.03 25-Dec-2016

 ----------------------------------------------------------------------
 # B3LYP/6-311++G(d,p) empiricaldispersion=gd3bj scf=xqc pop=npa geom=c
 heck
 ----------------------------------------------------------------------

 -------------------------------------
 CID_101190568_JID_10080_Energie_anion
 -------------------------------------
 Structure from the checkpoint file:  "JID_10080.chk"
 Charge = -1 Multiplicity = 2

                         Standard orientation:
 ---------------------------------------------------------------------
 Center     Atomic      Atomic             Coordinates (Angstroms)
 Number     Number       Type             X           Y           Z
 ---------------------------------------------------------------------
      1          6           0        0.527081    2.468920    0.976616
      2          6           0        0.037575    1.869797    2.116611
      3          7           0       -1.104875    1.177986    1.770584
      4          6           0       -1.369675    1.324954    0.423425
      5          6           0       -0.352233    2.123723   -0.093761
      6          6           0       -2.537957    0.790828   -0.251659
      7          6           0       -3.276260    1.413791   -1.247817
      8          6           0       -4.308702    0.529611   -1.649364
      9          6           0       -4.180735   -0.610371   -0.886914
     10          7           0       -3.111666   -0.460452   -0.029633
     11          6           0       -2.602888   -1.580729    0.758902
     12          6           0       -1.627058   -2.486728   -0.010593
     13          6           0       -0.206315   -1.914789   -0.112604
     14          6           0        0.586844   -2.086032    1.192036
     15          6           0        1.834276   -1.202196    1.318571
     16          6           0        2.879946   -1.411136    0.206729
     17         16           0        3.225690    0.092965   -0.735689
     18          8           0        3.507453    1.183099    0.200078
     19          8           0        4.144937   -0.240555   -1.813955
     20          8           0        1.783849    0.381226   -1.442488
     21          1           0        1.437429    3.046170    0.905441
     22          1           0        0.407822    1.862944    3.130748
     23          1           0       -1.745239    0.763243    2.429372
     24          1           0       -0.291530    2.447512   -1.124762
     25          1           0       -3.098855    2.418987   -1.604138
     26          1           0       -5.074156    0.716753   -2.389509
     27          1           0       -4.762202   -1.521358   -0.871185
     28          1           0       -2.129579   -1.198420    1.665858
     29          1           0       -3.476699   -2.156395    1.079411
     30          1           0       -1.595915   -3.463491    0.491841
     31          1           0       -2.044646   -2.658370   -1.009076
     32          1           0        0.323088   -2.406760   -0.936471
     33          1           0       -0.261886   -0.858159   -0.386436
     34          1           0       -0.059246   -1.852217    2.048835
     35          1           0        0.863251   -3.143815    1.305893
     36          1           0        1.525415   -0.152439    1.351170
     37          1           0        2.312595   -1.392294    2.285142
     38          1           0        3.856840   -1.707240    0.598784
     39          1           0        2.578829   -2.153054   -0.536644
     40          1           0        1.226118    0.930216   -0.840045
 ---------------------------------------------------------------------

 SCF Done:  E(UB3LYP) =  -1279.18206322     A.U. after   32 cycles

 The electronic state is 2-A.
 Alpha  occ. eigenvalues --  -88.99240 -19.08519 -19.04071 -19.04044 -14.27417
 Alpha  occ. eigenvalues --  -14.27257 -10.13055 -10.12558 -10.12022 -10.11686
 Alpha  occ. eigenvalues --  -10.10907 -10.10390 -10.09290 -10.08380 -10.07936
 Alpha  occ. eigenvalues --  -10.07852 -10.07790 -10.07702 -10.07315 -10.07161
 Alpha  occ. eigenvalues --   -8.05339  -6.01740  -6.01544  -6.01349  -1.06363
 Alpha  occ. eigenvalues --   -0.95368  -0.93458  -0.90430  -0.88954  -0.74187
 Alpha  occ. eigenvalues --   -0.72764  -0.69754  -0.68828  -0.67980  -0.64180
 Alpha  occ. eigenvalues --   -0.61240  -0.59541  -0.56112  -0.53109  -0.51093
 Alpha  occ. eigenvalues --   -0.50462  -0.49563  -0.49027  -0.47899  -0.46483
 Alpha  occ. eigenvalues --   -0.44213  -0.42262  -0.40223  -0.40113  -0.39207
 Alpha  occ. eigenvalues --   -0.38645  -0.37048  -0.35694  -0.35373  -0.34889
 Alpha  occ. eigenvalues --   -0.34322  -0.33619  -0.32976  -0.32806  -0.31355
 Alpha  occ. eigenvalues --   -0.30941  -0.30672  -0.30196  -0.29810  -0.28967
 Alpha  occ. eigenvalues --   -0.28455  -0.28198  -0.27337  -0.26251  -0.24893
 Alpha  occ. eigenvalues --   -0.24311  -0.24081  -0.23545  -0.23257  -0.22183
 Alpha  occ. eigenvalues --   -0.17456  -0.16584  -0.15634  -0.10897   0.03525
 Alpha virt. eigenvalues --    0.06226   0.06307   0.07028   0.07331   0.08154
 Alpha virt. eigenvalues --    0.08557   0.08813   0.09061   0.10136   0.10396
 Alpha virt. eigenvalues --    0.10618   0.11216   0.11491   0.11870   0.12102

  Beta  occ. eigenvalues --  -88.99238 -19.08511 -19.04070 -19.04042 -14.27404
  Beta  occ. eigenvalues --  -14.27193 -10.13043 -10.12554 -10.11974 -10.11678
  Beta  occ. eigenvalues --  -10.10887 -10.10368 -10.09278 -10.08369 -10.07902
  Beta  occ. eigenvalues --  -10.07845 -10.07791 -10.07701 -10.07318 -10.07150
  Beta  occ. eigenvalues --   -8.05336  -6.01738  -6.01542  -6.01347  -1.06353
  Beta  occ. eigenvalues --   -0.95353  -0.93452  -0.90383  -0.88899  -0.74154
  Beta  occ. eigenvalues --   -0.72728  -0.69692  -0.68794  -0.67948  -0.64142
  Beta  occ. eigenvalues --   -0.61205  -0.59498  -0.56080  -0.53063  -0.51001
  Beta  occ. eigenvalues --   -0.50444  -0.49499  -0.48970  -0.47876  -0.46471
  Beta  occ. eigenvalues --   -0.44142  -0.42251  -0.40201  -0.40066  -0.39184
  Beta  occ. eigenvalues --   -0.38598  -0.37013  -0.35651  -0.35340  -0.34861
  Beta  occ. eigenvalues --   -0.34291  -0.33570  -0.32939  -0.32780  -0.31338
  Beta  occ. eigenvalues --   -0.30906  -0.30648  -0.30174  -0.29788  -0.28929
  Beta  occ. eigenvalues --   -0.28431  -0.28161  -0.27298  -0.26235  -0.24866
  Beta  occ. eigenvalues --   -0.24296  -0.24053  -0.23516  -0.23249  -0.22169
  Beta  occ. eigenvalues --   -0.17402  -0.16524  -0.15568  -0.10831
  Beta virt. eigenvalues --    0.06114   0.06703   0.07158   0.07325   0.07748
  Beta virt. eigenvalues --    0.08270   0.08851   0.09275   0.09626   0.10270
  Beta virt. eigenvalues --    0.10544   0.10933   0.11528   0.11672   0.12050

 Mulliken charges and spin densities:
               1          2
     1  C   -0.174838  -0.114267
     2  C   -0.137809  -0.075740
     3  N   -0.134003   0.114338
     4  C    1.128192  -1.375413
     5  C   -0.276388  -0.222675
     6  C   -0.189026  -0.310571
     7  C   -0.338462   0.709001
     8  C   -0.291720  -0.261136
     9  C    0.167916  -0.077681
    10  N    0.272902   0.048741
    11  C    0.592759  -0.922357
    12  C   -0.556966   0.080282
    13  C    0.256212  -0.008977
    14  C    0.861971  -1.304451
    15  C   -0.493671   0.499143
    16  C   -0.492577  -0.518816
    17  S    0.170113   0.068682
    18  O   -0.185167   0.004254
    19  O   -0.096328  -0.006001
    20  O   -0.165938  -0.009578
    21  H    0.167164   0.032474
    22  H   -0.571717   0.748595
    23  H   -0.368557   0.733939
    24  H    0.176802   0.006007
    25  H    0.099371   0.051787
    26  H    0.104638   0.034104
    27  H   -0.048310   0.199857
    28  H   -0.206829   0.258077
    29  H   -0.809003   1.032702
    30  H   -0.163037   0.319323
    31  H    0.147370   0.010206
    32  H    0.187947   0.020591
    33  H   -0.079639   0.167203
    34  H   -0.166606   0.329132
    35  H   -0.249524   0.418647
    36  H    0.525891  -0.409000
    37  H   -0.378244   0.580657
    38  H    0.136827   0.098737
    39  H    0.176755   0.056097
    40  H    0.401529  -0.005916
 Sum of Mulliken charges =  -1.00000   1.00000

 Dipole moment (field-independent basis, Debye):
    X=              1.0380    Y=              1.8036    Z=             -6.0892  Tot=              6.4350
 Quadrupole moment (field-independent basis, Debye-Ang):
   XX=           -203.2601   YY=           -167.2928   ZZ=           -186.3686
   XY=             -9.2668   XZ=             20.3146   YZ=              7.2906

 Summary of Natural Population Analysis:

                                       Natural Population
                Natural  -----------------------------------------------
    Atom  No    Charge         Core      Valence    Rydberg      Total
 -----------------------------------------------------------------------
      C    1   -0.14881      0.99956     2.13979    0.00946     3.14881
      C    2   -0.01856      0.99956     2.00553    0.01346     3.01856
      N    3   -0.25932      0.99966     2.74815    0.01151     3.75932
      C    4    0.05880      0.99949     1.92842    0.01329     2.94120
      C    5   -0.17362      0.99953     2.16541    0.00868     3.17362
      C    6    0.05298      0.99948     1.93487    0.01267     2.94702
      C    7   -0.12811      0.99953     2.12132    0.00727     3.12811
      C    8   -0.14878      0.99957     2.14077    0.00844     3.14878
      C    9   -0.01026      0.99956     1.99849    0.01221     3.01026
      N   10   -0.19871      0.99963     2.68753    0.01154     3.69871
      C   11   -0.08398      0.99959     2.07134    0.01304     3.08398
      C   12   -0.19030      0.99961     2.18267    0.00802     3.19030
      C   13   -0.19757      0.99961     2.19011    0.00785     3.19757
      C   14   -0.18714      0.99962     2.17784    0.00968     3.18714
      C   15   -0.20830      0.99961     2.19762    0.01107     3.20830
      C   16   -0.28907      0.99957     2.27780    0.01170     3.28907
      S   17    1.12460      4.99936     1.77226    0.10377     6.87540
      O   18   -0.45869      0.99990     3.45292    0.00586     4.45869
      O   19   -0.45416      0.99990     3.44893    0.00533     4.45416
      O   20   -0.44968      0.99990     3.44392    0.00586     4.44968
      H   21    0.11341      0.00000     0.38569    0.00090     0.38659
      H   22    0.10716      0.00000     0.39157    0.00127     0.39284
      H   23    0.21214      0.00000     0.28040    0.00746     0.28786
      H   24    0.11157      0.00000     0.38763    0.00080     0.38843
      H   25    0.10416      0.00000     0.39513    0.00071     0.39584
      H   26    0.10265      0.00000     0.39673    0.00062     0.39735
      H   27    0.10056      0.00000     0.39855    0.00089     0.39944
      H   28    0.10385      0.00000     0.39230    0.00384     0.39615
      H   29    0.10523      0.00000     0.39221    0.00256     0.39477
      H   30    0.10101      0.00000     0.39786    0.00113     0.39899
      H   31    0.09961      0.00000     0.39930    0.00109     0.40039
      H   32    0.09515      0.00000     0.40378    0.00108     0.40485
      H   33    0.10195      0.00000     0.39519    0.00286     0.39805
      H   34    0.10487      0.00000     0.39211    0.00302     0.39513
      H   35    0.09488      0.00000     0.40370    0.00141     0.40512
      H   36    0.11060      0.00000     0.38600    0.00340     0.38940
      H   37    0.10626      0.00000     0.39252    0.00122     0.39374
      H   38    0.11734      0.00000     0.38173    0.00092     0.38266
      H   39    0.11622      0.00000     0.38275    0.00103     0.38378
      H   40    0.26001      0.00000     0.23578    0.00421     0.23999
 =======================================================================
   * Total *    0.00000     23.99225    54.67662    0.33112    79.00000

 Normal termination of Gaussian 16 at Sun Dec 13 18:18:47 2020.
