 Gaussian 16, Revision A.03,

 -----------------------------------------------------------
 # opt freq B3LYP/6-31G(d) empiricaldispersion=gd3bj scf=xqc
 -----------------------------------------------------------

 ------------------------------
 CID_142859496_JID_696_neutraal
 ------------------------------
 Symbolic Z-matrix:
 Charge =  0 Multiplicity = 1

 SCF Done:  E(RB3LYP) =  -446.270580257     A.U. after   13 cycles
 SCF Done:  E(RB3LYP) =  -446.273182876     A.U. after   10 cycles
 SCF Done:  E(RB3LYP) =  -446.273697359     A.U. after   13 cycles
 SCF Done:  E(RB3LYP) =  -446.273482032     A.U. after   12 cycles
 SCF Done:  E(RB3LYP) =  -446.273933758     A.U. after   11 cycles
 SCF Done:  E(RB3LYP) =  -446.274004341     A.U. after   10 cycles
 SCF Done:  E(RB3LYP) =  -446.274116708     A.U. after   10 cycles
 SCF Done:  E(RB3LYP) =  -446.274325230     A.U. after   10 cycles
 SCF Done:  E(RB3LYP) =  -446.274499417     A.U. after   11 cycles
 SCF Done:  E(RB3LYP) =  -446.274155897     A.U. after   11 cycles
 SCF Done:  E(RB3LYP) =  -446.275896169     A.U. after    6 cycles
 SCF Done:  E(RB3LYP) =  -446.275896264     A.U. after    7 cycles
 SCF Done:  E(RB3LYP) =  -446.275896325     A.U. after    7 cycles
 SCF Done:  E(RB3LYP) =  -446.275896386     A.U. after    7 cycles
 SCF Done:  E(RB3LYP) =  -446.275896425     A.U. after    7 cycles
 SCF Done:  E(RB3LYP) =  -446.275896434     A.U. after    6 cycles
 Optimization completed.
    -- Stationary point found.
 Normal termination of Gaussian 16 at Tue Dec  8 13:24:11 2020.

 --------------------------------------------------------------------
 #N Geom=AllCheck Guess=TCheck SCRF=Check GenChk RB3LYP/6-31G(d) Freq
 --------------------------------------------------------------------

 Structure from the checkpoint file:  "JID_696.chk"
 ------------------------------
 CID_142859496_JID_696_neutraal
 ------------------------------
 Charge =  0 Multiplicity = 1

 SCF Done:  E(RB3LYP) =  -446.275896434     A.U. after    1 cycles

  Exact polarizability: 108.338   2.270  96.673   1.432  -0.318  84.133
 Approx polarizability: 126.422   0.537 129.560  -0.798   0.206 125.283

                      1                      2                      3
                      A                      A                      A
 Frequencies --     12.6961                15.1760                38.0607
 Red. masses --      2.8811                 2.7442                 3.5452
 Frc consts  --      0.0003                 0.0004                 0.0030
 IR Inten    --      1.0294                 0.8746                 0.3056

                      4                      5                      6
                      A                      A                      A
 Frequencies --     48.2944                55.3346                75.1161
 Red. masses --      2.2016                 2.8777                 3.2706
 Frc consts  --      0.0030                 0.0052                 0.0109
 IR Inten    --      0.5686                 0.1476                 0.2328

                      7                      8                      9
                      A                      A                      A
 Frequencies --     97.6768               175.8266               224.9482
 Red. masses --      2.0693                 2.1689                 1.0435
 Frc consts  --      0.0116                 0.0395                 0.0311
 IR Inten    --      8.4470                 1.9959                 0.1160

                     10                     11                     12
                      A                      A                      A
 Frequencies --    260.9442               262.7259               306.8871
 Red. masses --      1.2181                 1.2009                 1.5309
 Frc consts  --      0.0489                 0.0488                 0.0849
 IR Inten    --      6.1812                 5.0418                 1.0920

                     13                     14                     15
                      A                      A                      A
 Frequencies --    308.2203               356.6986               395.3211
 Red. masses --      1.3429                 2.2979                 2.1471
 Frc consts  --      0.0752                 0.1723                 0.1977
 IR Inten    --      0.5931                 5.1117                 0.0601

                     16                     17                     18
                      A                      A                      A
 Frequencies --    404.3406               419.4891               587.1721
 Red. masses --      1.8705                 2.2738                 3.4683
 Frc consts  --      0.1802                 0.2357                 0.7045
 IR Inten    --      0.5819                 2.1870                 1.0525

                     19                     20                     21
                      A                      A                      A
 Frequencies --    654.2070               819.0518               838.7173
 Red. masses --      2.6802                 2.7466                 1.7726
 Frc consts  --      0.6758                 1.0856                 0.7347
 IR Inten    --      0.4799                 0.1164                 6.8785

                     22                     23                     24
                      A                      A                      A
 Frequencies --    904.6566               934.3483               955.8980
 Red. masses --      2.5062                 2.1689                 4.0930
 Frc consts  --      1.2085                 1.1156                 2.2035
 IR Inten    --     12.9884                 0.4278                33.6527

                     25                     26                     27
                      A                      A                      A
 Frequencies --    972.7325              1004.3936              1022.2076
 Red. masses --      1.4069                 1.9166                 1.5692
 Frc consts  --      0.7843                 1.1392                 0.9660
 IR Inten    --      1.8308                 1.3653                 2.2905

                     28                     29                     30
                      A                      A                      A
 Frequencies --   1041.8007              1086.6685              1134.0785
 Red. masses --      1.8583                 1.6586                 1.7734
 Frc consts  --      1.1884                 1.1540                 1.3438
 IR Inten    --      5.7671                 4.5045                39.2345

                     31                     32                     33
                      A                      A                      A
 Frequencies --   1149.9793              1154.3805              1175.1202
 Red. masses --      1.3896                 1.5276                 1.2146
 Frc consts  --      1.0828                 1.1994                 0.9882
 IR Inten    --     14.6298                 2.7177                 0.0005

                     34                     35                     36
                      A                      A                      A
 Frequencies --   1177.0659              1193.9375              1211.0177
 Red. masses --      1.6635                 1.8913                 1.4539
 Frc consts  --      1.3579                 1.5885                 1.2563
 IR Inten    --      6.2478                23.2347                16.9445

                     37                     38                     39
                      A                      A                      A
 Frequencies --   1213.4701              1225.8892              1253.9390
 Red. masses --      2.5492                 1.5648                 1.5066
 Frc consts  --      2.2116                 1.3855                 1.3957
 IR Inten    --     79.0338                 2.3308                 6.9550

                     40                     41                     42
                      A                      A                      A
 Frequencies --   1280.4639              1281.7351              1296.3369
 Red. masses --      1.5712                 2.0079                 1.6834
 Frc consts  --      1.5178                 1.9436                 1.6668
 IR Inten    --      3.6383                17.7416                11.6817

                     43                     44                     45
                      A                      A                      A
 Frequencies --   1330.9479              1334.6163              1371.8664
 Red. masses --      1.3367                 1.3148                 1.3669
 Frc consts  --      1.3951                 1.3798                 1.5157
 IR Inten    --      4.9759                 0.4448                 2.3529

                     46                     47                     48
                      A                      A                      A
 Frequencies --   1393.1001              1409.3218              1443.8104
 Red. masses --      1.5237                 1.5424                 1.2375
 Frc consts  --      1.7423                 1.8050                 1.5200
 IR Inten    --      8.8756                22.6337                 4.6995

                     49                     50                     51
                      A                      A                      A
 Frequencies --   1481.0305              1483.3435              1508.6075
 Red. masses --      1.1936                 1.1223                 1.0471
 Frc consts  --      1.5426                 1.4549                 1.4041
 IR Inten    --      1.3936                 8.0337                 2.4430

                     52                     53                     54
                      A                      A                      A
 Frequencies --   1516.1355              1517.0112              1518.8487
 Red. masses --      1.1159                 1.0644                 1.0675
 Frc consts  --      1.5113                 1.4433                 1.4509
 IR Inten    --      4.9146                11.4216                10.9674

                     55                     56                     57
                      A                      A                      A
 Frequencies --   1524.2646              1525.9842              1529.4742
 Red. masses --      1.0717                 1.0572                 1.0650
 Frc consts  --      1.4671                 1.4505                 1.4679
 IR Inten    --      5.7325                 7.9445                 4.6562

                     58                     59                     60
                      A                      A                      A
 Frequencies --   1534.0911              1540.2265              1543.2906
 Red. masses --      1.0524                 1.0684                 1.0593
 Frc consts  --      1.4592                 1.4933                 1.4865
 IR Inten    --      2.8077                 2.2782                 6.3932

                     61                     62                     63
                      A                      A                      A
 Frequencies --   1548.6308              1555.2053              2899.2231
 Red. masses --      1.0604                 1.1058                 1.0741
 Frc consts  --      1.4984                 1.5758                 5.3196
 IR Inten    --      2.1471                 5.7838                40.0100

                     64                     65                     66
                      A                      A                      A
 Frequencies --   2908.0184              2928.5797              2983.4945
 Red. masses --      1.0724                 1.0638                 1.0358
 Frc consts  --      5.3430                 5.3757                 5.4325
 IR Inten    --     65.4442               173.9076                50.2343

                     67                     68                     69
                      A                      A                      A
 Frequencies --   2996.9806              3033.0889              3036.8881
 Red. masses --      1.0381                 1.1030                 1.1017
 Frc consts  --      5.4936                 5.9787                 5.9864
 IR Inten    --     53.4191               169.2248                 5.3944

                     70                     71                     72
                      A                      A                      A
 Frequencies --   3038.7073              3062.2051              3070.6632
 Red. masses --      1.0403                 1.0844                 1.0739
 Frc consts  --      5.6597                 5.9912                 5.9657
 IR Inten    --     20.8980                22.5903                 6.7708

                     73                     74                     75
                      A                      A                      A
 Frequencies --   3072.6821              3074.6974              3083.0728
 Red. masses --      1.0742                 1.0804                 1.0770
 Frc consts  --      5.9757                 6.0179                 6.0316
 IR Inten    --     44.0114                70.7427                33.2757

                     76                     77                     78
                      A                      A                      A
 Frequencies --   3102.7592              3116.3508              3118.5981
 Red. masses --      1.1024                 1.1041                 1.1051
 Frc consts  --      6.2528                 6.3178                 6.3326
 IR Inten    --     34.8955                32.2432                51.9606

                     79                     80                     81
                      A                      A                      A
 Frequencies --   3126.6125              3139.8192              3141.3067
 Red. masses --      1.1020                 1.0962                 1.0970
 Frc consts  --      6.3469                 6.3669                 6.3777
 IR Inten    --      6.6554                31.6517                25.0201

 - Thermochemistry -
 -------------------
 Temperature   298.150 Kelvin.  Pressure   1.00000 Atm.
 Atom     1 has atomic number  6 and mass  12.00000

 Molecular mass:   145.14666 amu.
 Principal axes and moments of inertia in atomic units:
                           1         2         3
     Eigenvalues --   700.887444057.262174325.24723
           X            0.99997   0.00117  -0.00744
           Y           -0.00122   0.99998  -0.00678
           Z            0.00743   0.00679   0.99995
 This molecule is an asymmetric top.
 Rotational symmetry number  1.
 Warning -- assumption of classical behavior for rotation
           may cause significant error
 Rotational temperatures (Kelvin)      0.12358     0.02135     0.02003
 Rotational constants (GHZ):           2.57494     0.44482     0.41726
 Zero-point vibrational energy     703228.2 (Joules/Mol)
                                  168.07558 (Kcal/Mol)
 Warning -- explicit consideration of  18 degrees of freedom as
           vibrations may cause significant error
 Vibrational temperatures:     18.27    21.83    54.76    69.48    79.61
          (Kelvin)            108.08   140.54   252.98   323.65   375.44
                              378.00   441.54   443.46   513.21   568.78
                              581.76   603.55   844.81   941.26  1178.43
                             1206.73  1301.60  1344.32  1375.32  1399.55
                             1445.10  1470.73  1498.92  1563.47  1631.69
                             1654.56  1660.90  1690.74  1693.54  1717.81
                             1742.38  1745.91  1763.78  1804.14  1842.30
                             1844.13  1865.14  1914.94  1920.22  1973.81
                             2004.36  2027.70  2077.32  2130.87  2134.20
                             2170.55  2181.38  2182.64  2185.28  2193.08
                             2195.55  2200.57  2207.21  2216.04  2220.45
                             2228.13  2237.59  4171.34  4183.99  4213.57
                             4292.58  4311.99  4363.94  4369.40  4372.02
                             4405.83  4418.00  4420.90  4423.80  4435.85
                             4464.18  4483.73  4486.97  4498.50  4517.50
                             4519.64

 Zero-point correction=                           0.267845 (Hartree/Particle)
 Thermal correction to Energy=                    0.281774
 Thermal correction to Enthalpy=                  0.282718
 Thermal correction to Gibbs Free Energy=         0.222896
 Sum of electronic and zero-point Energies=           -446.008051
 Sum of electronic and thermal Energies=              -445.994123
 Sum of electronic and thermal Enthalpies=            -445.993179
 Sum of electronic and thermal Free Energies=         -446.053001

                     E (Thermal)             CV                S
                      KCal/Mol        Cal/Mol-Kelvin    Cal/Mol-Kelvin
 Total                  176.816             46.774            125.906
 Electronic               0.000              0.000              0.000
 Translational            0.889              2.981             40.829
 Rotational               0.889              2.981             30.887
 Vibrational            175.038             40.813             54.191
 Vibration     1          0.593              1.987              7.537
 Vibration     2          0.593              1.986              7.182
 Vibration     3          0.594              1.982              5.358
 Vibration     4          0.595              1.978              4.886
 Vibration     5          0.596              1.975              4.617
 Vibration     6          0.599              1.966              4.015
 Vibration     7          0.603              1.951              3.500
 Vibration     8          0.628              1.872              2.372
 Vibration     9          0.650              1.803              1.919
 Vibration    10          0.669              1.744              1.655
 Vibration    11          0.670              1.741              1.644
 Vibration    12          0.697              1.661              1.379
 Vibration    13          0.698              1.658              1.372
 Vibration    14          0.732              1.561              1.136
 Vibration    15          0.762              1.480              0.980
 Vibration    16          0.770              1.461              0.947
 Vibration    17          0.782              1.428              0.894
 Vibration    18          0.944              1.059              0.472

 Optimization completed.
    -- Stationary point found.
 Normal termination of Gaussian 16 at Tue Dec  8 13:29:43 2020.

 ----------------------------------------------------------------------
 # B3LYP/6-311++G(d,p) empiricaldispersion=gd3bj scf=xqc pop=npa geom=c
 heck
 ----------------------------------------------------------------------

 --------------------------------------
 CID_142859496_JID_696_Energie_neutraal
 --------------------------------------
 Structure from the checkpoint file:  "JID_696.chk"
 Charge =  0 Multiplicity = 1

 SCF Done:  E(RB3LYP) =  -446.407596608     A.U. after   13 cycles
 Normal termination of Gaussian 16 at Tue Dec  8 13:34:15 2020.

 ----------------------------------------------------------------------
 # B3LYP/6-311++G(d,p) empiricaldispersion=gd3bj scf=xqc pop=npa geom=c
 heck
 ----------------------------------------------------------------------

 ------------------------------------
 CID_142859496_JID_696_Energie_kation
 ------------------------------------
 Structure from the checkpoint file:  "JID_696.chk"
 Charge =  1 Multiplicity = 2

 SCF Done:  E(UB3LYP) =  -446.113366641     A.U. after   21 cycles
 Normal termination of Gaussian 16 at Tue Dec  8 13:43:54 2020.
 Gaussian 16:  ES64L-G16RevA.03 25-Dec-2016

 ----------------------------------------------------------------------
 # B3LYP/6-311++G(d,p) empiricaldispersion=gd3bj scf=xqc pop=npa geom=c
 heck
 ----------------------------------------------------------------------

 -----------------------------------
 CID_142859496_JID_696_Energie_anion
 -----------------------------------
 Structure from the checkpoint file:  "JID_696.chk"
 Charge = -1 Multiplicity = 2

                         Standard orientation:
 ---------------------------------------------------------------------
 Center     Atomic      Atomic             Coordinates (Angstroms)
 Number     Number       Type             X           Y           Z
 ---------------------------------------------------------------------
      1          6           0       -0.386842   -1.334090   -0.084366
      2          6           0        0.727104   -0.659875   -0.889028
      3          6           0        0.693582    0.893440   -0.746832
      4          6           0        2.078095    1.264732   -0.193942
      5          7           0        2.483757    0.062268    0.527396
      6          6           0        2.134813   -1.032350   -0.374155
      7          6           0        3.867697    0.062310    0.951602
      8          6           0       -3.131292    1.340958    0.241663
      9          8           0       -3.543029    0.125086   -0.344570
     10          6           0       -4.113901   -0.752239    0.602831
     11          1           0       -0.261878   -1.111791    0.982666
     12          1           0       -0.362992   -2.423799   -0.207386
     13          1           0       -1.372793   -0.975555   -0.398549
     14          1           0        0.630253   -0.949018   -1.941327
     15          1           0        0.481533    1.397781   -1.694302
     16          1           0       -0.087696    1.184787   -0.037723
     17          1           0        2.065808    2.132160    0.475873
     18          1           0        2.778365    1.494264   -1.024140
     19          1           0        2.157915   -1.990931    0.157406
     20          1           0        2.850875   -1.100805   -1.219286
     21          1           0        4.577926    0.143646    0.103561
     22          1           0        4.049830    0.904295    1.628692
     23          1           0        4.091021   -0.863562    1.493069
     24          1           0       -2.375735    1.177964    1.026784
     25          1           0       -3.981491    1.883946    0.685660
     26          1           0       -2.692079    1.950685   -0.551690
     27          1           0       -3.393395   -1.021445    1.391590
     28          1           0       -5.003030   -0.308754    1.079691
     29          1           0       -4.410039   -1.657749    0.067561
 ---------------------------------------------------------------------

 SCF Done:  E(UB3LYP) =  -446.390436913     A.U. after   26 cycles

 The electronic state is 2-A.
 Alpha  occ. eigenvalues --  -19.02897 -14.20245 -10.11136 -10.10969 -10.08722
 Alpha  occ. eigenvalues --  -10.08697 -10.08694 -10.07196 -10.06174 -10.04916
 Alpha  occ. eigenvalues --   -0.94065  -0.83502  -0.69355  -0.63264  -0.62456
 Alpha  occ. eigenvalues --   -0.59374  -0.54919  -0.54021  -0.47719  -0.45927
 Alpha  occ. eigenvalues --   -0.39366  -0.38371  -0.38149  -0.37594  -0.37481
 Alpha  occ. eigenvalues --   -0.34460  -0.32784  -0.31701  -0.30547  -0.29771
 Alpha  occ. eigenvalues --   -0.29013  -0.28086  -0.26476  -0.25872  -0.25221
 Alpha  occ. eigenvalues --   -0.22853  -0.22489  -0.22170  -0.21769  -0.16531
 Alpha  occ. eigenvalues --   -0.12058   0.04566
 Alpha virt. eigenvalues --    0.06191   0.07384   0.07608   0.08634   0.08762
 Alpha virt. eigenvalues --    0.09759   0.10167   0.10500   0.10864   0.11200
 Alpha virt. eigenvalues --    0.11932   0.12610   0.12913   0.13885   0.14188

  Beta  occ. eigenvalues --  -19.02887 -14.20232 -10.11096 -10.10932 -10.08701
  Beta  occ. eigenvalues --  -10.08682 -10.08666 -10.07190 -10.06160 -10.04903
  Beta  occ. eigenvalues --   -0.94046  -0.83479  -0.69332  -0.63233  -0.62401
  Beta  occ. eigenvalues --   -0.59333  -0.54869  -0.53923  -0.47656  -0.45893
  Beta  occ. eigenvalues --   -0.39313  -0.38341  -0.38087  -0.37558  -0.37446
  Beta  occ. eigenvalues --   -0.34425  -0.32753  -0.31676  -0.30523  -0.29731
  Beta  occ. eigenvalues --   -0.28985  -0.28043  -0.26446  -0.25841  -0.25187
  Beta  occ. eigenvalues --   -0.22796  -0.22464  -0.22140  -0.21744  -0.16506
  Beta  occ. eigenvalues --   -0.11989
  Beta virt. eigenvalues --    0.06618   0.07236   0.08022   0.08056   0.09131
  Beta virt. eigenvalues --    0.09455   0.10145   0.10571   0.10918   0.11379
  Beta virt. eigenvalues --    0.11554   0.12294   0.12673   0.13259   0.14164

 Mulliken charges and spin densities:
               1          2
     1  C    0.047429  -0.806237
     2  C   -0.483970   0.923000
     3  C   -0.087055  -0.246927
     4  C    0.588636  -0.974969
     5  N   -0.051417   0.183167
     6  C   -0.368459  -0.242572
     7  C    0.587985  -0.856612
     8  C    0.444255  -0.799216
     9  O   -0.216471   0.066530
    10  C    0.545550  -0.849574
    11  H   -0.107908   0.272541
    12  H   -0.011011   0.110382
    13  H    0.447507  -0.278798
    14  H   -0.073357   0.253564
    15  H   -0.217916   0.354755
    16  H    0.547917  -0.436846
    17  H   -0.335675   0.504673
    18  H   -0.073755   0.179278
    19  H    0.014524   0.163233
    20  H   -0.088843   0.187977
    21  H   -0.112217   0.212268
    22  H   -0.254289   0.387030
    23  H   -0.234642   0.366601
    24  H   -0.168173   0.302353
    25  H   -0.551273   0.681740
    26  H   -0.070182   0.228347
    27  H   -0.104900   0.232699
    28  H   -0.422130   0.545456
    29  H   -0.190162   0.336159
 Sum of Mulliken charges =  -1.00000   1.00000

 Dipole moment (field-independent basis, Debye):
    X=              2.3253    Y=             -1.7657    Z=             -2.1989  Tot=              3.6551
 Quadrupole moment (field-independent basis, Debye-Ang):
   XX=           -160.9877   YY=           -102.6306   ZZ=           -100.0179
   XY=              2.0175   XZ=              3.2817   YZ=             -1.2119

 Summary of Natural Population Analysis:

                                       Natural Population
                Natural  -----------------------------------------------
    Atom  No    Charge         Core      Valence    Rydberg      Total
 -----------------------------------------------------------------------
      C    1   -0.28659      0.99964     2.28145    0.00550     3.28659
      C    2   -0.11454      0.99961     2.10520    0.00973     3.11454
      C    3   -0.19240      0.99962     2.18371    0.00907     3.19240
      C    4   -0.08418      0.99963     2.07202    0.01253     3.08418
      N    5   -0.28025      0.99972     2.76726    0.01327     3.78025
      C    6   -0.07955      0.99961     2.07052    0.00942     3.07955
      C    7   -0.17292      0.99965     2.16593    0.00733     3.17292
      C    8   -0.09967      0.99962     2.08994    0.01010     3.09967
      O    9   -0.29621      0.99989     3.28613    0.01019     4.29621
      C   10   -0.09938      0.99963     2.08988    0.00987     3.09938
      H   11    0.09796      0.00000     0.39997    0.00207     0.40204
      H   12    0.09358      0.00000     0.40529    0.00114     0.40642
      H   13    0.10695      0.00000     0.39089    0.00216     0.39305
      H   14    0.09445      0.00000     0.40443    0.00112     0.40555
      H   15    0.09918      0.00000     0.39971    0.00111     0.40082
      H   16    0.09983      0.00000     0.39834    0.00183     0.40017
      H   17    0.09745      0.00000     0.40113    0.00142     0.40255
      H   18    0.07604      0.00000     0.42218    0.00178     0.42396
      H   19    0.09543      0.00000     0.40290    0.00167     0.40457
      H   20    0.07799      0.00000     0.41990    0.00210     0.42201
      H   21    0.07758      0.00000     0.42014    0.00228     0.42242
      H   22    0.09553      0.00000     0.40285    0.00162     0.40447
      H   23    0.09437      0.00000     0.40413    0.00150     0.40563
      H   24    0.07966      0.00000     0.41870    0.00163     0.42034
      H   25    0.07962      0.00000     0.41847    0.00192     0.42038
      H   26    0.09085      0.00000     0.40770    0.00144     0.40915
      H   27    0.07967      0.00000     0.41882    0.00151     0.42033
      H   28    0.08005      0.00000     0.41783    0.00212     0.41995
      H   29    0.08947      0.00000     0.40929    0.00124     0.41053
 =======================================================================
   * Total *   -0.00000      9.99662    30.87473    0.12865    41.00000

 Normal termination of Gaussian 16 at Tue Dec  8 13:51:04 2020.
