 Gaussian 16, Revision A.03,

 -----------------------------------------------------------
 # opt freq B3LYP/6-31G(d) empiricaldispersion=gd3bj scf=xqc
 -----------------------------------------------------------

 -----------------------------
 CID_21867975_JID_156_neutraal
 -----------------------------
 Symbolic Z-matrix:
 Charge =  0 Multiplicity = 1

 SCF Done:  E(RB3LYP) =  -404.357018595     A.U. after   14 cycles
 SCF Done:  E(RB3LYP) =  -404.358687076     A.U. after   11 cycles
 SCF Done:  E(RB3LYP) =  -404.358797899     A.U. after   11 cycles
 SCF Done:  E(RB3LYP) =  -404.358799370     A.U. after    8 cycles
 Optimization completed.
    -- Stationary point found.

 1\1\GINC-NODE366\FOpt\RB3LYP\6-31G(d)\C9H11N1\VSC10255\13-Dec-2020\0\\
 # opt freq B3LYP/6-31G(d) empiricaldispersion=gd3bj scf=xqc\\CID_21867
 975_JID_156_neutraal\\0,1\C,-2.0058902232,-1.4354893175,0.0008166667\C
 ,-0.6587878711,-0.750918792,0.0000601885\C,0.502535881,-1.5188297487,-
 0.0005593562\C,1.7664045631,-0.914725627,-0.0012680161\C,1.7778817131,
 0.4870761736,-0.0011268572\N,0.6850430191,1.2493326197,-0.0005327943\C
 ,-0.5182361406,0.6536607439,0.0000245659\C,-1.7083052748,1.5817379482,
 0.0007092575\C,3.0361019516,-1.6490414979,-0.0020843349\C,3.2008026189

 Normal termination of Gaussian 16 at Sun Dec 13 12:14:00 2020.

 --------------------------------------------------------------------
 #N Geom=AllCheck Guess=TCheck SCRF=Check GenChk RB3LYP/6-31G(d) Freq
 --------------------------------------------------------------------

 Structure from the checkpoint file:  "JID_156.chk"
 -----------------------------
 CID_21867975_JID_156_neutraal
 -----------------------------
 Charge =  0 Multiplicity = 1

 SCF Done:  E(RB3LYP) =  -404.358799370     A.U. after    1 cycles

  Exact polarizability: 155.037   5.969 106.187   0.005   0.017  46.143
 Approx polarizability: 226.696  19.072 179.758   0.010   0.032  69.450

 ******    1 imaginary frequencies (negative Signs) ******

                      1                      2                      3
                      A                      A                      A
 Frequencies --   -144.9245                47.9898               131.5207
 Red. masses --      1.0246                 2.5504                 2.5863
 Frc consts  --      0.0127                 0.0035                 0.0264
 IR Inten    --      0.0806                 0.0652                 1.3587

                      4                      5                      6
                      A                      A                      A
 Frequencies --    164.3208               191.9209               197.9191
 Red. masses --      1.1562                 3.1523                 2.1101
 Frc consts  --      0.0184                 0.0684                 0.0487
 IR Inten    --      0.3991                 0.7177                 0.3058

                      7                      8                      9
                      A                      A                      A
 Frequencies --    321.8063               332.8463               390.4586
 Red. masses --      2.5712                 2.7168                 3.2450
 Frc consts  --      0.1569                 0.1773                 0.2915
 IR Inten    --      0.2542                 1.0383                 1.0096

                     10                     11                     12
                      A                      A                      A
 Frequencies --    437.5753               454.4141               522.1586
 Red. masses --      3.2304                 3.7244                 2.5076
 Frc consts  --      0.3644                 0.4531                 0.4028
 IR Inten    --      0.0077                 2.9360                 3.4129

                     13                     14                     15
                      A                      A                      A
 Frequencies --    537.3602               576.1423               697.8882
 Red. masses --      3.9231                 3.5349                 2.4017
 Frc consts  --      0.6674                 0.6913                 0.6892
 IR Inten    --      1.0394                 0.3893                 5.2641

                     16                     17                     18
                      A                      A                      A
 Frequencies --    722.6084               758.8474               760.7408
 Red. masses --      6.0188                 3.7103                 2.3659
 Frc consts  --      1.8517                 1.2588                 0.8067
 IR Inten    --      5.6751                 0.8354                 0.7319

                     19                     20                     21
                      A                      A                      A
 Frequencies --    921.2913               922.0559               945.9039
 Red. masses --      1.4765                 1.4140                 1.3867
 Frc consts  --      0.7384                 0.7083                 0.7310
 IR Inten    --      8.7991                37.4218                 0.0453

                     22                     23                     24
                      A                      A                      A
 Frequencies --    963.1318              1021.6273              1026.2273
 Red. masses --      2.6136                 1.8003                 1.4490
 Frc consts  --      1.4285                 1.1071                 0.8991
 IR Inten    --      1.3402                 7.9965                10.0248

                     25                     26                     27
                      A                      A                      A
 Frequencies --   1036.2305              1060.8737              1079.5373
 Red. masses --      1.1208                 1.4376                 1.6210
 Frc consts  --      0.7091                 0.9533                 1.1130
 IR Inten    --     11.9143                 8.1180                 0.0035

                     28                     29                     30
                      A                      A                      A
 Frequencies --   1090.5726              1167.3555              1244.1770
 Red. masses --      1.5958                 2.5785                 2.8140
 Frc consts  --      1.1182                 2.0702                 2.5665
 IR Inten    --      1.9563                12.6810                 3.2998

                     31                     32                     33
                      A                      A                      A
 Frequencies --   1281.5473              1311.4503              1332.1950
 Red. masses --      2.9780                 2.7185                 1.9856
 Frc consts  --      2.8817                 2.7548                 2.0762
 IR Inten    --      1.2221                 7.5008                 0.9084

                     34                     35                     36
                      A                      A                      A
 Frequencies --   1358.3336              1430.2230              1442.8918
 Red. masses --      1.4032                 1.3025                 1.3077
 Frc consts  --      1.5254                 1.5698                 1.6041
 IR Inten    --      1.2505                 1.8970                 5.9931

                     37                     38                     39
                      A                      A                      A
 Frequencies --   1449.4639              1480.5784              1502.0073
 Red. masses --      2.8499                 1.3289                 1.8498
 Frc consts  --      3.5278                 1.7163                 2.4588
 IR Inten    --     41.5322                 2.3327                15.5655

                     40                     41                     42
                      A                      A                      A
 Frequencies --   1506.9100              1511.7902              1530.8021
 Red. masses --      1.1418                 1.0447                 1.0443
 Frc consts  --      1.5276                 1.4068                 1.4418
 IR Inten    --     11.4489                11.7079                 0.0027

                     43                     44                     45
                      A                      A                      A
 Frequencies --   1537.5743              1611.7832              1659.2133
 Red. masses --      1.3323                 4.9116                 5.6325
 Frc consts  --      1.8558                 7.5178                 9.1360
 IR Inten    --     25.9684                 6.1938                11.9301

                     46                     47                     48
                      A                      A                      A
 Frequencies --   1717.0137              3045.2878              3050.5916
 Red. masses --      4.2543                 1.0399                 1.0414
 Frc consts  --      7.3897                 5.6820                 5.7103
 IR Inten    --      9.4279                19.4294                27.2782

                     49                     50                     51
                      A                      A                      A
 Frequencies --   3094.9945              3098.6963              3150.5824
 Red. masses --      1.1004                 1.1010                 1.0873
 Frc consts  --      6.2102                 6.2289                 6.3590
 IR Inten    --     24.4215                11.6871                 0.6434

                     52                     53                     54
                      A                      A                      A
 Frequencies --   3156.5542              3157.9143              3161.6686
 Red. masses --      1.0876                 1.0966                 1.0981
 Frc consts  --      6.3850                 6.4432                 6.4676
 IR Inten    --     50.4139                16.6468                 5.2311

                     55                     56                     57
                      A                      A                      A
 Frequencies --   3170.9990              3182.1613              3250.0254
 Red. masses --      1.0666                 1.0869                 1.1156
 Frc consts  --      6.3187                 6.4844                 6.9425
 IR Inten    --      1.2521                14.4478                16.2430

 - Thermochemistry -
 -------------------
 Temperature   298.150 Kelvin.  Pressure   1.00000 Atm.
 Atom     1 has atomic number  6 and mass  12.00000

 Molecular mass:   133.08915 amu.
 Principal axes and moments of inertia in atomic units:
                           1         2         3
     Eigenvalues --   670.821171960.593662609.00071
           X            0.99995  -0.00961   0.00000
           Y            0.00961   0.99995   0.00002
           Z           -0.00000  -0.00002   1.00000
 This molecule is an asymmetric top.
 Rotational symmetry number  1.
 Warning -- assumption of classical behavior for rotation
           may cause significant error
 Rotational temperatures (Kelvin)      0.12912     0.04418     0.03320
 Rotational constants (GHZ):           2.69035     0.92051     0.69174
    1 imaginary frequencies ignored.
 Zero-point vibrational energy     465997.8 (Joules/Mol)
                                  111.37616 (Kcal/Mol)
 Warning -- explicit consideration of  13 degrees of freedom as
           vibrations may cause significant error
 Vibrational temperatures:     69.05   189.23   236.42   276.13   284.76
          (Kelvin)            463.01   478.89   561.78   629.57   653.80
                              751.27   773.14   828.94  1004.11  1039.67
                             1091.81  1094.54  1325.53  1326.63  1360.94
                             1385.73  1469.89  1476.51  1490.90  1526.36
                             1553.21  1569.09  1679.56  1790.09  1843.86
                             1886.88  1916.73  1954.34  2057.77  2076.00
                             2085.46  2130.22  2161.05  2168.11  2175.13
                             2202.48  2212.23  2319.00  2387.24  2470.40
                             4381.49  4389.12  4453.01  4458.33  4532.99
                             4541.58  4543.53  4548.94  4562.36  4578.42
                             4676.06

 Zero-point correction=                           0.177489 (Hartree/Particle)
 Thermal correction to Energy=                    0.186697
 Thermal correction to Enthalpy=                  0.187641
 Thermal correction to Gibbs Free Energy=         0.142966
 Sum of electronic and zero-point Energies=           -404.181310
 Sum of electronic and thermal Energies=              -404.172102
 Sum of electronic and thermal Enthalpies=            -404.171158
 Sum of electronic and thermal Free Energies=         -404.215834

                     E (Thermal)             CV                S
                      KCal/Mol        Cal/Mol-Kelvin    Cal/Mol-Kelvin
 Total                  117.154             34.966             94.028
 Electronic               0.000              0.000              0.000
 Translational            0.889              2.981             40.570
 Rotational               0.889              2.981             29.619
 Vibrational            115.377             29.004             23.839
 Vibration     1          0.595              1.978              4.899
 Vibration     2          0.612              1.922              2.924
 Vibration     3          0.623              1.886              2.499
 Vibration     4          0.634              1.851              2.209
 Vibration     5          0.637              1.843              2.152
 Vibration     6          0.707              1.632              1.301
 Vibration     7          0.715              1.610              1.246
 Vibration     8          0.758              1.491              0.998
 Vibration     9          0.798              1.388              0.834
 Vibration    10          0.813              1.351              0.783
 Vibration    11          0.877              1.201              0.605
 Vibration    12          0.892              1.167              0.571
 Vibration    13          0.933              1.083              0.493

                           ! Non-Optimized Parameters !

 1\1\GINC-NODE366\Freq\RB3LYP\6-31G(d)\C9H11N1\VSC10255\13-Dec-2020\0\\
 #N Geom=AllCheck Guess=TCheck SCRF=Check GenChk RB3LYP/6-31G(d) Freq\\
 CID_21867975_JID_156_neutraal\\0,1\C,-2.0058902232,-1.4354893175,0.000
 8166667\C,-0.6587878711,-0.750918792,0.0000601885\C,0.502535881,-1.518
 8297487,-0.0005593562\C,1.7664045631,-0.914725627,-0.0012680161\C,1.77
 78817131,0.4870761736,-0.0011268572\N,0.6850430191,1.2493326197,-0.000
 5327943\C,-0.5182361406,0.6536607439,0.0000245659\C,-1.7083052748,1.58
 17379482,0.0007092575\C,3.0361019516,-1.6490414979,-0.0020843349\C,3.2

 Normal termination of Gaussian 16 at Sun Dec 13 12:17:09 2020.

 ----------------------------------------------------------------------
 # B3LYP/6-311++G(d,p) empiricaldispersion=gd3bj scf=xqc pop=npa geom=c
 heck
 ----------------------------------------------------------------------

 -------------------------------------
 CID_21867975_JID_156_Energie_neutraal
 -------------------------------------
 Structure from the checkpoint file:  "JID_156.chk"
 Charge =  0 Multiplicity = 1

 SCF Done:  E(RB3LYP) =  -404.464677810     A.U. after   14 cycles
 Normal termination of Gaussian 16 at Sun Dec 13 12:18:02 2020.

 ----------------------------------------------------------------------
 # B3LYP/6-311++G(d,p) empiricaldispersion=gd3bj scf=xqc pop=npa geom=c
 heck
 ----------------------------------------------------------------------

 -----------------------------------
 CID_21867975_JID_156_Energie_kation
 -----------------------------------
 Structure from the checkpoint file:  "JID_156.chk"
 Charge =  1 Multiplicity = 2

 SCF Done:  E(UB3LYP) =  -404.162869960     A.U. after   19 cycles
 Normal termination of Gaussian 16 at Sun Dec 13 12:19:54 2020.
 Gaussian 16:  ES64L-G16RevA.03 25-Dec-2016

 ----------------------------------
 CID_21867975_JID_156_Energie_anion
 ----------------------------------
 Structure from the checkpoint file:  "JID_156.chk"
 Charge = -1 Multiplicity = 2

                         Standard orientation:
 ---------------------------------------------------------------------
 Center     Atomic      Atomic             Coordinates (Angstroms)
 Number     Number       Type             X           Y           Z
 ---------------------------------------------------------------------
      1          6           0       -1.696954    2.074505   -0.000286
      2          6           0       -0.903596    0.788462   -0.000174
      3          6           0        0.487734    0.839074   -0.000504
      4          6           0        1.251954   -0.334925   -0.000411
      5          6           0        0.531590   -1.537529   -0.000152
      6          7           0       -0.798334   -1.618986    0.000160
      7          6           0       -1.515224   -0.483744    0.000182
      8          6           0       -3.014518   -0.656107    0.000512
      9          6           0        2.718296   -0.369440   -0.000603
     10          6           0        3.550619    0.678409    0.001052
     11          1           0       -1.458666    2.681473    0.881529
     12          1           0       -1.459085    2.681068   -0.882493
     13          1           0       -2.774167    1.900390    0.000014
     14          1           0        0.979936    1.808816   -0.000949
     15          1           0        1.068626   -2.486240   -0.000149
     16          1           0       -3.477253   -0.197702    0.883245
     17          1           0       -3.477674   -0.197661   -0.881974
     18          1           0       -3.245759   -1.722698    0.000551
     19          1           0        3.146436   -1.371654   -0.002154
     20          1           0        4.626773    0.537930    0.000706
     21          1           0        3.199768    1.706942    0.002859
 ---------------------------------------------------------------------

 SCF Done:  E(UB3LYP) =  -404.458893666     A.U. after   29 cycles

 The electronic state is 2-A.
 Alpha  occ. eigenvalues --  -14.13363 -10.04097 -10.03794 -10.03431 -10.02955
 Alpha  occ. eigenvalues --  -10.02676 -10.00602 -10.00360  -9.99935  -9.98941
 Alpha  occ. eigenvalues --   -0.77589  -0.65703  -0.64630  -0.59703  -0.56397
 Alpha  occ. eigenvalues --   -0.53546  -0.46070  -0.44781  -0.39492  -0.34627
 Alpha  occ. eigenvalues --   -0.33989  -0.30141  -0.29807  -0.27816  -0.27282
 Alpha  occ. eigenvalues --   -0.26400  -0.26003  -0.24332  -0.22549  -0.22433
 Alpha  occ. eigenvalues --   -0.21216  -0.18400  -0.15408  -0.11100  -0.09511
 Alpha  occ. eigenvalues --   -0.07188   0.06477
 Alpha virt. eigenvalues --    0.08569   0.10036   0.10456   0.11632   0.11802
 Alpha virt. eigenvalues --    0.12171   0.12601   0.14094   0.14216   0.14598
 Alpha virt. eigenvalues --    0.15368   0.17245   0.17310   0.17641   0.17832

  Beta  occ. eigenvalues --  -14.13195 -10.04085 -10.03849 -10.03106 -10.02981
  Beta  occ. eigenvalues --  -10.02788 -10.00455 -10.00230  -9.99560  -9.98644
  Beta  occ. eigenvalues --   -0.77210  -0.65378  -0.64209  -0.59378  -0.56042
  Beta  occ. eigenvalues --   -0.53332  -0.45382  -0.44570  -0.39064  -0.34468
  Beta  occ. eigenvalues --   -0.33790  -0.29879  -0.29560  -0.27657  -0.27148
  Beta  occ. eigenvalues --   -0.26284  -0.25947  -0.24168  -0.22270  -0.21690
  Beta  occ. eigenvalues --   -0.21012  -0.18186  -0.13711  -0.09973  -0.09292
  Beta  occ. eigenvalues --   -0.05561
  Beta virt. eigenvalues --    0.08458   0.09975   0.10377   0.11155   0.11752
  Beta virt. eigenvalues --    0.12052   0.12646   0.12873   0.13967   0.14463
  Beta virt. eigenvalues --    0.14614   0.15219   0.17093   0.17460   0.17552

 Mulliken charges and spin densities:
               1          2
     1  C   -0.392321  -0.045939
     2  C   -0.042006  -0.087389
     3  C    0.145189   0.414560
     4  C    1.768200   0.102542
     5  C   -0.091477  -0.023462
     6  N   -0.015355   0.084727
     7  C   -1.220728   0.144853
     8  C   -0.717479  -0.020781
     9  C   -0.954453  -0.049437
    10  C   -0.583452   0.417710
    11  H    0.098673   0.042135
    12  H    0.098024   0.042680
    13  H    0.135100  -0.001189
    14  H    0.044181  -0.033432
    15  H    0.136115   0.003106
    16  H    0.100577   0.025836
    17  H    0.100350   0.026047
    18  H    0.131521  -0.000244
    19  H    0.071719  -0.011305
    20  H    0.099784  -0.012712
    21  H    0.087840  -0.018306
 Sum of Mulliken charges =  -1.00000   1.00000

 Dipole moment (field-independent basis, Debye):
    X=             -3.7187    Y=              1.0511    Z=              0.0019  Tot=              3.8644
 Quadrupole moment (field-independent basis, Debye-Ang):
   XX=            -95.2525   YY=            -76.2304   ZZ=            -73.2481
   XY=             -7.8312   XZ=             -0.0039   YZ=              0.0134

 Summary of Natural Population Analysis:

                                       Natural Population
                Natural  -----------------------------------------------
    Atom  No    Charge         Core      Valence    Rydberg      Total
 -----------------------------------------------------------------------
      C    1   -0.29003      0.99964     2.28482    0.00556     3.29003
      C    2   -0.06356      0.99948     2.05500    0.00908     3.06356
      C    3   -0.00204      0.99949     1.99317    0.00938     3.00204
      C    4   -0.03605      0.99949     2.02633    0.01024     3.03605
      C    5    0.02240      0.99956     1.96522    0.01282     2.97760
      N    6   -0.24020      0.99968     2.72556    0.01495     3.74020
      C    7    0.14447      0.99951     1.84094    0.01508     2.85553
      C    8   -0.30055      0.99965     2.29672    0.00418     3.30055
      C    9   -0.07854      0.99956     2.07029    0.00869     3.07854
      C   10   -0.14842      0.99959     2.13940    0.00943     3.14842
      H   11    0.09703      0.00000     0.40206    0.00091     0.40297
      H   12    0.09704      0.00000     0.40205    0.00091     0.40296
      H   13    0.09663      0.00000     0.40270    0.00067     0.40337
      H   14    0.08748      0.00000     0.41133    0.00119     0.41252
      H   15    0.07686      0.00000     0.42152    0.00162     0.42314
      H   16    0.09486      0.00000     0.40418    0.00096     0.40514
      H   17    0.09486      0.00000     0.40418    0.00096     0.40514
      H   18    0.10513      0.00000     0.39381    0.00106     0.39487
      H   19    0.08077      0.00000     0.41747    0.00176     0.41923
      H   20    0.08008      0.00000     0.41906    0.00086     0.41992
      H   21    0.08178      0.00000     0.41728    0.00094     0.41822
 =======================================================================
   * Total *    0.00000      9.99564    25.89311    0.11125    36.00000

 Normal termination of Gaussian 16 at Sun Dec 13 12:22:42 2020.
