 Gaussian 16, Revision A.03,

 -----------------------------------------------------------
 # opt freq B3LYP/6-31G(d) empiricaldispersion=gd3bj scf=xqc
 -----------------------------------------------------------

 ------------------------------
 CID_83908567_JID_3026_neutraal
 ------------------------------
 Symbolic Z-matrix:
 Charge =  0 Multiplicity = 1

 SCF Done:  E(RB3LYP) =  -956.637918184     A.U. after   14 cycles
 SCF Done:  E(RB3LYP) =  -956.642867884     A.U. after   12 cycles
 SCF Done:  E(RB3LYP) =  -956.643526651     A.U. after   11 cycles
 SCF Done:  E(RB3LYP) =  -956.643958536     A.U. after   12 cycles
 SCF Done:  E(RB3LYP) =  -956.644036338     A.U. after   11 cycles
 SCF Done:  E(RB3LYP) =  -956.643708887     A.U. after   12 cycles
 SCF Done:  E(RB3LYP) =  -956.644207789     A.U. after   11 cycles
 SCF Done:  E(RB3LYP) =  -956.644211792     A.U. after   10 cycles
 SCF Done:  E(RB3LYP) =  -956.644248483     A.U. after   10 cycles
 SCF Done:  E(RB3LYP) =  -956.644249007     A.U. after    7 cycles
 SCF Done:  E(RB3LYP) =  -956.649139527     A.U. after    7 cycles
 SCF Done:  E(RB3LYP) =  -956.649139935     A.U. after    7 cycles
 SCF Done:  E(RB3LYP) =  -956.649140170     A.U. after    7 cycles
 SCF Done:  E(RB3LYP) =  -956.649140236     A.U. after    6 cycles
 SCF Done:  E(RB3LYP) =  -956.649140259     A.U. after    6 cycles
 Optimization completed.
    -- Stationary point found.
 Normal termination of Gaussian 16 at Wed Dec  9 22:46:38 2020.

 --------------------------------------------------------------------
 #N Geom=AllCheck Guess=TCheck SCRF=Check GenChk RB3LYP/6-31G(d) Freq
 --------------------------------------------------------------------

 Structure from the checkpoint file:  "JID_3026.chk"
 ------------------------------
 CID_83908567_JID_3026_neutraal
 ------------------------------
 Charge =  0 Multiplicity = 1

 SCF Done:  E(RB3LYP) =  -956.649140259     A.U. after    1 cycles

  Exact polarizability: 133.264   2.868 119.693  -0.048   0.081 101.836
 Approx polarizability: 173.528   0.687 189.384   1.508   2.327 155.539

                      1                      2                      3
                      A                      A                      A
 Frequencies --     50.7065                95.7013               124.7699
 Red. masses --      5.0836                 3.2390                 2.7638
 Frc consts  --      0.0077                 0.0175                 0.0253
 IR Inten    --      1.0611                 0.1371                 0.3236

                      4                      5                      6
                      A                      A                      A
 Frequencies --    130.7190               144.2675               159.1994
 Red. masses --      1.6481                 1.4658                 1.2572
 Frc consts  --      0.0166                 0.0180                 0.0188
 IR Inten    --      0.9508                 0.2876                 0.2188

                      7                      8                      9
                      A                      A                      A
 Frequencies --    174.6815               204.3396               239.9317
 Red. masses --      2.7496                 2.0423                 3.3285
 Frc consts  --      0.0494                 0.0502                 0.1129
 IR Inten    --      0.4210                 1.3674                 2.5384

                     10                     11                     12
                      A                      A                      A
 Frequencies --    252.3639               264.0389               301.3874
 Red. masses --      5.7283                 4.0243                 1.6351
 Frc consts  --      0.2149                 0.1653                 0.0875
 IR Inten    --      1.3347                 1.2958                 0.8574

                     13                     14                     15
                      A                      A                      A
 Frequencies --    311.4712               323.3347               342.7643
 Red. masses --      3.2779                 2.6343                 1.1846
 Frc consts  --      0.1874                 0.1623                 0.0820
 IR Inten    --      4.7790                 4.5297                41.8911

                     16                     17                     18
                      A                      A                      A
 Frequencies --    346.1292               375.0028               408.9427
 Red. masses --      2.9792                 1.9603                 3.3868
 Frc consts  --      0.2103                 0.1624                 0.3337
 IR Inten    --      6.4488                 2.6013                 7.4717

                     19                     20                     21
                      A                      A                      A
 Frequencies --    474.4696               481.4187               533.7920
 Red. masses --      3.9022                 3.8839                 3.5449
 Frc consts  --      0.5176                 0.5303                 0.5951
 IR Inten    --      3.7323                 7.1772                 1.3700

                     22                     23                     24
                      A                      A                      A
 Frequencies --    567.8307               635.4554               712.3949
 Red. masses --      4.2302                 4.4596                 5.0616
 Frc consts  --      0.8036                 1.0610                 1.5135
 IR Inten    --      0.7672                 2.2199                 0.6117

                     25                     26                     27
                      A                      A                      A
 Frequencies --    744.7766               769.8571               800.8280
 Red. masses --      2.6861                 4.8526                 5.2668
 Frc consts  --      0.8779                 1.6945                 1.9901
 IR Inten    --      8.7684                11.6725                 0.9533

                     28                     29                     30
                      A                      A                      A
 Frequencies --    850.7806               864.1231               893.7365
 Red. masses --      1.6332                 2.7926                 2.1132
 Frc consts  --      0.6965                 1.2286                 0.9945
 IR Inten    --      0.3922                37.9583                 6.1233

                     31                     32                     33
                      A                      A                      A
 Frequencies --    905.5263               958.1922               972.7936
 Red. masses --      1.6438                 1.7115                 2.6598
 Frc consts  --      0.7942                 0.9258                 1.4830
 IR Inten    --    103.4906                 3.3611                14.7036

                     34                     35                     36
                      A                      A                      A
 Frequencies --    997.8366              1053.3689              1062.0567
 Red. masses --      2.2687                 3.6646                 1.5455
 Frc consts  --      1.3309                 2.3957                 1.0271
 IR Inten    --      7.0137                 8.1685                13.6168

                     37                     38                     39
                      A                      A                      A
 Frequencies --   1069.5858              1082.1502              1090.6675
 Red. masses --      1.5403                 1.7572                 2.9775
 Frc consts  --      1.0382                 1.2124                 2.0868
 IR Inten    --      5.5080                 4.0493               184.1132

                     40                     41                     42
                      A                      A                      A
 Frequencies --   1124.4293              1126.2931              1175.9968
 Red. masses --      1.4386                 1.5149                 2.1859
 Frc consts  --      1.0716                 1.1322                 1.7811
 IR Inten    --      1.6865                 1.6014                 6.4688

                     43                     44                     45
                      A                      A                      A
 Frequencies --   1186.2328              1217.8140              1229.5766
 Red. masses --      1.2808                 1.4844                 1.4756
 Frc consts  --      1.0619                 1.2970                 1.3144
 IR Inten    --      1.4177                 2.7777                29.0782

                     46                     47                     48
                      A                      A                      A
 Frequencies --   1252.3308              1283.0877              1292.3418
 Red. masses --      2.0877                 1.5897                 1.5017
 Frc consts  --      1.9291                 1.5420                 1.4777
 IR Inten    --    178.8436                76.6690                 5.8148

                     49                     50                     51
                      A                      A                      A
 Frequencies --   1322.2878              1337.5233              1349.0107
 Red. masses --      1.6658                 1.4772                 1.7709
 Frc consts  --      1.7160                 1.5570                 1.8987
 IR Inten    --      4.1899                 7.7829                15.5264

                     52                     53                     54
                      A                      A                      A
 Frequencies --   1372.6651              1395.1986              1424.8399
 Red. masses --      1.3588                 1.3234                 1.4216
 Frc consts  --      1.5085                 1.5178                 1.7005
 IR Inten    --      7.8805                 0.5551                 0.1153

                     55                     56                     57
                      A                      A                      A
 Frequencies --   1439.6473              1448.5034              1484.3063
 Red. masses --      1.2537                 1.2398                 1.0864
 Frc consts  --      1.5309                 1.5326                 1.4103
 IR Inten    --      4.9429                16.4761                 2.8531

                     58                     59                     60
                      A                      A                      A
 Frequencies --   1490.4965              1495.9208              1512.2644
 Red. masses --      1.1914                 1.0852                 1.0482
 Frc consts  --      1.5594                 1.4307                 1.4124
 IR Inten    --      3.9111                16.2225                 6.5647

                     61                     62                     63
                      A                      A                      A
 Frequencies --   1521.1715              1524.6345              1528.8478
 Red. masses --      1.0496                 1.0478                 1.0489
 Frc consts  --      1.4310                 1.4351                 1.4444
 IR Inten    --      6.8411                 9.4126                 0.6400

                     64                     65                     66
                      A                      A                      A
 Frequencies --   1537.8618              1554.9636              1689.7960
 Red. masses --      1.0438                 1.0519                 1.0917
 Frc consts  --      1.4544                 1.4986                 1.8367
 IR Inten    --      2.0428                 3.5379                42.1065

                     67                     68                     69
                      A                      A                      A
 Frequencies --   1805.8974              3027.8499              3034.2278
 Red. masses --     11.6320                 1.0826                 1.0825
 Frc consts  --     22.3507                 5.8479                 5.8720
 IR Inten    --    172.2198                18.4379                23.6624

                     70                     71                     72
                      A                      A                      A
 Frequencies --   3064.7314              3069.0982              3076.5468
 Red. masses --      1.0412                 1.0458                 1.0295
 Frc consts  --      5.7619                 5.8038                 5.7412
 IR Inten    --     23.1177                26.6684                35.8767

                     73                     74                     75
                      A                      A                      A
 Frequencies --   3083.2681              3085.9219              3125.4613
 Red. masses --      1.0600                 1.0595                 1.0980
 Frc consts  --      5.9374                 5.9447                 6.3197
 IR Inten    --     12.5676                37.2954                32.0390

                     76                     77                     78
                      A                      A                      A
 Frequencies --   3137.1967              3137.6507              3139.9804
 Red. masses --      1.1054                 1.0932                 1.1055
 Frc consts  --      6.4099                 6.3408                 6.4217
 IR Inten    --     17.6262                16.1274                 5.3420

                     79                     80                     81
                      A                      A                      A
 Frequencies --   3151.5908              3161.9443              3175.1999
 Red. masses --      1.1074                 1.1000                 1.1013
 Frc consts  --      6.4804                 6.4795                 6.5417
 IR Inten    --     19.0686                 5.0447                20.9423

                     82                     83                     84
                      A                      A                      A
 Frequencies --   3183.7185              3463.1950              3552.7786
 Red. masses --      1.1074                 1.0491                 1.0933
 Frc consts  --      6.6132                 7.4136                 8.1304
 IR Inten    --     15.9493                 0.0755                 0.1709

 - Thermochemistry -
 -------------------
 Temperature   298.150 Kelvin.  Pressure   1.00000 Atm.
 Atom     1 has atomic number  6 and mass  12.00000

 Molecular mass:   203.09800 amu.
 Principal axes and moments of inertia in atomic units:
                           1         2         3
     Eigenvalues --  1442.530953535.354263866.96053
           X            0.99983   0.01818  -0.00231
           Y           -0.01819   0.99982  -0.00464
           Z            0.00222   0.00468   0.99999
 This molecule is an asymmetric top.
 Rotational symmetry number  1.
 Warning -- assumption of classical behavior for rotation
           may cause significant error
 Rotational temperatures (Kelvin)      0.06004     0.02450     0.02240
 Rotational constants (GHZ):           1.25109     0.51048     0.46671
 Zero-point vibrational energy     685255.0 (Joules/Mol)
                                  163.77988 (Kcal/Mol)
 Warning -- explicit consideration of  22 degrees of freedom as
           vibrations may cause significant error
 Vibrational temperatures:     72.96   137.69   179.52   188.08   207.57
          (Kelvin)            229.05   251.33   294.00   345.21   363.10
                              379.89   433.63   448.14   465.21   493.16
                              498.00   539.55   588.38   682.66   692.65
                              768.01   816.98   914.28  1024.98  1071.57
                             1107.65  1152.21  1224.08  1243.28  1285.89
                             1302.85  1378.62  1399.63  1435.66  1515.56
                             1528.06  1538.90  1556.97  1569.23  1617.80
                             1620.48  1692.00  1706.72  1752.16  1769.09
                             1801.82  1846.08  1859.39  1902.48  1924.40
                             1940.93  1974.96  2007.38  2050.03  2071.33
                             2084.07  2135.59  2144.49  2152.30  2175.81
                             2188.63  2193.61  2199.67  2212.64  2237.25
                             2431.24  2598.28  4356.40  4365.58  4409.46
                             4415.75  4426.46  4436.14  4439.95  4496.84
                             4513.73  4514.38  4517.73  4534.44  4549.33
                             4568.40  4580.66  4982.77  5111.66

 Zero-point correction=                           0.261000 (Hartree/Particle)
 Thermal correction to Energy=                    0.275374
 Thermal correction to Enthalpy=                  0.276318
 Thermal correction to Gibbs Free Energy=         0.220897
 Sum of electronic and zero-point Energies=           -956.388140
 Sum of electronic and thermal Energies=              -956.373767
 Sum of electronic and thermal Enthalpies=            -956.372823
 Sum of electronic and thermal Free Energies=         -956.428243

                     E (Thermal)             CV                S
                      KCal/Mol        Cal/Mol-Kelvin    Cal/Mol-Kelvin
 Total                  172.799             54.637            116.643
 Electronic               0.000              0.000              0.000
 Translational            0.889              2.981             41.830
 Rotational               0.889              2.981             31.356
 Vibrational            171.022             48.675             43.457
 Vibration     1          0.595              1.977              4.790
 Vibration     2          0.603              1.952              3.540
 Vibration     3          0.610              1.928              3.025
 Vibration     4          0.612              1.923              2.935
 Vibration     5          0.616              1.909              2.746
 Vibration     6          0.621              1.892              2.559
 Vibration     7          0.627              1.874              2.385
 Vibration     8          0.640              1.834              2.094
 Vibration     9          0.657              1.779              1.803
 Vibration    10          0.664              1.759              1.714
 Vibration    11          0.671              1.739              1.635
 Vibration    12          0.693              1.671              1.409
 Vibration    13          0.700              1.652              1.355
 Vibration    14          0.708              1.629              1.293
 Vibration    15          0.722              1.590              1.199
 Vibration    16          0.724              1.583              1.184
 Vibration    17          0.746              1.523              1.059
 Vibration    18          0.773              1.451              0.930
 Vibration    19          0.831              1.307              0.725
 Vibration    20          0.838              1.291              0.706
 Vibration    21          0.889              1.175              0.579
 Vibration    22          0.924              1.101              0.508

 Optimization completed.
    -- Stationary point found.
 Normal termination of Gaussian 16 at Wed Dec  9 22:55:50 2020.

 ----------------------------------------------------------------------
 # B3LYP/6-311++G(d,p) empiricaldispersion=gd3bj scf=xqc pop=npa geom=c
 heck
 ----------------------------------------------------------------------

 --------------------------------------
 CID_83908567_JID_3026_Energie_neutraal
 --------------------------------------
 Structure from the checkpoint file:  "JID_3026.chk"
 Charge =  0 Multiplicity = 1

 SCF Done:  E(RB3LYP) =  -956.842645155     A.U. after   14 cycles
 Normal termination of Gaussian 16 at Wed Dec  9 22:59:22 2020.

 ----------------------------------------------------------------------
 # B3LYP/6-311++G(d,p) empiricaldispersion=gd3bj scf=xqc pop=npa geom=c
 heck
 ----------------------------------------------------------------------

 ------------------------------------
 CID_83908567_JID_3026_Energie_kation
 ------------------------------------
 Structure from the checkpoint file:  "JID_3026.chk"
 Charge =  1 Multiplicity = 2

 SCF Done:  E(UB3LYP) =  -956.549708437     A.U. after   23 cycles
 Normal termination of Gaussian 16 at Wed Dec  9 23:06:43 2020.
 Gaussian 16:  ES64L-G16RevA.03 25-Dec-2016

 ----------------------------------------------------------------------
 # B3LYP/6-311++G(d,p) empiricaldispersion=gd3bj scf=xqc pop=npa geom=c
 heck
 ----------------------------------------------------------------------

 -----------------------------------
 CID_83908567_JID_3026_Energie_anion
 -----------------------------------
 Structure from the checkpoint file:  "JID_3026.chk"
 Charge = -1 Multiplicity = 2

                         Standard orientation:
 ---------------------------------------------------------------------
 Center     Atomic      Atomic             Coordinates (Angstroms)
 Number     Number       Type             X           Y           Z
 ---------------------------------------------------------------------
      1          6           0       -0.098867    1.514288   -1.529742
      2          6           0       -0.240475    1.257425   -0.023862
      3          6           0       -1.669496    1.535908    0.471428
      4         16           0       -2.902489    0.312522   -0.113760
      5          6           0       -2.063602   -1.173506    0.559749
      6          6           0       -0.624676   -1.342895    0.046666
      7          6           0        0.258684   -0.132593    0.461967
      8          6           0        1.719354   -0.399805    0.061873
      9          8           0        2.202749   -1.494161   -0.142283
     10          8           0        2.468466    0.728879    0.107747
     11          6           0        3.875105    0.540165   -0.113259
     12          7           0        0.259744   -0.090666    1.946741
     13          6           0       -0.601231   -1.709079   -1.443916
     14          1           0       -0.193101    2.588434   -1.724733
     15          1           0       -0.877239    1.006488   -2.101320
     16          1           0        0.876543    1.196518   -1.908632
     17          1           0        0.403017    1.988459    0.483366
     18          1           0       -1.693078    1.556631    1.563141
     19          1           0       -2.007660    2.508249    0.099830
     20          1           0       -2.671282   -2.029247    0.250049
     21          1           0       -2.078874   -1.115219    1.650161
     22          1           0       -0.198333   -2.200760    0.584890
     23          1           0        4.299417   -0.113702    0.653261
     24          1           0        4.050662    0.093658   -1.095048
     25          1           0        4.315713    1.535747   -0.058251
     26          1           0        0.615414   -0.973714    2.311746
     27          1           0        0.896044    0.639000    2.265215
     28          1           0        0.413778   -1.713522   -1.844853
     29          1           0       -1.009231   -2.718407   -1.568908
     30          1           0       -1.218666   -1.031499   -2.036076
 ---------------------------------------------------------------------

 SCF Done:  E(UB3LYP) =  -956.830153232     A.U. after   33 cycles
 SCF Done:  E(UB3LYP) =  -956.830153233     a.u. after    1 cycles

 The electronic state is 2-A.
 Alpha  occ. eigenvalues --  -88.73676 -19.06682 -19.01295 -14.20345 -10.19874
 Alpha  occ. eigenvalues --  -10.12663 -10.11609 -10.09819 -10.09533 -10.08760
 Alpha  occ. eigenvalues --  -10.08492 -10.06090 -10.05956  -7.82320  -5.78694
 Alpha  occ. eigenvalues --   -5.78364  -5.77694  -1.00788  -0.92056  -0.81211
 Alpha  occ. eigenvalues --   -0.72982  -0.68949  -0.66304  -0.62939  -0.58726
 Alpha  occ. eigenvalues --   -0.58082  -0.53121  -0.50717  -0.47195  -0.43180
 Alpha  occ. eigenvalues --   -0.41502  -0.39200  -0.38886  -0.37899  -0.36871
 Alpha  occ. eigenvalues --   -0.35374  -0.34314  -0.33756  -0.32700  -0.32008
 Alpha  occ. eigenvalues --   -0.30751  -0.29304  -0.28248  -0.27147  -0.26402
 Alpha  occ. eigenvalues --   -0.25746  -0.25663  -0.25165  -0.24945  -0.20870
 Alpha  occ. eigenvalues --   -0.20724  -0.20660  -0.19199  -0.15215  -0.12481
 Alpha  occ. eigenvalues --    0.04478
 Alpha virt. eigenvalues --    0.06908   0.07348   0.07532   0.09158   0.09234
 Alpha virt. eigenvalues --    0.09744   0.09904   0.10115   0.10359   0.11287
 Alpha virt. eigenvalues --    0.11897   0.12649   0.12967   0.13514   0.13812

  Beta  occ. eigenvalues --  -88.73675 -19.06672 -19.01284 -14.20300 -10.19873
  Beta  occ. eigenvalues --  -10.12661 -10.11550 -10.09809 -10.09516 -10.08750
  Beta  occ. eigenvalues --  -10.08482 -10.06083 -10.05938  -7.82319  -5.78694
  Beta  occ. eigenvalues --   -5.78362  -5.77693  -1.00770  -0.92036  -0.81160
  Beta  occ. eigenvalues --   -0.72945  -0.68925  -0.66270  -0.62879  -0.58695
  Beta  occ. eigenvalues --   -0.58025  -0.53087  -0.50679  -0.47137  -0.43152
  Beta  occ. eigenvalues --   -0.41459  -0.39158  -0.38847  -0.37861  -0.36825
  Beta  occ. eigenvalues --   -0.35343  -0.34278  -0.33717  -0.32679  -0.31988
  Beta  occ. eigenvalues --   -0.30715  -0.29282  -0.28219  -0.27120  -0.26383
  Beta  occ. eigenvalues --   -0.25708  -0.25635  -0.25127  -0.24923  -0.20848
  Beta  occ. eigenvalues --   -0.20703  -0.20634  -0.19176  -0.15183  -0.12467
  Beta virt. eigenvalues --    0.06760   0.07493   0.08047   0.08166   0.09226
  Beta virt. eigenvalues --    0.09703   0.10067   0.10313   0.10531   0.10683
  Beta virt. eigenvalues --    0.11972   0.12202   0.12846   0.13348   0.13752

 Mulliken charges and spin densities:
               1          2
     1  C    0.150777  -0.739865
     2  C   -1.105439   1.681352
     3  C   -0.399038  -0.494987
     4  S    0.155463  -0.179866
     5  C   -0.785084  -0.092505
     6  C   -0.291121   0.853318
     7  C    2.874366  -3.400403
     8  C    0.155226  -0.314367
     9  O   -0.262766   0.052569
    10  O   -0.158291   0.127504
    11  C    1.396045  -1.621130
    12  N   -0.724234   0.517347
    13  C   -0.219405  -0.462524
    14  H   -0.155005   0.304698
    15  H    0.058081   0.097582
    16  H    0.138711   0.011076
    17  H   -0.253105   0.501660
    18  H    0.052459   0.167760
    19  H   -0.100797   0.321255
    20  H    0.027115   0.183203
    21  H    0.095081   0.118199
    22  H   -0.087141   0.321055
    23  H   -0.448768   0.624475
    24  H   -0.294769   0.465540
    25  H   -0.744642   0.908564
    26  H   -0.120299   0.370728
    27  H   -0.233522   0.503332
    28  H    0.083093   0.095649
    29  H    0.108054   0.022435
    30  H    0.088956   0.056346
 Sum of Mulliken charges =  -1.00000   1.00000

 Dipole moment (field-independent basis, Debye):
    X=             -6.4678    Y=             -2.7252    Z=             -2.7627  Tot=              7.5426
 Quadrupole moment (field-independent basis, Debye-Ang):
   XX=           -159.6082   YY=           -128.3444   ZZ=           -124.9611
   XY=             -4.2999   XZ=             -3.3001   YZ=             -0.1752

 Summary of Natural Population Analysis:

                                       Natural Population
                Natural  -----------------------------------------------
    Atom  No    Charge         Core      Valence    Rydberg      Total
 -----------------------------------------------------------------------
      C    1   -0.28703      0.99963     2.28063    0.00676     3.28703
      C    2   -0.12240      0.99955     2.10758    0.01527     3.12240
      C    3   -0.24512      0.99956     2.23393    0.01163     3.24512
      S    4    0.07435      4.99963     2.90952    0.01650     7.92565
      C    5   -0.24579      0.99956     2.23487    0.01136     3.24579
      C    6   -0.11875      0.99955     2.10547    0.01372     3.11875
      C    7    0.02201      0.99947     1.95949    0.01903     2.97799
      C    8    0.41179      0.99959     1.56117    0.02744     2.58821
      O    9   -0.30956      0.99987     3.30375    0.00594     4.30956
      O   10   -0.28214      0.99986     3.27151    0.01076     4.28214
      C   11   -0.10150      0.99958     2.09288    0.00903     3.10150
      N   12   -0.41534      0.99976     2.90509    0.01049     3.91534
      C   13   -0.28822      0.99964     2.28333    0.00526     3.28822
      H   14    0.10086      0.00000     0.39827    0.00086     0.39914
      H   15    0.10052      0.00000     0.39817    0.00131     0.39948
      H   16    0.10371      0.00000     0.39514    0.00116     0.39629
      H   17    0.11134      0.00000     0.38569    0.00297     0.38866
      H   18    0.11132      0.00000     0.38704    0.00165     0.38868
      H   19    0.10642      0.00000     0.39261    0.00097     0.39358
      H   20    0.10397      0.00000     0.39519    0.00084     0.39603
      H   21    0.11112      0.00000     0.38743    0.00145     0.38888
      H   22    0.10732      0.00000     0.39101    0.00167     0.39268
      H   23    0.09357      0.00000     0.40409    0.00234     0.40643
      H   24    0.09021      0.00000     0.40826    0.00153     0.40979
      H   25    0.09611      0.00000     0.40094    0.00295     0.40389
      H   26    0.18022      0.00000     0.31695    0.00283     0.31978
      H   27    0.18449      0.00000     0.31151    0.00400     0.31551
      H   28    0.10883      0.00000     0.39026    0.00090     0.39117
      H   29    0.09677      0.00000     0.40242    0.00081     0.40323
      H   30    0.10092      0.00000     0.39781    0.00128     0.39908
 =======================================================================
   * Total *    0.00000     16.99526    37.81200    0.19273    55.00000

 Normal termination of Gaussian 16 at Wed Dec  9 23:17:05 2020.
