 Gaussian 16, Revision A.03,

 -----------------------------------------------------------
 # opt freq B3LYP/6-31G(d) empiricaldispersion=gd3bj scf=xqc
 -----------------------------------------------------------

 -------------------------------
 CID_131572669_JID_5491_neutraal
 -------------------------------
 Symbolic Z-matrix:
 Charge =  0 Multiplicity = 1

 SCF Done:  E(RB3LYP) =  -1067.58860541     A.U. after   15 cycles
 SCF Done:  E(RB3LYP) =  -1067.59186985     A.U. after   13 cycles
 SCF Done:  E(RB3LYP) =  -1067.58935407     A.U. after   13 cycles
 SCF Done:  E(RB3LYP) =  -1067.59259187     A.U. after   11 cycles
 SCF Done:  E(RB3LYP) =  -1067.59268467     A.U. after   11 cycles
 SCF Done:  E(RB3LYP) =  -1067.59270224     A.U. after   11 cycles
 SCF Done:  E(RB3LYP) =  -1067.59273452     A.U. after   10 cycles
 SCF Done:  E(RB3LYP) =  -1067.59294910     A.U. after   12 cycles
 SCF Done:  E(RB3LYP) =  -1067.59371202     A.U. after   13 cycles
 SCF Done:  E(RB3LYP) =  -1067.59478617     A.U. after   13 cycles
 SCF Done:  E(RB3LYP) =  -1067.59757174     A.U. after    9 cycles
 SCF Done:  E(RB3LYP) =  -1067.59757927     A.U. after   10 cycles
 SCF Done:  E(RB3LYP) =  -1067.59758279     A.U. after    9 cycles
 SCF Done:  E(RB3LYP) =  -1067.59758431     A.U. after    8 cycles
 SCF Done:  E(RB3LYP) =  -1067.59758457     A.U. after    7 cycles
 Optimization completed.
    -- Stationary point found.
 Normal termination of Gaussian 16 at Thu Dec 10 16:23:00 2020.

 --------------------------------------------------------------------
 #N Geom=AllCheck Guess=TCheck SCRF=Check GenChk RB3LYP/6-31G(d) Freq
 --------------------------------------------------------------------

 Structure from the checkpoint file:  "JID_5491.chk"
 -------------------------------
 CID_131572669_JID_5491_neutraal
 -------------------------------
 Charge =  0 Multiplicity = 1

 SCF Done:  E(RB3LYP) =  -1067.59758457     A.U. after    1 cycles

  Exact polarizability: 158.214   1.174 125.913  -2.112  10.892 102.071
 Approx polarizability: 211.116   0.987 224.474  -9.142  32.326 160.396

                      1                      2                      3
                      A                      A                      A
 Frequencies --     51.5380                53.8725                81.0904
 Red. masses --      8.0426                 7.8011                 6.3166
 Frc consts  --      0.0126                 0.0133                 0.0245
 IR Inten    --      2.4700                 0.3528                 1.1542

                      4                      5                      6
                      A                      A                      A
 Frequencies --    117.9006               134.1563               181.5464
 Red. masses --      4.0572                 5.2239                 3.3242
 Frc consts  --      0.0332                 0.0554                 0.0646
 IR Inten    --      0.5856                 0.5030                 0.3285

                      7                      8                      9
                      A                      A                      A
 Frequencies --    199.7552               246.8136               271.2877
 Red. masses --      6.9490                 3.7228                 5.5722
 Frc consts  --      0.1634                 0.1336                 0.2416
 IR Inten    --      0.5636                 0.0524                 0.2695

                     10                     11                     12
                      A                      A                      A
 Frequencies --    299.5927               307.7577               326.6744
 Red. masses --      2.7339                 3.1671                 5.4667
 Frc consts  --      0.1446                 0.1767                 0.3437
 IR Inten    --      0.1781                 0.3015                 3.2317

                     13                     14                     15
                      A                      A                      A
 Frequencies --    393.1772               418.1371               438.2763
 Red. masses --      1.9696                 4.9966                 4.9844
 Frc consts  --      0.1794                 0.5147                 0.5641
 IR Inten    --      2.0927                 4.1806                 1.5243

                     16                     17                     18
                      A                      A                      A
 Frequencies --    491.7736               521.2730               541.4227
 Red. masses --      2.8379                 2.2231                 2.6461
 Frc consts  --      0.4044                 0.3559                 0.4570
 IR Inten    --      6.5508                 7.2684                28.2824

                     19                     20                     21
                      A                      A                      A
 Frequencies --    566.8930               576.5975               598.0266
 Red. masses --      3.2704                 2.7132                 2.0008
 Frc consts  --      0.6192                 0.5315                 0.4216
 IR Inten    --      3.6403                 6.7323                14.5567

                     22                     23                     24
                      A                      A                      A
 Frequencies --    637.9305               668.3938               674.1677
 Red. masses --      3.5316                 3.5562                 2.8266
 Frc consts  --      0.8468                 0.9361                 0.7569
 IR Inten    --     74.5878                21.7168                44.1849

                     25                     26                     27
                      A                      A                      A
 Frequencies --    697.4543               731.0112               748.3839
 Red. masses --      2.8616                 1.3516                 3.1442
 Frc consts  --      0.8201                 0.4256                 1.0376
 IR Inten    --     78.1356                12.8205                58.5206

                     28                     29                     30
                      A                      A                      A
 Frequencies --    807.3596               809.1692               839.9320
 Red. masses --      1.5200                 3.4349                 2.7193
 Frc consts  --      0.5838                 1.3251                 1.1303
 IR Inten    --      0.2881                 1.1927                 3.0040

                     31                     32                     33
                      A                      A                      A
 Frequencies --    858.5104               895.0014               926.0634
 Red. masses --      2.7285                 2.5575                 2.2983
 Frc consts  --      1.1848                 1.2070                 1.1613
 IR Inten    --      6.0228                13.0107                 3.9066

                     34                     35                     36
                      A                      A                      A
 Frequencies --    954.1908               960.5091               993.7396
 Red. masses --      2.0831                 1.5129                 2.8118
 Frc consts  --      1.1175                 0.8224                 1.6360
 IR Inten    --      1.0776                 2.2875                 6.9937

                     37                     38                     39
                      A                      A                      A
 Frequencies --   1055.0733              1075.3358              1091.4323
 Red. masses --      1.9839                 2.5773                 1.6296
 Frc consts  --      1.3012                 1.7559                 1.1438
 IR Inten    --      0.6434                14.6968                 1.6684

                     40                     41                     42
                      A                      A                      A
 Frequencies --   1112.5518              1155.4044              1164.3786
 Red. masses --      2.0134                 1.7545                 2.7464
 Frc consts  --      1.4683                 1.3800                 2.1938
 IR Inten    --      2.7582                70.3879                99.3959

                     43                     44                     45
                      A                      A                      A
 Frequencies --   1185.4614              1196.7140              1213.0815
 Red. masses --      2.0997                 2.1098                 2.0688
 Frc consts  --      1.7386                 1.7802                 1.7937
 IR Inten    --     13.7628                52.1349                53.8853

                     46                     47                     48
                      A                      A                      A
 Frequencies --   1237.6258              1298.1774              1299.7206
 Red. masses --      1.7888                 1.3291                 1.8753
 Frc consts  --      1.6143                 1.3197                 1.8665
 IR Inten    --     32.8046                 1.2525                18.0676

                     49                     50                     51
                      A                      A                      A
 Frequencies --   1321.4253              1323.0719              1369.1203
 Red. masses --      1.2480                 1.3253                 1.3414
 Frc consts  --      1.2840                 1.3669                 1.4814
 IR Inten    --      2.8283                 6.9043                 0.9534

                     52                     53                     54
                      A                      A                      A
 Frequencies --   1383.9201              1388.8813              1403.4754
 Red. masses --      2.1405                 1.4139                 1.4592
 Frc consts  --      2.4154                 1.6069                 1.6935
 IR Inten    --     35.4426                 0.3071                 1.1335

                     55                     56                     57
                      A                      A                      A
 Frequencies --   1409.1970              1413.8234              1459.9706
 Red. masses --      1.5226                 1.5510                 2.3491
 Frc consts  --      1.7814                 1.8266                 2.9501
 IR Inten    --      5.1663                 8.8301                50.2387

                     58                     59                     60
                      A                      A                      A
 Frequencies --   1507.2262              1516.7355              1522.2204
 Red. masses --      1.0899                 1.0892                 1.0929
 Frc consts  --      1.4588                 1.4763                 1.4921
 IR Inten    --      5.9169                 1.8484                 3.4263

                     61                     62                     63
                      A                      A                      A
 Frequencies --   1526.5562              1538.9074              1656.9704
 Red. masses --      1.0814                 1.0999                 7.2379
 Frc consts  --      1.4848                 1.5348                11.7082
 IR Inten    --     16.3066                 1.1822                 5.5511

                     64                     65                     66
                      A                      A                      A
 Frequencies --   1811.4613              1836.2750              3028.2714
 Red. masses --      9.7470                11.4485                 1.0681
 Frc consts  --     18.8443                22.7444                 5.7711
 IR Inten    --    271.5913               589.8615                21.7462

                     67                     68                     69
                      A                      A                      A
 Frequencies --   3040.2534              3050.8995              3053.8514
 Red. masses --      1.0640                 1.0677                 1.0617
 Frc consts  --      5.7947                 5.8552                 5.8336
 IR Inten    --     22.5317                 6.8019                21.7855

                     70                     71                     72
                      A                      A                      A
 Frequencies --   3062.3039              3082.1214              3087.4664
 Red. masses --      1.0677                 1.0938                 1.0991
 Frc consts  --      5.8991                 6.1218                 6.1732
 IR Inten    --     16.3049                57.7137                39.2684

                     73                     74                     75
                      A                      A                      A
 Frequencies --   3095.1071              3118.1398              3126.2877
 Red. masses --      1.1022                 1.0977                 1.0984
 Frc consts  --      6.2209                 6.2883                 6.3249
 IR Inten    --     53.8419                20.4363                17.2339

                     76                     77                     78
                      A                      A                      A
 Frequencies --   3295.6029              3594.2590              3672.2924
 Red. masses --      1.0945                 1.0786                 1.0640
 Frc consts  --      7.0039                 8.2095                 8.4538
 IR Inten    --      4.2335                92.2108                63.4591

 - Thermochemistry -
 -------------------
 Temperature   298.150 Kelvin.  Pressure   1.00000 Atm.
 Atom     1 has atomic number  6 and mass  12.00000

 Molecular mass:   227.06162 amu.
 Principal axes and moments of inertia in atomic units:
                           1         2         3
     Eigenvalues --  1799.121025169.837235576.00864
           X            0.99985  -0.01479   0.00915
           Y            0.01464   0.99976   0.01653
           Z           -0.00939  -0.01639   0.99982
 This molecule is an asymmetric top.
 Rotational symmetry number  1.
 Warning -- assumption of classical behavior for rotation
           may cause significant error
 Rotational temperatures (Kelvin)      0.04814     0.01675     0.01553
 Rotational constants (GHZ):           1.00312     0.34909     0.32366
 Zero-point vibrational energy     596939.1 (Joules/Mol)
                                  142.67188 (Kcal/Mol)
 Warning -- explicit consideration of  21 degrees of freedom as
           vibrations may cause significant error
 Vibrational temperatures:     74.15    77.51   116.67   169.63   193.02
          (Kelvin)            261.20   287.40   355.11   390.32   431.05
                              442.79   470.01   565.69   601.61   630.58
                              707.55   750.00   778.99   815.63   829.60
                              860.43   917.84   961.67   969.98  1003.48
                             1051.76  1076.76  1161.61  1164.21  1208.47
                             1235.21  1287.71  1332.40  1372.87  1381.96
                             1429.77  1518.02  1547.17  1570.33  1600.71
                             1662.37  1675.28  1705.61  1721.80  1745.35
                             1780.67  1867.79  1870.01  1901.24  1903.61
                             1969.86  1991.15  1998.29  2019.29  2027.52
                             2034.18  2100.57  2168.56  2182.24  2190.14
                             2196.37  2214.14  2384.01  2606.29  2641.99
                             4357.01  4374.25  4389.56  4393.81  4405.97
                             4434.49  4442.18  4453.17  4486.31  4498.03
                             4741.64  5171.34  5283.61

 Zero-point correction=                           0.227362 (Hartree/Particle)
 Thermal correction to Energy=                    0.240889
 Thermal correction to Enthalpy=                  0.241833
 Thermal correction to Gibbs Free Energy=         0.186846
 Sum of electronic and zero-point Energies=          -1067.370222
 Sum of electronic and thermal Energies=             -1067.356696
 Sum of electronic and thermal Enthalpies=           -1067.355752
 Sum of electronic and thermal Free Energies=        -1067.410738

                     E (Thermal)             CV                S
                      KCal/Mol        Cal/Mol-Kelvin    Cal/Mol-Kelvin
 Total                  151.160             52.922            115.728
 Electronic               0.000              0.000              0.000
 Translational            0.889              2.981             42.162
 Rotational               0.889              2.981             32.317
 Vibrational            149.382             46.961             41.249
 Vibration     1          0.596              1.977              4.757
 Vibration     2          0.596              1.976              4.670
 Vibration     3          0.600              1.962              3.864
 Vibration     4          0.608              1.934              3.134
 Vibration     5          0.613              1.919              2.886
 Vibration     6          0.630              1.865              2.312
 Vibration     7          0.638              1.840              2.135
 Vibration     8          0.661              1.768              1.753
 Vibration     9          0.675              1.726              1.588
 Vibration    10          0.692              1.674              1.419
 Vibration    11          0.698              1.659              1.374
 Vibration    12          0.710              1.622              1.276
 Vibration    13          0.760              1.485              0.988
 Vibration    14          0.781              1.431              0.898
 Vibration    15          0.798              1.387              0.832
 Vibration    16          0.848              1.268              0.679
 Vibration    17          0.876              1.203              0.607
 Vibration    18          0.897              1.158              0.562
 Vibration    19          0.923              1.103              0.510
 Vibration    20          0.933              1.082              0.492
 Vibration    21          0.956              1.036              0.453

                           ! Non-Optimized Parameters !
 Normal termination of Gaussian 16 at Thu Dec 10 16:32:56 2020.

 ----------------------------------------------------------------------
 # B3LYP/6-311++G(d,p) empiricaldispersion=gd3bj scf=xqc pop=npa geom=c
 heck
 ----------------------------------------------------------------------

 ---------------------------------------
 CID_131572669_JID_5491_Energie_neutraal
 ---------------------------------------
 Structure from the checkpoint file:  "JID_5491.chk"
 Charge =  0 Multiplicity = 1

 SCF Done:  E(RB3LYP) =  -1067.82336365     A.U. after   16 cycles
 Normal termination of Gaussian 16 at Thu Dec 10 16:38:51 2020.

 ----------------------------------------------------------------------
 # B3LYP/6-311++G(d,p) empiricaldispersion=gd3bj scf=xqc pop=npa geom=c
 heck
 ----------------------------------------------------------------------

 -------------------------------------
 CID_131572669_JID_5491_Energie_kation
 -------------------------------------
 Structure from the checkpoint file:  "JID_5491.chk"
 Charge =  1 Multiplicity = 2

 SCF Done:  E(UB3LYP) =  -1067.52541160     A.U. after   22 cycles
 Normal termination of Gaussian 16 at Thu Dec 10 16:53:24 2020.
 Gaussian 16:  ES64L-G16RevA.03 25-Dec-2016

 ----------------------------------------------------------------------
 # B3LYP/6-311++G(d,p) empiricaldispersion=gd3bj scf=xqc pop=npa geom=c
 heck
 ----------------------------------------------------------------------

 ------------------------------------
 CID_131572669_JID_5491_Energie_anion
 ------------------------------------
 Structure from the checkpoint file:  "JID_5491.chk"
 Charge = -1 Multiplicity = 2

                         Standard orientation:
 ---------------------------------------------------------------------
 Center     Atomic      Atomic             Coordinates (Angstroms)
 Number     Number       Type             X           Y           Z
 ---------------------------------------------------------------------
      1          6           0       -3.488128    0.910690   -0.853778
      2          6           0       -2.746169   -0.239086   -1.544501
      3          6           0       -1.226548   -0.070529   -1.438286
      4          6           0       -0.753083    0.063386    0.036555
      5          6           0       -1.521734    1.210802    0.721844
      6          6           0       -3.043795    1.053142    0.606872
      7          6           0        0.744654    0.308236    0.065188
      8          6           0        1.411809    1.406222    0.474539
      9         16           0        3.150846    1.249874    0.253860
     10          6           0        2.949862   -0.433837   -0.414362
     11          8           0        3.836080   -1.177010   -0.769252
     12          7           0        1.592564   -0.683624   -0.430097
     13          6           0       -0.950601   -1.290774    0.734472
     14          8           0       -0.716877   -2.360941    0.207497
     15          8           0       -1.344723   -1.196033    2.019324
     16          1           0       -4.571721    0.752313   -0.907019
     17          1           0       -3.278915    1.847738   -1.389721
     18          1           0       -3.037366   -1.195969   -1.089854
     19          1           0       -3.029672   -0.299709   -2.601674
     20          1           0       -0.912800    0.841601   -1.960266
     21          1           0       -0.715857   -0.910862   -1.914830
     22          1           0       -1.224752    2.142302    0.223860
     23          1           0       -1.218872    1.290639    1.769401
     24          1           0       -3.529117    1.919718    1.070853
     25          1           0       -3.364375    0.173395    1.178328
     26          1           0        0.986942    2.307459    0.887763
     27          1           0        1.256013   -1.608867   -0.672191
     28          1           0       -1.374438   -2.110007    2.362454
 ---------------------------------------------------------------------

 SCF Done:  E(UB3LYP) =  -1067.81741228     A.U. after   33 cycles
 SCF Done:  E(UB3LYP) =  -1067.81741228     a.u. after    1 cycles

 The electronic state is 2-A.
 Alpha  occ. eigenvalues --  -88.77573 -19.07111 -19.01582 -19.01243 -14.26901
 Alpha  occ. eigenvalues --  -10.20794 -10.20242 -10.13209 -10.11658 -10.10118
 Alpha  occ. eigenvalues --  -10.07911 -10.07393 -10.07185 -10.06797 -10.06581
 Alpha  occ. eigenvalues --   -7.86198  -5.82503  -5.82180  -5.81711  -1.01413
 Alpha  occ. eigenvalues --   -0.96557  -0.92368  -0.87688  -0.75616  -0.71564
 Alpha  occ. eigenvalues --   -0.68673  -0.65227  -0.61916  -0.56723  -0.53479
 Alpha  occ. eigenvalues --   -0.51169  -0.50829  -0.49665  -0.45830  -0.41959
 Alpha  occ. eigenvalues --   -0.39702  -0.39673  -0.37302  -0.36957  -0.35923
 Alpha  occ. eigenvalues --   -0.35067  -0.34341  -0.33822  -0.33425  -0.31869
 Alpha  occ. eigenvalues --   -0.30631  -0.29075  -0.28838  -0.27768  -0.26449
 Alpha  occ. eigenvalues --   -0.25390  -0.24978  -0.23312  -0.22884  -0.21857
 Alpha  occ. eigenvalues --   -0.21283  -0.20092  -0.18703  -0.18282  -0.12249
 Alpha  occ. eigenvalues --    0.04103
 Alpha virt. eigenvalues --    0.06377   0.06776   0.07295   0.07906   0.08979
 Alpha virt. eigenvalues --    0.09479   0.09887   0.10088   0.10432   0.11007
 Alpha virt. eigenvalues --    0.11262   0.11941   0.12272   0.12726   0.13275

  Beta  occ. eigenvalues --  -88.77562 -19.07036 -19.01499 -19.01245 -14.26892
  Beta  occ. eigenvalues --  -10.20775 -10.20093 -10.13168 -10.11666 -10.10055
  Beta  occ. eigenvalues --  -10.07886 -10.07371 -10.07170 -10.06777 -10.06558
  Beta  occ. eigenvalues --   -7.86188  -5.82474  -5.82175  -5.81698  -1.01224
  Beta  occ. eigenvalues --   -0.96548  -0.92212  -0.87659  -0.75554  -0.71487
  Beta  occ. eigenvalues --   -0.68601  -0.65187  -0.61832  -0.56536  -0.53390
  Beta  occ. eigenvalues --   -0.51105  -0.50703  -0.49604  -0.45737  -0.41837
  Beta  occ. eigenvalues --   -0.39608  -0.39522  -0.37239  -0.36805  -0.35832
  Beta  occ. eigenvalues --   -0.35019  -0.34301  -0.33550  -0.33379  -0.31791
  Beta  occ. eigenvalues --   -0.30553  -0.29030  -0.28797  -0.27666  -0.26358
  Beta  occ. eigenvalues --   -0.25334  -0.24917  -0.23118  -0.22734  -0.21739
  Beta  occ. eigenvalues --   -0.21239  -0.20012  -0.18617  -0.18251  -0.12120
  Beta virt. eigenvalues --    0.06546   0.07550   0.07681   0.07997   0.08397
  Beta virt. eigenvalues --    0.09385   0.09704   0.10271   0.10360   0.10639
  Beta virt. eigenvalues --    0.11382   0.11449   0.12167   0.12623   0.13054

 Mulliken charges and spin densities:
               1          2
     1  C    1.113043  -1.615223
     2  C   -1.093771   0.725203
     3  C    0.033282  -0.409492
     4  C    0.430631  -0.113653
     5  C    0.879949  -1.139388
     6  C   -0.253250  -0.232219
     7  C   -0.943300  -0.228384
     8  C    1.383988   0.170438
     9  S   -0.334403  -0.043806
    10  C    0.016429   0.091375
    11  O   -0.353702   0.004030
    12  N    0.051750   0.045817
    13  C   -0.389771  -0.108621
    14  O   -0.282707   0.071680
    15  O   -0.201222   0.095072
    16  H   -0.355719   0.516084
    17  H   -0.006706   0.131730
    18  H    0.125189   0.037268
    19  H   -0.148733   0.326778
    20  H   -0.031137   0.214520
    21  H    0.205664  -0.039995
    22  H    0.018622   0.105704
    23  H   -0.000240   0.240224
    24  H   -0.524323   0.707813
    25  H    0.158399   0.001215
    26  H   -0.377953   0.703775
    27  H    0.294816   0.040753
    28  H   -0.414826   0.701300
 Sum of Mulliken charges =  -1.00000   1.00000

 Dipole moment (field-independent basis, Debye):
    X=              1.6457    Y=              0.2763    Z=             -2.3837  Tot=              2.9098
 Quadrupole moment (field-independent basis, Debye-Ang):
   XX=           -167.0657   YY=           -138.0432   ZZ=           -132.3952
   XY=             11.1938   XZ=              4.8281   YZ=              1.8290

 Summary of Natural Population Analysis:

                                       Natural Population
                Natural  -----------------------------------------------
    Atom  No    Charge         Core      Valence    Rydberg      Total
 -----------------------------------------------------------------------
      C    1   -0.18927      0.99963     2.18155    0.00810     3.18927
      C    2   -0.19162      0.99962     2.18355    0.00845     3.19162
      C    3   -0.18016      0.99960     2.17205    0.00851     3.18016
      C    4   -0.08683      0.99947     2.07249    0.01487     3.08683
      C    5   -0.19103      0.99961     2.17949    0.01193     3.19103
      C    6   -0.18963      0.99962     2.18151    0.00850     3.18963
      C    7    0.08725      0.99944     1.89868    0.01463     2.91275
      C    8   -0.19552      0.99940     2.18642    0.00969     3.19552
      S    9    0.12722      4.99952     2.85322    0.02004     7.87278
      C   10    0.26515      0.99973     1.70706    0.02806     2.73485
      O   11   -0.31245      0.99986     3.30506    0.00753     4.31245
      N   12   -0.31142      0.99961     2.80303    0.00878     3.81142
      C   13    0.43671      0.99964     1.53645    0.02720     2.56329
      O   14   -0.31890      0.99987     3.31301    0.00602     4.31890
      O   15   -0.33792      0.99987     3.33075    0.00729     4.33792
      H   16    0.09931      0.00000     0.39960    0.00109     0.40069
      H   17    0.09262      0.00000     0.40598    0.00140     0.40738
      H   18    0.09764      0.00000     0.40110    0.00126     0.40236
      H   19    0.09995      0.00000     0.39918    0.00087     0.40005
      H   20    0.09982      0.00000     0.39902    0.00116     0.40018
      H   21    0.10647      0.00000     0.39235    0.00118     0.39353
      H   22    0.09929      0.00000     0.39892    0.00180     0.40071
      H   23    0.11284      0.00000     0.38530    0.00186     0.38716
      H   24    0.10235      0.00000     0.39611    0.00154     0.39765
      H   25    0.09895      0.00000     0.39929    0.00177     0.40105
      H   26    0.11760      0.00000     0.38110    0.00130     0.38240
      H   27    0.21710      0.00000     0.28036    0.00255     0.28290
      H   28    0.24447      0.00000     0.24404    0.01149     0.25553
 =======================================================================
   * Total *   -0.00000     18.99450    40.78665    0.21885    60.00000

 Normal termination of Gaussian 16 at Thu Dec 10 17:20:23 2020.
