 Gaussian 16, Revision A.03,

 -----------------------------------------------------------
 # opt freq B3LYP/6-31G(d) empiricaldispersion=gd3bj scf=xqc
 -----------------------------------------------------------

 -------------------------------
 CID_106835330_JID_7950_neutraal
 -------------------------------
 Symbolic Z-matrix:
 Charge =  0 Multiplicity = 1

 SCF Done:  E(RB3LYP) =  -731.524801391     A.U. after   14 cycles
 SCF Done:  E(RB3LYP) =  -731.530608465     A.U. after   11 cycles
 SCF Done:  E(RB3LYP) =  -731.530904608     A.U. after   11 cycles
 SCF Done:  E(RB3LYP) =  -731.530995717     A.U. after   10 cycles
 SCF Done:  E(RB3LYP) =  -731.531032679     A.U. after    9 cycles
 SCF Done:  E(RB3LYP) =  -731.531035764     A.U. after    8 cycles
 SCF Done:  E(RB3LYP) =  -731.531037084     A.U. after    8 cycles
 SCF Done:  E(RB3LYP) =  -731.531037552     A.U. after    7 cycles
 SCF Done:  E(RB3LYP) =  -731.531037685     A.U. after    7 cycles
 SCF Done:  E(RB3LYP) =  -731.531037715     A.U. after    7 cycles
 SCF Done:  E(RB3LYP) =  -731.531037715     A.U. after    7 cycles
 SCF Done:  E(RB3LYP) =  -731.531037706     A.U. after    7 cycles
 SCF Done:  E(RB3LYP) =  -731.531037696     A.U. after    7 cycles
 Optimization completed.
    -- Stationary point found.
 Normal termination of Gaussian 16 at Mon Dec 14 13:18:33 2020.

 --------------------------------------------------------------------
 #N Geom=AllCheck Guess=TCheck SCRF=Check GenChk RB3LYP/6-31G(d) Freq
 --------------------------------------------------------------------

 Structure from the checkpoint file:  "JID_7950.chk"
 -------------------------------
 CID_106835330_JID_7950_neutraal
 -------------------------------
 Charge =  0 Multiplicity = 1

 SCF Done:  E(RB3LYP) =  -731.531037696     A.U. after    1 cycles

  Exact polarizability: 213.848  -9.153 166.841  -2.781   6.704 110.032
 Approx polarizability: 271.477 -17.142 272.646  -0.208  16.317 166.548

                      1                      2                      3
                      A                      A                      A
 Frequencies --     24.9791                41.2407                70.6529
 Red. masses --      3.3911                 4.5867                 3.4540
 Frc consts  --      0.0012                 0.0046                 0.0102
 IR Inten    --      1.3731                 0.7487                 1.2046

                      4                      5                      6
                      A                      A                      A
 Frequencies --     80.6779               134.7488               141.1455
 Red. masses --      3.5207                 3.3879                 3.2001
 Frc consts  --      0.0135                 0.0362                 0.0376
 IR Inten    --      0.5642                 1.2551                 1.6856

                      7                      8                      9
                      A                      A                      A
 Frequencies --    183.8506               198.5704               202.5949
 Red. masses --      4.0018                 1.0922                 3.1426
 Frc consts  --      0.0797                 0.0254                 0.0760
 IR Inten    --      2.0313                 0.0934                 0.3873

                     10                     11                     12
                      A                      A                      A
 Frequencies --    237.1306               245.8712               261.3629
 Red. masses --      1.8318                 1.6057                 1.7717
 Frc consts  --      0.0607                 0.0572                 0.0713
 IR Inten    --      1.6113                 6.6632                 2.6688

                     13                     14                     15
                      A                      A                      A
 Frequencies --    286.0838               299.6080               302.6979
 Red. masses --      1.0957                 2.2870                 1.3672
 Frc consts  --      0.0528                 0.1210                 0.0738
 IR Inten    --     17.5753                21.2705                81.2611

                     16                     17                     18
                      A                      A                      A
 Frequencies --    321.7589               341.1397               346.7898
 Red. masses --      2.1460                 2.9181                 3.2595
 Frc consts  --      0.1309                 0.2001                 0.2310
 IR Inten    --     27.9823                 0.2458                 2.7549

                     19                     20                     21
                      A                      A                      A
 Frequencies --    387.1058               414.6287               430.8145
 Red. masses --      3.1739                 1.9398                 4.0473
 Frc consts  --      0.2802                 0.1965                 0.4426
 IR Inten    --     10.2597                 2.7707                11.4166

                     22                     23                     24
                      A                      A                      A
 Frequencies --    467.7023               473.2524               491.2985
 Red. masses --      4.1268                 2.9549                 3.1361
 Frc consts  --      0.5319                 0.3899                 0.4460
 IR Inten    --      5.9116                 3.1699                 6.9872

                     25                     26                     27
                      A                      A                      A
 Frequencies --    506.6551               516.5827               540.0991
 Red. masses --      3.1858                 3.1402                 2.4246
 Frc consts  --      0.4818                 0.4937                 0.4167
 IR Inten    --     11.8557                 4.3371                 6.8509

                     28                     29                     30
                      A                      A                      A
 Frequencies --    620.2581               659.8373               677.4090
 Red. masses --      1.9439                 3.4032                 2.1221
 Frc consts  --      0.4406                 0.8730                 0.5737
 IR Inten    --    185.0717                 2.9271               200.9487

                     31                     32                     33
                      A                      A                      A
 Frequencies --    733.4145               742.7195               771.5482
 Red. masses --      4.0842                 3.4425                 3.7160
 Frc consts  --      1.2943                 1.1188                 1.3033
 IR Inten    --      2.4861                 0.1376                 2.8854

                     34                     35                     36
                      A                      A                      A
 Frequencies --    816.4968               833.4334               836.3197
 Red. masses --      1.4391                 2.2016                 1.5130
 Frc consts  --      0.5653                 0.9010                 0.6235
 IR Inten    --     34.0584                 0.2302                 0.0770

                     37                     38                     39
                      A                      A                      A
 Frequencies --    876.2497               880.0539               900.9669
 Red. masses --      3.0068                 1.5775                 2.8318
 Frc consts  --      1.3602                 0.7199                 1.3543
 IR Inten    --      5.1704                18.4934                 2.6471

                     40                     41                     42
                      A                      A                      A
 Frequencies --    932.9645               954.3431               965.3580
 Red. masses --      1.2837                 1.8536                 1.8588
 Frc consts  --      0.6584                 0.9946                 1.0206
 IR Inten    --      0.3655                 1.9414                12.2498

                     43                     44                     45
                      A                      A                      A
 Frequencies --    989.7786              1011.6398              1020.5516
 Red. masses --      2.1299                 1.6327                 1.4946
 Frc consts  --      1.2294                 0.9845                 0.9172
 IR Inten    --     15.6431                 2.7121                15.9369

                     46                     47                     48
                      A                      A                      A
 Frequencies --   1034.1404              1059.3282              1071.4893
 Red. masses --      1.7624                 2.2621                 1.8239
 Frc consts  --      1.1105                 1.4956                 1.2338
 IR Inten    --     10.0315                 0.6980                47.0128

                     49                     50                     51
                      A                      A                      A
 Frequencies --   1076.0214              1098.0651              1125.6440
 Red. masses --      1.4717                 3.0277                 1.9675
 Frc consts  --      1.0040                 2.1509                 1.4688
 IR Inten    --      8.1971                47.7892                27.5916

                     52                     53                     54
                      A                      A                      A
 Frequencies --   1126.2389              1139.4602              1164.6103
 Red. masses --      1.3883                 2.6451                 1.6934
 Frc consts  --      1.0375                 2.0235                 1.3533
 IR Inten    --      2.8226                13.9027                22.5257

                     55                     56                     57
                      A                      A                      A
 Frequencies --   1180.0172              1184.6038              1212.3840
 Red. masses --      1.5948                 1.5876                 1.6368
 Frc consts  --      1.3084                 1.3126                 1.4175
 IR Inten    --     13.5484                20.8109                28.2645

                     58                     59                     60
                      A                      A                      A
 Frequencies --   1224.7107              1236.2426              1257.6785
 Red. masses --      2.0670                 1.9366                 1.5985
 Frc consts  --      1.8267                 1.7438                 1.4897
 IR Inten    --      8.4457                 6.7082                28.3106

                     61                     62                     63
                      A                      A                      A
 Frequencies --   1289.8027              1305.4072              1307.7136
 Red. masses --      1.6053                 1.7872                 1.3250
 Frc consts  --      1.5734                 1.7944                 1.3350
 IR Inten    --     26.0891                15.7767                18.1987

                     64                     65                     66
                      A                      A                      A
 Frequencies --   1331.1756              1337.9339              1350.5246
 Red. masses --      1.6096                 1.3642                 1.4248
 Frc consts  --      1.6805                 1.4388                 1.5311
 IR Inten    --     14.6642                 7.8895                 6.1517

                     67                     68                     69
                      A                      A                      A
 Frequencies --   1351.9938              1381.0205              1391.7901
 Red. masses --      4.8713                 1.8392                 1.4360
 Frc consts  --      5.2462                 2.0667                 1.6389
 IR Inten    --      8.8910                18.0905                 6.0559

                     70                     71                     72
                      A                      A                      A
 Frequencies --   1395.9173              1397.7656              1420.1681
 Red. masses --      1.3778                 1.3957                 1.6257
 Frc consts  --      1.5818                 1.6066                 1.9318
 IR Inten    --      1.9595                 1.1906                 1.3265

                     73                     74                     75
                      A                      A                      A
 Frequencies --   1429.4106              1437.3671              1439.9043
 Red. masses --      1.2193                 1.3768                 1.2976
 Frc consts  --      1.4678                 1.6760                 1.5851
 IR Inten    --     13.5940                56.4687                28.5596

                     76                     77                     78
                      A                      A                      A
 Frequencies --   1449.3550              1489.0523              1504.2698
 Red. masses --      1.2775                 2.7777                 1.0939
 Frc consts  --      1.5811                 3.6287                 1.4584
 IR Inten    --     19.3898                10.5321                 0.7098

                     79                     80                     81
                      A                      A                      A
 Frequencies --   1516.6884              1518.7556              1523.2658
 Red. masses --      1.0777                 1.0761                 1.0600
 Frc consts  --      1.4606                 1.4625                 1.4492
 IR Inten    --      5.6415                 6.0540                 0.6132

                     82                     83                     84
                      A                      A                      A
 Frequencies --   1524.9125              1528.7136              1531.9749
 Red. masses --      1.0845                 1.0497                 1.1648
 Frc consts  --      1.4858                 1.4453                 1.6106
 IR Inten    --      4.0270                 7.6391                16.0934

                     85                     86                     87
                      A                      A                      A
 Frequencies --   1537.5049              1553.9098              1631.0934
 Red. masses --      1.1038                 2.8835                 5.6470
 Frc consts  --      1.5374                 4.1023                 8.8517
 IR Inten    --      9.1759                91.3208                23.6702

                     88                     89                     90
                      A                      A                      A
 Frequencies --   1674.1279              1695.5077              2915.0833
 Red. masses --      3.2863                 1.3623                 1.0735
 Frc consts  --      5.4267                 2.3075                 5.3748
 IR Inten    --     56.4684               137.3610                60.1119

                     91                     92                     93
                      A                      A                      A
 Frequencies --   2951.1981              2961.5661              3037.1288
 Red. masses --      1.0730                 1.0789                 1.0493
 Frc consts  --      5.5063                 5.5752                 5.7024
 IR Inten    --     28.4634                66.2273                10.3579

                     94                     95                     96
                      A                      A                      A
 Frequencies --   3039.6349              3044.4429              3047.6576
 Red. masses --      1.0594                 1.0408                 1.0664
 Frc consts  --      5.7670                 5.6837                 5.8358
 IR Inten    --     23.6548                43.6893                16.0558

                     97                     98                     99
                      A                      A                      A
 Frequencies --   3058.1726              3090.9183              3094.1536
 Red. masses --      1.0803                 1.1012                 1.0898
 Frc consts  --      5.9528                 6.1984                 6.1475
 IR Inten    --     40.9850                52.9058                29.0153

                    100                    101                    102
                      A                      A                      A
 Frequencies --   3100.5750              3101.5572              3112.3143
 Red. masses --      1.0957                 1.0880                 1.0972
 Frc consts  --      6.2059                 6.1667                 6.2617
 IR Inten    --     26.5074                24.4809                16.6505

                    103                    104                    105
                      A                      A                      A
 Frequencies --   3113.1165              3125.1487              3137.5289
 Red. masses --      1.0934                 1.1019                 1.1027
 Frc consts  --      6.2435                 6.3408                 6.3956
 IR Inten    --     47.8598                28.9025                28.4549

                    106                    107                    108
                      A                      A                      A
 Frequencies --   3167.9601              3185.9112              3188.6213
 Red. masses --      1.0865                 1.0933                 1.0912
 Frc consts  --      6.4242                 6.5381                 6.5368
 IR Inten    --     16.6632                39.1170                 6.5223

                    109                    110                    111
                      A                      A                      A
 Frequencies --   3542.8160              3640.8700              3715.8915
 Red. masses --      1.0480                 1.0975                 1.0657
 Frc consts  --      7.7500                 8.5720                 8.6698
 IR Inten    --      8.5812                 6.1059                 6.8055

 - Thermochemistry -
 -------------------
 Temperature   298.150 Kelvin.  Pressure   1.00000 Atm.
 Atom     1 has atomic number  6 and mass  12.00000

 Molecular mass:   234.17321 amu.
 Principal axes and moments of inertia in atomic units:
                           1         2         3
     Eigenvalues --  1663.653688787.723919492.01168
           X            0.99996   0.00416  -0.00756
           Y           -0.00412   0.99997   0.00641
           Z            0.00758  -0.00638   0.99995
 This molecule is an asymmetric top.
 Rotational symmetry number  1.
 Warning -- assumption of classical behavior for rotation
           may cause significant error
 Rotational temperatures (Kelvin)      0.05206     0.00986     0.00912
 Rotational constants (GHZ):           1.08481     0.20537     0.19013
 Zero-point vibrational energy     909056.1 (Joules/Mol)
                                  217.26963 (Kcal/Mol)
 Warning -- explicit consideration of  28 degrees of freedom as
           vibrations may cause significant error
 Vibrational temperatures:     35.94    59.34   101.65   116.08   193.87
          (Kelvin)            203.08   264.52   285.70   291.49   341.18
                              353.75   376.04   411.61   431.07   435.51
                              462.94   490.82   498.95   556.96   596.56
                              619.85   672.92   680.90   706.87   728.96
                              743.25   777.08   892.41   949.36   974.64
                             1055.22  1068.61  1110.09  1174.76  1199.12
                             1203.28  1260.73  1266.20  1296.29  1342.33
                             1373.09  1388.93  1424.07  1455.52  1468.35
                             1487.90  1524.14  1541.63  1548.15  1579.87
                             1619.55  1620.41  1639.43  1675.61  1697.78
                             1704.38  1744.35  1762.09  1778.68  1809.52
                             1855.74  1878.19  1881.51  1915.26  1924.99
                             1943.10  1945.22  1986.98  2002.48  2008.41
                             2011.07  2043.31  2056.60  2068.05  2071.70
                             2085.30  2142.41  2164.31  2182.18  2185.15
                             2191.64  2194.01  2199.48  2204.17  2212.13
                             2235.73  2346.78  2408.70  2439.46  4194.15
                             4246.12  4261.03  4369.75  4373.36  4380.27
                             4384.90  4400.03  4447.14  4451.80  4461.04
                             4462.45  4477.93  4479.08  4496.39  4514.20
                             4557.99  4583.82  4587.71  5097.32  5238.40
                             5346.34

 Zero-point correction=                           0.346241 (Hartree/Particle)
 Thermal correction to Energy=                    0.363355
 Thermal correction to Enthalpy=                  0.364300
 Thermal correction to Gibbs Free Energy=         0.301632
 Sum of electronic and zero-point Energies=           -731.184797
 Sum of electronic and thermal Energies=              -731.167682
 Sum of electronic and thermal Enthalpies=            -731.166738
 Sum of electronic and thermal Free Energies=         -731.229405

                     E (Thermal)             CV                S
                      KCal/Mol        Cal/Mol-Kelvin    Cal/Mol-Kelvin
 Total                  228.009             67.388            131.894
 Electronic               0.000              0.000              0.000
 Translational            0.889              2.981             42.254
 Rotational               0.889              2.981             33.295
 Vibrational            226.231             61.427             56.345
 Vibration     1          0.593              1.985              6.193
 Vibration     2          0.594              1.981              5.199
 Vibration     3          0.598              1.968              4.135
 Vibration     4          0.600              1.962              3.874
 Vibration     5          0.613              1.919              2.877
 Vibration     6          0.615              1.912              2.788
 Vibration     7          0.631              1.862              2.289
 Vibration     8          0.637              1.842              2.146
 Vibration     9          0.639              1.836              2.109
 Vibration    10          0.656              1.784              1.824
 Vibration    11          0.660              1.770              1.760
 Vibration    12          0.669              1.743              1.653
 Vibration    13          0.684              1.700              1.497
 Vibration    14          0.692              1.674              1.419
 Vibration    15          0.694              1.669              1.402
 Vibration    16          0.707              1.632              1.301
 Vibration    17          0.721              1.593              1.207
 Vibration    18          0.725              1.582              1.181
 Vibration    19          0.756              1.498              1.011
 Vibration    20          0.778              1.438              0.910
 Vibration    21          0.792              1.403              0.856
 Vibration    22          0.825              1.322              0.744
 Vibration    23          0.830              1.309              0.728
 Vibration    24          0.847              1.269              0.680
 Vibration    25          0.862              1.235              0.642
 Vibration    26          0.872              1.213              0.618
 Vibration    27          0.895              1.161              0.565
 Vibration    28          0.980              0.989              0.416

                           ! Non-Optimized Parameters !
 Normal termination of Gaussian 16 at Mon Dec 14 13:33:22 2020.

 ----------------------------------------------------------------------
 # B3LYP/6-311++G(d,p) empiricaldispersion=gd3bj scf=xqc pop=npa geom=c
 heck
 ----------------------------------------------------------------------

 ---------------------------------------
 CID_106835330_JID_7950_Energie_neutraal
 ---------------------------------------
 Structure from the checkpoint file:  "JID_7950.chk"
 Charge =  0 Multiplicity = 1

 SCF Done:  E(RB3LYP) =  -731.743543095     A.U. after   15 cycles
 Normal termination of Gaussian 16 at Mon Dec 14 13:41:45 2020.

 ----------------------------------------------------------------------
 # B3LYP/6-311++G(d,p) empiricaldispersion=gd3bj scf=xqc pop=npa geom=c
 heck
 ----------------------------------------------------------------------

 -------------------------------------
 CID_106835330_JID_7950_Energie_kation
 -------------------------------------
 Structure from the checkpoint file:  "JID_7950.chk"
 Charge =  1 Multiplicity = 2

 SCF Done:  E(UB3LYP) =  -731.479027800     A.U. after   24 cycles
 Normal termination of Gaussian 16 at Mon Dec 14 13:59:48 2020.
 Gaussian 16:  ES64L-G16RevA.03 25-Dec-2016

 ----------------------------------------------------------------------
 # B3LYP/6-311++G(d,p) empiricaldispersion=gd3bj scf=xqc pop=npa geom=c
 heck
 ----------------------------------------------------------------------

 ------------------------------------
 CID_106835330_JID_7950_Energie_anion
 ------------------------------------
 Structure from the checkpoint file:  "JID_7950.chk"
 Charge = -1 Multiplicity = 2

                         Standard orientation:
 ---------------------------------------------------------------------
 Center     Atomic      Atomic             Coordinates (Angstroms)
 Number     Number       Type             X           Y           Z
 ---------------------------------------------------------------------
      1          6           0        1.635848    2.634476    0.467025
      2          6           0        2.317717    1.312007    0.207435
      3          6           0        1.610269    0.113456   -0.020593
      4          6           0        2.305095   -1.084279   -0.212416
      5          6           0        3.703987   -1.141209   -0.187979
      6          6           0        4.409061    0.052677    0.018519
      7          6           0        3.716461    1.243225    0.209406
      8          7           0        4.375468   -2.363711   -0.319404
      9          7           0        0.182167    0.015208   -0.056251
     10          6           0       -0.478235   -0.188492    1.228088
     11          6           0       -1.871172   -0.792931    1.027126
     12          6           0       -2.717397    0.053098    0.061998
     13          6           0       -1.934880    0.285677   -1.239897
     14          6           0       -0.559632    0.890814   -0.955404
     15          6           0       -4.101465   -0.557054   -0.218930
     16          6           0       -4.943702   -0.782318    1.037079
     17          8           0       -4.828510    0.236053   -1.164722
     18          1           0        1.243401    3.091004   -0.450301
     19          1           0        0.794308    2.531654    1.159227
     20          1           0        2.342605    3.345325    0.907219
     21          1           0        1.721140   -1.982676   -0.393792
     22          1           0        5.496221    0.043161    0.041231
     23          1           0        4.282413    2.156102    0.381881
     24          1           0        3.850070   -3.073735   -0.815262
     25          1           0        5.314296   -2.284393   -0.691514
     26          1           0       -0.576526    0.757701    1.797768
     27          1           0        0.142896   -0.859445    1.828743
     28          1           0       -2.362137   -0.883615    2.002700
     29          1           0       -1.759694   -1.805476    0.616069
     30          1           0       -2.884464    1.036246    0.538894
     31          1           0       -1.801636   -0.674894   -1.754872
     32          1           0       -2.507397    0.937927   -1.906255
     33          1           0        0.014474    0.994991   -1.881618
     34          1           0       -0.703121    1.906415   -0.543005
     35          1           0       -3.958183   -1.516788   -0.731422
     36          1           0       -5.052636    0.152395    1.604463
     37          1           0       -5.941885   -1.128226    0.752487
     38          1           0       -4.497926   -1.527046    1.703739
     39          1           0       -4.983316    1.099589   -0.747766
 ---------------------------------------------------------------------

 SCF Done:  E(UB3LYP) =  -731.731274787     A.U. after   33 cycles
 SCF Done:  E(UB3LYP) =  -731.731274787     a.u. after    1 cycles

 The electronic state is 2-A.
 Alpha  occ. eigenvalues --  -19.02977 -14.21934 -14.21295 -10.13219 -10.11775
 Alpha  occ. eigenvalues --  -10.10966 -10.10556 -10.10166 -10.08333 -10.08157
 Alpha  occ. eigenvalues --  -10.08024 -10.07912 -10.07843 -10.07321 -10.07243
 Alpha  occ. eigenvalues --  -10.07073 -10.06955  -0.93242  -0.84547  -0.82171
 Alpha  occ. eigenvalues --   -0.74942  -0.71841  -0.67005  -0.66524  -0.66008
 Alpha  occ. eigenvalues --   -0.63667  -0.59026  -0.56360  -0.53948  -0.52022
 Alpha  occ. eigenvalues --   -0.50833  -0.49318  -0.46873  -0.43367  -0.41950
 Alpha  occ. eigenvalues --   -0.40319  -0.38643  -0.37540  -0.37194  -0.36271
 Alpha  occ. eigenvalues --   -0.35720  -0.35340  -0.34065  -0.33385  -0.33083
 Alpha  occ. eigenvalues --   -0.32344  -0.32057  -0.30274  -0.29862  -0.29187
 Alpha  occ. eigenvalues --   -0.28437  -0.28282  -0.27204  -0.26315  -0.25893
 Alpha  occ. eigenvalues --   -0.25556  -0.23679  -0.23107  -0.22064  -0.21043
 Alpha  occ. eigenvalues --   -0.18528  -0.16091  -0.12265  -0.11188   0.03960
 Alpha virt. eigenvalues --    0.04982   0.06461   0.06973   0.07287   0.07680
 Alpha virt. eigenvalues --    0.07882   0.08657   0.08695   0.09290   0.10003
 Alpha virt. eigenvalues --    0.10024   0.10505   0.10709   0.11454   0.11676

  Beta  occ. eigenvalues --  -19.02947 -14.21873 -14.21286 -10.13215 -10.11771
  Beta  occ. eigenvalues --  -10.10965 -10.10550 -10.10160 -10.08319 -10.08155
  Beta  occ. eigenvalues --  -10.08021 -10.07904 -10.07836 -10.07307 -10.07211
  Beta  occ. eigenvalues --  -10.07068 -10.06947  -0.93178  -0.84533  -0.82101
  Beta  occ. eigenvalues --   -0.74918  -0.71814  -0.66985  -0.66499  -0.65983
  Beta  occ. eigenvalues --   -0.63639  -0.58987  -0.56323  -0.53927  -0.51980
  Beta  occ. eigenvalues --   -0.50802  -0.49277  -0.46831  -0.43318  -0.41909
  Beta  occ. eigenvalues --   -0.40277  -0.38601  -0.37512  -0.37174  -0.36225
  Beta  occ. eigenvalues --   -0.35684  -0.35309  -0.34034  -0.33371  -0.33058
  Beta  occ. eigenvalues --   -0.32326  -0.32026  -0.30254  -0.29843  -0.29163
  Beta  occ. eigenvalues --   -0.28410  -0.28244  -0.27175  -0.26292  -0.25872
  Beta  occ. eigenvalues --   -0.25533  -0.23639  -0.23087  -0.22037  -0.21012
  Beta  occ. eigenvalues --   -0.18500  -0.16081  -0.12219  -0.11155
  Beta virt. eigenvalues --    0.06012   0.06492   0.06704   0.07361   0.07739
  Beta virt. eigenvalues --    0.07857   0.07986   0.08844   0.08986   0.09744
  Beta virt. eigenvalues --    0.10063   0.10275   0.10571   0.10885   0.11753

 Mulliken charges and spin densities:
               1          2
     1  C    0.578291  -1.138879
     2  C   -0.277923   0.251099
     3  C   -1.231185   0.257278
     4  C    0.667083  -0.377296
     5  C    0.450761  -1.106232
     6  C   -0.633504   0.880263
     7  C    0.146299  -0.123342
     8  N   -0.222037  -0.058887
     9  N    0.476155   0.003188
    10  C   -0.388355  -0.279443
    11  C    0.153153  -0.410300
    12  C    0.051874   0.333736
    13  C    0.347460  -0.883720
    14  C   -0.292247   0.329010
    15  C   -0.552018   0.231999
    16  C    0.644452  -1.246289
    17  O   -0.185618  -0.009709
    18  H    0.039697   0.119073
    19  H    0.082212   0.077921
    20  H    0.077181   0.072033
    21  H   -0.025766   0.186166
    22  H   -0.479956   0.647139
    23  H    0.071093   0.052590
    24  H   -0.177654   0.416134
    25  H   -0.351692   0.604613
    26  H   -0.065111   0.165884
    27  H    0.102720   0.083911
    28  H    0.078892   0.049475
    29  H    0.090863   0.059865
    30  H   -0.063153   0.222363
    31  H    0.092908   0.052379
    32  H    0.114531   0.046796
    33  H    0.087802   0.090336
    34  H   -0.002184   0.113011
    35  H    0.173308  -0.003024
    36  H   -0.418175   0.586517
    37  H   -0.057636   0.202979
    38  H   -0.058337   0.206970
    39  H   -0.044183   0.294395
 Sum of Mulliken charges =  -1.00000   1.00000

 Dipole moment (field-independent basis, Debye):
    X=             -1.6016    Y=              2.1764    Z=              0.5306  Tot=              2.7538
 Quadrupole moment (field-independent basis, Debye-Ang):
   XX=           -240.7285   YY=           -145.3866   ZZ=           -138.2466
   XY=             29.7051   XZ=              8.5425   YZ=             -3.4986

 Summary of Natural Population Analysis:

                                       Natural Population
                Natural  -----------------------------------------------
    Atom  No    Charge         Core      Valence    Rydberg      Total
 -----------------------------------------------------------------------
      C    1   -0.29108      0.99964     2.28692    0.00452     3.29108
      C    2   -0.04630      0.99946     2.03921    0.00763     3.04630
      C    3    0.09590      0.99943     1.89316    0.01152     2.90410
      C    4   -0.12116      0.99947     2.11185    0.00985     3.12116
      C    5    0.08569      0.99948     1.90341    0.01142     2.91431
      C    6   -0.12643      0.99952     2.11636    0.01055     3.12643
      C    7   -0.08967      0.99953     2.08165    0.00848     3.08967
      N    8   -0.39500      0.99972     2.88473    0.01055     3.89500
      N    9   -0.28845      0.99967     2.77607    0.01272     3.78845
      C   10   -0.07620      0.99960     2.06693    0.00967     3.07620
      C   11   -0.19293      0.99961     2.18409    0.00923     3.19293
      C   12   -0.12103      0.99957     2.10937    0.01210     3.12103
      C   13   -0.19146      0.99961     2.18214    0.00972     3.19146
      C   14   -0.08123      0.99961     2.07122    0.01040     3.08123
      C   15    0.06721      0.99955     1.92012    0.01312     2.93279
      C   16   -0.29835      0.99965     2.29297    0.00573     3.29835
      O   17   -0.37258      0.99990     3.36592    0.00676     4.37258
      H   18    0.10184      0.00000     0.39701    0.00115     0.39816
      H   19    0.10317      0.00000     0.39553    0.00130     0.39683
      H   20    0.09946      0.00000     0.39969    0.00085     0.40054
      H   21    0.10300      0.00000     0.39535    0.00165     0.39700
      H   22    0.10074      0.00000     0.39822    0.00104     0.39926
      H   23    0.09575      0.00000     0.40334    0.00091     0.40425
      H   24    0.18595      0.00000     0.31077    0.00328     0.31405
      H   25    0.18820      0.00000     0.30464    0.00716     0.31180
      H   26    0.07786      0.00000     0.42074    0.00139     0.42214
      H   27    0.10099      0.00000     0.39810    0.00091     0.39901
      H   28    0.10101      0.00000     0.39807    0.00092     0.39899
      H   29    0.09622      0.00000     0.40235    0.00143     0.40378
      H   30    0.09272      0.00000     0.40435    0.00292     0.40728
      H   31    0.09620      0.00000     0.40247    0.00133     0.40380
      H   32    0.10717      0.00000     0.39187    0.00096     0.39283
      H   33    0.09962      0.00000     0.39945    0.00092     0.40038
      H   34    0.08031      0.00000     0.41807    0.00163     0.41969
      H   35    0.08208      0.00000     0.41601    0.00191     0.41792
      H   36    0.09969      0.00000     0.39862    0.00169     0.40031
      H   37    0.10333      0.00000     0.39582    0.00085     0.39667
      H   38    0.10080      0.00000     0.39834    0.00086     0.39920
      H   39    0.22694      0.00000     0.26935    0.00370     0.27306
 =======================================================================
   * Total *    0.00000     16.99300    46.80428    0.20271    64.00000

 Normal termination of Gaussian 16 at Mon Dec 14 14:24:31 2020.
